
     Program PWSCF v.7.4.1 starts on 14Aug2025 at 16:44: 9 

     This program is part of the open-source Quantum ESPRESSO suite
     for quantum simulation of materials; please cite
         "P. Giannozzi et al., J. Phys.:Condens. Matter 21 395502 (2009);
         "P. Giannozzi et al., J. Phys.:Condens. Matter 29 465901 (2017);
         "P. Giannozzi et al., J. Chem. Phys. 152 154105 (2020);
          URL http://www.quantum-espresso.org", 
     in publications or presentations arising from this work. More details at
     http://www.quantum-espresso.org/quote

     Parallel version (MPI & OpenMP), running on      48 processor cores
     Number of MPI processes:                24
     Threads/MPI process:                     2

     MPI processes distributed on     2 nodes
     86588 MiB available memory on the printing compute node when the environment starts

     Waiting for input...
     Reading input from standard input

     Current dimensions of program PWSCF are:
     Max number of different atomic species (ntypx) = 10
     Max number of k-points (npk) =  40000
     Max angular momentum in pseudopotentials (lmaxx) =  4
Error reading attribute index: expected integer, found *
Error reading attribute index: expected integer, found *

     IMPORTANT: XC functional enforced from input :
     Exchange-correlation= PBE
                           (   1   4   3   4   0   0   0)
     Any further DFT definition will be discarded
     Please, verify this is what you really want


     Atomic positions and unit cell read from directory:
     tmp/Sb2Te3-uatsx-c2-soc-3.0.save/

     Message from routine setup:
     no reason to have ecutrho>4*ecutwfc

     R & G space division:  proc/nbgrp/npool/nimage =      24
     Subspace diagonalization in iterative solution of the eigenvalue problem:
     a serial algorithm will be used


     Parallelization info
     --------------------
     sticks:   dense  smooth     PW     G-vecs:    dense   smooth      PW
     Min          97      39     11                19481     4929     747
     Max          98      40     12                19500     4946     765
     Sum        2349     941    267               467835   118417   18151

     Using Slab Decomposition



     bravais-lattice index     =            0
     lattice parameter (alat)  =       8.3900  a.u.
     unit-cell volume          =    2478.7943 (a.u.)^3
     number of atoms/cell      =            5
     number of atomic types    =            2
     number of electrons       =        78.00
     number of Kohn-Sham states=          100
     kinetic-energy cutoff     =      50.0000  Ry
     charge density cutoff     =     500.0000  Ry
     Exchange-correlation= PBE
                           (   1   4   3   4   0   0   0)
     Non magnetic calculation with spin-orbit


     celldm(1)=   8.390002  celldm(2)=   0.000000  celldm(3)=   0.000000
     celldm(4)=   0.000000  celldm(5)=   0.000000  celldm(6)=   0.000000

     crystal axes: (cart. coord. in units of alat)
               a(1) = (   1.000000   0.000000   0.000000 )  
               a(2) = (  -0.485437   0.840793   0.000000 )  
               a(3) = (   0.000000   0.000000   4.991890 )  

     reciprocal axes: (cart. coord. in units 2 pi/alat)
               b(1) = (  1.000000  0.577356 -0.000000 )  
               b(2) = (  0.000000  1.189353  0.000000 )  
               b(3) = (  0.000000 -0.000000  0.200325 )  


     PseudoPot. # 1 for Sb read from file:
     /zfs-home/202401017n1/pseudos/Sb_ONCV_PBE_FR-1.1.upf
     MD5 check sum: 7dc1726f2158e3c51e4807d42b9c5c65
     Pseudo is Norm-conserving, Zval = 15.0
     Generated using ONCVPSP code by D. R. Hamann
     Using radial grid of  602 points, 10 beta functions with: 
                l(1) =   0
                l(2) =   0
                l(3) =   1
                l(4) =   1
                l(5) =   1
                l(6) =   1
                l(7) =   2
                l(8) =   2
                l(9) =   2
               l(10) =   2

     PseudoPot. # 2 for Te read from file:
     /zfs-home/202401017n1/pseudos/Te_ONCV_PBE_FR-1.1.upf
     MD5 check sum: c6e17480449037a9a9d16e6377b5c7c4
     Pseudo is Norm-conserving, Zval = 16.0
     Generated using ONCVPSP code by D. R. Hamann
     Using radial grid of  602 points, 10 beta functions with: 
                l(1) =   0
                l(2) =   0
                l(3) =   1
                l(4) =   1
                l(5) =   1
                l(6) =   1
                l(7) =   2
                l(8) =   2
                l(9) =   2
               l(10) =   2

     atomic species   valence    mass     pseudopotential
     Sb               15.00   121.76000     Sb( 1.00)
     Te               16.00   127.60000     Te( 1.00)

     No symmetry found


                                    s                        frac. trans.

      isym =  1     identity                                     

 cryst.   s( 1) = (     1          0          0      )
                  (     0          1          0      )
                  (     0          0          1      )

 cart.    s( 1) = (  1.0000000  0.0000000  0.0000000 )
                  (  0.0000000  1.0000000  0.0000000 )
                  (  0.0000000  0.0000000  1.0000000 )


   Cartesian axes

     site n.     atom                  positions (alat units)
         1        Sb     tau(   1) = (   0.5867812   0.4172984   2.9417443  )
         2        Te     tau(   2) = (   0.5754457   0.3979752   1.6726131  )
         3        Sb     tau(   3) = (   0.0727921   0.1220272   2.0501240  )
         4        Te     tau(   4) = (   0.0840698   0.1416820   3.3192296  )
         5        Te     tau(   5) = (   0.0870265   0.6902229   2.4959189  )

   Crystallographic axes

     site n.     atom                  positions (cryst. coord.)
         1        Sb     tau(   1) = (  0.8277109  0.4963151  0.5893047  )
         2        Te     tau(   2) = (  0.8052190  0.4733330  0.3350661  )
         3        Sb     tau(   3) = (  0.1432452  0.1451335  0.4106909  )
         4        Te     tau(   4) = (  0.1658708  0.1685099  0.6649244  )
         5        Te     tau(   5) = (  0.4855307  0.8209187  0.4999948  )

     number of k points=   211
                       cart. coord. in units 2pi/alat
        k(    1) = (   0.0000000   0.0000000   0.0000000), wk =   0.0047393
        k(    2) = (   0.0071429   0.0041240   0.0000000), wk =   0.0047393
        k(    3) = (   0.0142857   0.0082479   0.0000000), wk =   0.0047393
        k(    4) = (   0.0214286   0.0123719   0.0000000), wk =   0.0047393
        k(    5) = (   0.0285714   0.0164959   0.0000000), wk =   0.0047393
        k(    6) = (   0.0357143   0.0206199   0.0000000), wk =   0.0047393
        k(    7) = (   0.0428571   0.0247438   0.0000000), wk =   0.0047393
        k(    8) = (   0.0500000   0.0288678   0.0000000), wk =   0.0047393
        k(    9) = (   0.0571429   0.0329918   0.0000000), wk =   0.0047393
        k(   10) = (   0.0642857   0.0371157   0.0000000), wk =   0.0047393
        k(   11) = (   0.0714286   0.0412397   0.0000000), wk =   0.0047393
        k(   12) = (   0.0785714   0.0453637   0.0000000), wk =   0.0047393
        k(   13) = (   0.0857143   0.0494876   0.0000000), wk =   0.0047393
        k(   14) = (   0.0928571   0.0536116   0.0000000), wk =   0.0047393
        k(   15) = (   0.1000000   0.0577356   0.0000000), wk =   0.0047393
        k(   16) = (   0.1071429   0.0618596   0.0000000), wk =   0.0047393
        k(   17) = (   0.1142857   0.0659835   0.0000000), wk =   0.0047393
        k(   18) = (   0.1214286   0.0701075   0.0000000), wk =   0.0047393
        k(   19) = (   0.1285714   0.0742315   0.0000000), wk =   0.0047393
        k(   20) = (   0.1357143   0.0783554   0.0000000), wk =   0.0047393
        k(   21) = (   0.1428571   0.0824794   0.0000000), wk =   0.0047393
        k(   22) = (   0.1500000   0.0866034   0.0000000), wk =   0.0047393
        k(   23) = (   0.1571429   0.0907273   0.0000000), wk =   0.0047393
        k(   24) = (   0.1642857   0.0948513   0.0000000), wk =   0.0047393
        k(   25) = (   0.1714286   0.0989753   0.0000000), wk =   0.0047393
        k(   26) = (   0.1785714   0.1030993   0.0000000), wk =   0.0047393
        k(   27) = (   0.1857143   0.1072232   0.0000000), wk =   0.0047393
        k(   28) = (   0.1928571   0.1113472   0.0000000), wk =   0.0047393
        k(   29) = (   0.2000000   0.1154712   0.0000000), wk =   0.0047393
        k(   30) = (   0.2071429   0.1195951   0.0000000), wk =   0.0047393
        k(   31) = (   0.2142857   0.1237191   0.0000000), wk =   0.0047393
        k(   32) = (   0.2214286   0.1278431   0.0000000), wk =   0.0047393
        k(   33) = (   0.2285714   0.1319671   0.0000000), wk =   0.0047393
        k(   34) = (   0.2357143   0.1360910   0.0000000), wk =   0.0047393
        k(   35) = (   0.2428571   0.1402150   0.0000000), wk =   0.0047393
        k(   36) = (   0.2500000   0.1443390   0.0000000), wk =   0.0047393
        k(   37) = (   0.2571429   0.1484629   0.0000000), wk =   0.0047393
        k(   38) = (   0.2642857   0.1525869   0.0000000), wk =   0.0047393
        k(   39) = (   0.2714286   0.1567109   0.0000000), wk =   0.0047393
        k(   40) = (   0.2785714   0.1608348   0.0000000), wk =   0.0047393
        k(   41) = (   0.2857143   0.1649588   0.0000000), wk =   0.0047393
        k(   42) = (   0.2928571   0.1690828   0.0000000), wk =   0.0047393
        k(   43) = (   0.3000000   0.1732068   0.0000000), wk =   0.0047393
        k(   44) = (   0.3071429   0.1773307   0.0000000), wk =   0.0047393
        k(   45) = (   0.3142857   0.1814547   0.0000000), wk =   0.0047393
        k(   46) = (   0.3214286   0.1855787   0.0000000), wk =   0.0047393
        k(   47) = (   0.3285714   0.1897026   0.0000000), wk =   0.0047393
        k(   48) = (   0.3357143   0.1938266   0.0000000), wk =   0.0047393
        k(   49) = (   0.3428571   0.1979506   0.0000000), wk =   0.0047393
        k(   50) = (   0.3500000   0.2020745   0.0000000), wk =   0.0047393
        k(   51) = (   0.3571429   0.2061985   0.0000000), wk =   0.0047393
        k(   52) = (   0.3642857   0.2103225   0.0000000), wk =   0.0047393
        k(   53) = (   0.3714286   0.2144465   0.0000000), wk =   0.0047393
        k(   54) = (   0.3785714   0.2185704   0.0000000), wk =   0.0047393
        k(   55) = (   0.3857143   0.2226944   0.0000000), wk =   0.0047393
        k(   56) = (   0.3928571   0.2268184   0.0000000), wk =   0.0047393
        k(   57) = (   0.4000000   0.2309423   0.0000000), wk =   0.0047393
        k(   58) = (   0.4071429   0.2350663   0.0000000), wk =   0.0047393
        k(   59) = (   0.4142857   0.2391903   0.0000000), wk =   0.0047393
        k(   60) = (   0.4214286   0.2433143   0.0000000), wk =   0.0047393
        k(   61) = (   0.4285714   0.2474382   0.0000000), wk =   0.0047393
        k(   62) = (   0.4357143   0.2515622   0.0000000), wk =   0.0047393
        k(   63) = (   0.4428571   0.2556862   0.0000000), wk =   0.0047393
        k(   64) = (   0.4500000   0.2598101   0.0000000), wk =   0.0047393
        k(   65) = (   0.4571429   0.2639341   0.0000000), wk =   0.0047393
        k(   66) = (   0.4642857   0.2680581   0.0000000), wk =   0.0047393
        k(   67) = (   0.4714286   0.2721820   0.0000000), wk =   0.0047393
        k(   68) = (   0.4785714   0.2763060   0.0000000), wk =   0.0047393
        k(   69) = (   0.4857143   0.2804300   0.0000000), wk =   0.0047393
        k(   70) = (   0.4928571   0.2845540   0.0000000), wk =   0.0047393
        k(   71) = (   0.5000000   0.2886779   0.0000000), wk =   0.0047393
        k(   72) = (   0.4976190   0.2929669   0.0000000), wk =   0.0047393
        k(   73) = (   0.4952381   0.2972558   0.0000000), wk =   0.0047393
        k(   74) = (   0.4928571   0.3015447   0.0000000), wk =   0.0047393
        k(   75) = (   0.4904762   0.3058336   0.0000000), wk =   0.0047393
        k(   76) = (   0.4880952   0.3101226   0.0000000), wk =   0.0047393
        k(   77) = (   0.4857143   0.3144115   0.0000000), wk =   0.0047393
        k(   78) = (   0.4833333   0.3187004   0.0000000), wk =   0.0047393
        k(   79) = (   0.4809524   0.3229894   0.0000000), wk =   0.0047393
        k(   80) = (   0.4785714   0.3272783   0.0000000), wk =   0.0047393
        k(   81) = (   0.4761905   0.3315672   0.0000000), wk =   0.0047393
        k(   82) = (   0.4738095   0.3358561   0.0000000), wk =   0.0047393
        k(   83) = (   0.4714286   0.3401451   0.0000000), wk =   0.0047393
        k(   84) = (   0.4690476   0.3444340   0.0000000), wk =   0.0047393
        k(   85) = (   0.4666667   0.3487229   0.0000000), wk =   0.0047393
        k(   86) = (   0.4642857   0.3530119   0.0000000), wk =   0.0047393
        k(   87) = (   0.4619048   0.3573008   0.0000000), wk =   0.0047393
        k(   88) = (   0.4595238   0.3615897   0.0000000), wk =   0.0047393
        k(   89) = (   0.4571429   0.3658787   0.0000000), wk =   0.0047393
        k(   90) = (   0.4547619   0.3701676   0.0000000), wk =   0.0047393
        k(   91) = (   0.4523810   0.3744565   0.0000000), wk =   0.0047393
        k(   92) = (   0.4500000   0.3787454   0.0000000), wk =   0.0047393
        k(   93) = (   0.4476190   0.3830344   0.0000000), wk =   0.0047393
        k(   94) = (   0.4452381   0.3873233   0.0000000), wk =   0.0047393
        k(   95) = (   0.4428571   0.3916122   0.0000000), wk =   0.0047393
        k(   96) = (   0.4404762   0.3959012   0.0000000), wk =   0.0047393
        k(   97) = (   0.4380952   0.4001901   0.0000000), wk =   0.0047393
        k(   98) = (   0.4357143   0.4044790   0.0000000), wk =   0.0047393
        k(   99) = (   0.4333333   0.4087679   0.0000000), wk =   0.0047393
        k(  100) = (   0.4309524   0.4130569   0.0000000), wk =   0.0047393
        k(  101) = (   0.4285714   0.4173458   0.0000000), wk =   0.0047393
        k(  102) = (   0.4261905   0.4216347   0.0000000), wk =   0.0047393
        k(  103) = (   0.4238095   0.4259237   0.0000000), wk =   0.0047393
        k(  104) = (   0.4214286   0.4302126   0.0000000), wk =   0.0047393
        k(  105) = (   0.4190476   0.4345015   0.0000000), wk =   0.0047393
        k(  106) = (   0.4166667   0.4387904   0.0000000), wk =   0.0047393
        k(  107) = (   0.4142857   0.4430794   0.0000000), wk =   0.0047393
        k(  108) = (   0.4119048   0.4473683   0.0000000), wk =   0.0047393
        k(  109) = (   0.4095238   0.4516572   0.0000000), wk =   0.0047393
        k(  110) = (   0.4071429   0.4559462   0.0000000), wk =   0.0047393
        k(  111) = (   0.4047619   0.4602351   0.0000000), wk =   0.0047393
        k(  112) = (   0.4023810   0.4645240   0.0000000), wk =   0.0047393
        k(  113) = (   0.4000000   0.4688130   0.0000000), wk =   0.0047393
        k(  114) = (   0.3976190   0.4731019   0.0000000), wk =   0.0047393
        k(  115) = (   0.3952381   0.4773908   0.0000000), wk =   0.0047393
        k(  116) = (   0.3928571   0.4816797   0.0000000), wk =   0.0047393
        k(  117) = (   0.3904762   0.4859687   0.0000000), wk =   0.0047393
        k(  118) = (   0.3880952   0.4902576   0.0000000), wk =   0.0047393
        k(  119) = (   0.3857143   0.4945465   0.0000000), wk =   0.0047393
        k(  120) = (   0.3833333   0.4988355   0.0000000), wk =   0.0047393
        k(  121) = (   0.3809524   0.5031244   0.0000000), wk =   0.0047393
        k(  122) = (   0.3785714   0.5074133   0.0000000), wk =   0.0047393
        k(  123) = (   0.3761905   0.5117022   0.0000000), wk =   0.0047393
        k(  124) = (   0.3738095   0.5159912   0.0000000), wk =   0.0047393
        k(  125) = (   0.3714286   0.5202801   0.0000000), wk =   0.0047393
        k(  126) = (   0.3690476   0.5245690   0.0000000), wk =   0.0047393
        k(  127) = (   0.3666667   0.5288580   0.0000000), wk =   0.0047393
        k(  128) = (   0.3642857   0.5331469   0.0000000), wk =   0.0047393
        k(  129) = (   0.3619048   0.5374358   0.0000000), wk =   0.0047393
        k(  130) = (   0.3595238   0.5417247   0.0000000), wk =   0.0047393
        k(  131) = (   0.3571429   0.5460137   0.0000000), wk =   0.0047393
        k(  132) = (   0.3547619   0.5503026   0.0000000), wk =   0.0047393
        k(  133) = (   0.3523810   0.5545915   0.0000000), wk =   0.0047393
        k(  134) = (   0.3500000   0.5588805   0.0000000), wk =   0.0047393
        k(  135) = (   0.3476190   0.5631694   0.0000000), wk =   0.0047393
        k(  136) = (   0.3452381   0.5674583   0.0000000), wk =   0.0047393
        k(  137) = (   0.3428571   0.5717473   0.0000000), wk =   0.0047393
        k(  138) = (   0.3404762   0.5760362   0.0000000), wk =   0.0047393
        k(  139) = (   0.3380952   0.5803251   0.0000000), wk =   0.0047393
        k(  140) = (   0.3357143   0.5846140   0.0000000), wk =   0.0047393
        k(  141) = (   0.3333333   0.5889030   0.0000000), wk =   0.0047393
        k(  142) = (   0.3285714   0.5804901   0.0000000), wk =   0.0047393
        k(  143) = (   0.3238095   0.5720772   0.0000000), wk =   0.0047393
        k(  144) = (   0.3190476   0.5636643   0.0000000), wk =   0.0047393
        k(  145) = (   0.3142857   0.5552514   0.0000000), wk =   0.0047393
        k(  146) = (   0.3095238   0.5468385   0.0000000), wk =   0.0047393
        k(  147) = (   0.3047619   0.5384256   0.0000000), wk =   0.0047393
        k(  148) = (   0.3000000   0.5300127   0.0000000), wk =   0.0047393
        k(  149) = (   0.2952381   0.5215998   0.0000000), wk =   0.0047393
        k(  150) = (   0.2904762   0.5131869   0.0000000), wk =   0.0047393
        k(  151) = (   0.2857143   0.5047740   0.0000000), wk =   0.0047393
        k(  152) = (   0.2809524   0.4963611   0.0000000), wk =   0.0047393
        k(  153) = (   0.2761905   0.4879482   0.0000000), wk =   0.0047393
        k(  154) = (   0.2714286   0.4795353   0.0000000), wk =   0.0047393
        k(  155) = (   0.2666667   0.4711224   0.0000000), wk =   0.0047393
        k(  156) = (   0.2619048   0.4627095   0.0000000), wk =   0.0047393
        k(  157) = (   0.2571429   0.4542966   0.0000000), wk =   0.0047393
        k(  158) = (   0.2523810   0.4458837   0.0000000), wk =   0.0047393
        k(  159) = (   0.2476190   0.4374708   0.0000000), wk =   0.0047393
        k(  160) = (   0.2428571   0.4290579   0.0000000), wk =   0.0047393
        k(  161) = (   0.2380952   0.4206450   0.0000000), wk =   0.0047393
        k(  162) = (   0.2333333   0.4122321   0.0000000), wk =   0.0047393
        k(  163) = (   0.2285714   0.4038192   0.0000000), wk =   0.0047393
        k(  164) = (   0.2238095   0.3954063   0.0000000), wk =   0.0047393
        k(  165) = (   0.2190476   0.3869934   0.0000000), wk =   0.0047393
        k(  166) = (   0.2142857   0.3785805   0.0000000), wk =   0.0047393
        k(  167) = (   0.2095238   0.3701676   0.0000000), wk =   0.0047393
        k(  168) = (   0.2047619   0.3617547   0.0000000), wk =   0.0047393
        k(  169) = (   0.2000000   0.3533418   0.0000000), wk =   0.0047393
        k(  170) = (   0.1952381   0.3449289   0.0000000), wk =   0.0047393
        k(  171) = (   0.1904762   0.3365160   0.0000000), wk =   0.0047393
        k(  172) = (   0.1857143   0.3281031   0.0000000), wk =   0.0047393
        k(  173) = (   0.1809524   0.3196902   0.0000000), wk =   0.0047393
        k(  174) = (   0.1761905   0.3112773   0.0000000), wk =   0.0047393
        k(  175) = (   0.1714286   0.3028644   0.0000000), wk =   0.0047393
        k(  176) = (   0.1666667   0.2944515   0.0000000), wk =   0.0047393
        k(  177) = (   0.1619048   0.2860386   0.0000000), wk =   0.0047393
        k(  178) = (   0.1571429   0.2776257   0.0000000), wk =   0.0047393
        k(  179) = (   0.1523810   0.2692128   0.0000000), wk =   0.0047393
        k(  180) = (   0.1476190   0.2607999   0.0000000), wk =   0.0047393
        k(  181) = (   0.1428571   0.2523870   0.0000000), wk =   0.0047393
        k(  182) = (   0.1380952   0.2439741   0.0000000), wk =   0.0047393
        k(  183) = (   0.1333333   0.2355612   0.0000000), wk =   0.0047393
        k(  184) = (   0.1285714   0.2271483   0.0000000), wk =   0.0047393
        k(  185) = (   0.1238095   0.2187354   0.0000000), wk =   0.0047393
        k(  186) = (   0.1190476   0.2103225   0.0000000), wk =   0.0047393
        k(  187) = (   0.1142857   0.2019096   0.0000000), wk =   0.0047393
        k(  188) = (   0.1095238   0.1934967   0.0000000), wk =   0.0047393
        k(  189) = (   0.1047619   0.1850838   0.0000000), wk =   0.0047393
        k(  190) = (   0.1000000   0.1766709   0.0000000), wk =   0.0047393
        k(  191) = (   0.0952381   0.1682580   0.0000000), wk =   0.0047393
        k(  192) = (   0.0904762   0.1598451   0.0000000), wk =   0.0047393
        k(  193) = (   0.0857143   0.1514322   0.0000000), wk =   0.0047393
        k(  194) = (   0.0809524   0.1430193   0.0000000), wk =   0.0047393
        k(  195) = (   0.0761905   0.1346064   0.0000000), wk =   0.0047393
        k(  196) = (   0.0714286   0.1261935   0.0000000), wk =   0.0047393
        k(  197) = (   0.0666667   0.1177806   0.0000000), wk =   0.0047393
        k(  198) = (   0.0619048   0.1093677   0.0000000), wk =   0.0047393
        k(  199) = (   0.0571429   0.1009548   0.0000000), wk =   0.0047393
        k(  200) = (   0.0523810   0.0925419   0.0000000), wk =   0.0047393
        k(  201) = (   0.0476190   0.0841290   0.0000000), wk =   0.0047393
        k(  202) = (   0.0428571   0.0757161   0.0000000), wk =   0.0047393
        k(  203) = (   0.0380952   0.0673032   0.0000000), wk =   0.0047393
        k(  204) = (   0.0333333   0.0588903   0.0000000), wk =   0.0047393
        k(  205) = (   0.0285714   0.0504774   0.0000000), wk =   0.0047393
        k(  206) = (   0.0238095   0.0420645   0.0000000), wk =   0.0047393
        k(  207) = (   0.0190476   0.0336516   0.0000000), wk =   0.0047393
        k(  208) = (   0.0142857   0.0252387   0.0000000), wk =   0.0047393
        k(  209) = (   0.0095238   0.0168258   0.0000000), wk =   0.0047393
        k(  210) = (   0.0047619   0.0084129   0.0000000), wk =   0.0047393
        k(  211) = (   0.0000000   0.0000000   0.0000000), wk =   0.0047393

                       cryst. coord.
        k(    1) = (   0.0000000   0.0000000   0.0000000), wk =   0.0047393
        k(    2) = (   0.0071429   0.0000000   0.0000000), wk =   0.0047393
        k(    3) = (   0.0142857   0.0000000   0.0000000), wk =   0.0047393
        k(    4) = (   0.0214286   0.0000000   0.0000000), wk =   0.0047393
        k(    5) = (   0.0285714   0.0000000   0.0000000), wk =   0.0047393
        k(    6) = (   0.0357143  -0.0000000   0.0000000), wk =   0.0047393
        k(    7) = (   0.0428571   0.0000000   0.0000000), wk =   0.0047393
        k(    8) = (   0.0500000   0.0000000   0.0000000), wk =   0.0047393
        k(    9) = (   0.0571429   0.0000000   0.0000000), wk =   0.0047393
        k(   10) = (   0.0642857   0.0000000   0.0000000), wk =   0.0047393
        k(   11) = (   0.0714286  -0.0000000   0.0000000), wk =   0.0047393
        k(   12) = (   0.0785714  -0.0000000   0.0000000), wk =   0.0047393
        k(   13) = (   0.0857143   0.0000000   0.0000000), wk =   0.0047393
        k(   14) = (   0.0928571  -0.0000000   0.0000000), wk =   0.0047393
        k(   15) = (   0.1000000   0.0000000   0.0000000), wk =   0.0047393
        k(   16) = (   0.1071429   0.0000000   0.0000000), wk =   0.0047393
        k(   17) = (   0.1142857   0.0000000   0.0000000), wk =   0.0047393
        k(   18) = (   0.1214286   0.0000000   0.0000000), wk =   0.0047393
        k(   19) = (   0.1285714   0.0000000   0.0000000), wk =   0.0047393
        k(   20) = (   0.1357143   0.0000000   0.0000000), wk =   0.0047393
        k(   21) = (   0.1428571  -0.0000000   0.0000000), wk =   0.0047393
        k(   22) = (   0.1500000  -0.0000000   0.0000000), wk =   0.0047393
        k(   23) = (   0.1571429  -0.0000000   0.0000000), wk =   0.0047393
        k(   24) = (   0.1642857   0.0000000   0.0000000), wk =   0.0047393
        k(   25) = (   0.1714286   0.0000000   0.0000000), wk =   0.0047393
        k(   26) = (   0.1785714  -0.0000000   0.0000000), wk =   0.0047393
        k(   27) = (   0.1857143  -0.0000000   0.0000000), wk =   0.0047393
        k(   28) = (   0.1928571   0.0000000   0.0000000), wk =   0.0047393
        k(   29) = (   0.2000000   0.0000000   0.0000000), wk =   0.0047393
        k(   30) = (   0.2071429   0.0000000   0.0000000), wk =   0.0047393
        k(   31) = (   0.2142857   0.0000000   0.0000000), wk =   0.0047393
        k(   32) = (   0.2214286   0.0000000   0.0000000), wk =   0.0047393
        k(   33) = (   0.2285714   0.0000000   0.0000000), wk =   0.0047393
        k(   34) = (   0.2357143   0.0000000   0.0000000), wk =   0.0047393
        k(   35) = (   0.2428571   0.0000000   0.0000000), wk =   0.0047393
        k(   36) = (   0.2500000   0.0000000   0.0000000), wk =   0.0047393
        k(   37) = (   0.2571429   0.0000000   0.0000000), wk =   0.0047393
        k(   38) = (   0.2642857  -0.0000000   0.0000000), wk =   0.0047393
        k(   39) = (   0.2714286   0.0000000   0.0000000), wk =   0.0047393
        k(   40) = (   0.2785714  -0.0000000   0.0000000), wk =   0.0047393
        k(   41) = (   0.2857143  -0.0000000   0.0000000), wk =   0.0047393
        k(   42) = (   0.2928571   0.0000000   0.0000000), wk =   0.0047393
        k(   43) = (   0.3000000  -0.0000000   0.0000000), wk =   0.0047393
        k(   44) = (   0.3071429   0.0000000   0.0000000), wk =   0.0047393
        k(   45) = (   0.3142857  -0.0000000   0.0000000), wk =   0.0047393
        k(   46) = (   0.3214286  -0.0000000   0.0000000), wk =   0.0047393
        k(   47) = (   0.3285714   0.0000000   0.0000000), wk =   0.0047393
        k(   48) = (   0.3357143   0.0000000   0.0000000), wk =   0.0047393
        k(   49) = (   0.3428571   0.0000000   0.0000000), wk =   0.0047393
        k(   50) = (   0.3500000   0.0000000   0.0000000), wk =   0.0047393
        k(   51) = (   0.3571429  -0.0000000   0.0000000), wk =   0.0047393
        k(   52) = (   0.3642857   0.0000000   0.0000000), wk =   0.0047393
        k(   53) = (   0.3714286  -0.0000000   0.0000000), wk =   0.0047393
        k(   54) = (   0.3785714  -0.0000000   0.0000000), wk =   0.0047393
        k(   55) = (   0.3857143   0.0000000   0.0000000), wk =   0.0047393
        k(   56) = (   0.3928571   0.0000000   0.0000000), wk =   0.0047393
        k(   57) = (   0.4000000   0.0000000   0.0000000), wk =   0.0047393
        k(   58) = (   0.4071429   0.0000000   0.0000000), wk =   0.0047393
        k(   59) = (   0.4142857   0.0000000   0.0000000), wk =   0.0047393
        k(   60) = (   0.4214286   0.0000000   0.0000000), wk =   0.0047393
        k(   61) = (   0.4285714   0.0000000   0.0000000), wk =   0.0047393
        k(   62) = (   0.4357143   0.0000000   0.0000000), wk =   0.0047393
        k(   63) = (   0.4428571   0.0000000   0.0000000), wk =   0.0047393
        k(   64) = (   0.4500000  -0.0000000   0.0000000), wk =   0.0047393
        k(   65) = (   0.4571429   0.0000000   0.0000000), wk =   0.0047393
        k(   66) = (   0.4642857  -0.0000000   0.0000000), wk =   0.0047393
        k(   67) = (   0.4714286   0.0000000   0.0000000), wk =   0.0047393
        k(   68) = (   0.4785714   0.0000000   0.0000000), wk =   0.0047393
        k(   69) = (   0.4857143   0.0000000   0.0000000), wk =   0.0047393
        k(   70) = (   0.4928571   0.0000000   0.0000000), wk =   0.0047393
        k(   71) = (   0.5000000   0.0000000   0.0000000), wk =   0.0047393
        k(   72) = (   0.4976190   0.0047619   0.0000000), wk =   0.0047393
        k(   73) = (   0.4952381   0.0095238   0.0000000), wk =   0.0047393
        k(   74) = (   0.4928571   0.0142857   0.0000000), wk =   0.0047393
        k(   75) = (   0.4904762   0.0190476   0.0000000), wk =   0.0047393
        k(   76) = (   0.4880952   0.0238095   0.0000000), wk =   0.0047393
        k(   77) = (   0.4857143   0.0285714   0.0000000), wk =   0.0047393
        k(   78) = (   0.4833333   0.0333333   0.0000000), wk =   0.0047393
        k(   79) = (   0.4809524   0.0380952   0.0000000), wk =   0.0047393
        k(   80) = (   0.4785714   0.0428571   0.0000000), wk =   0.0047393
        k(   81) = (   0.4761905   0.0476190   0.0000000), wk =   0.0047393
        k(   82) = (   0.4738095   0.0523810   0.0000000), wk =   0.0047393
        k(   83) = (   0.4714286   0.0571429   0.0000000), wk =   0.0047393
        k(   84) = (   0.4690476   0.0619048   0.0000000), wk =   0.0047393
        k(   85) = (   0.4666667   0.0666667   0.0000000), wk =   0.0047393
        k(   86) = (   0.4642857   0.0714286   0.0000000), wk =   0.0047393
        k(   87) = (   0.4619048   0.0761905   0.0000000), wk =   0.0047393
        k(   88) = (   0.4595238   0.0809524   0.0000000), wk =   0.0047393
        k(   89) = (   0.4571429   0.0857143   0.0000000), wk =   0.0047393
        k(   90) = (   0.4547619   0.0904762   0.0000000), wk =   0.0047393
        k(   91) = (   0.4523810   0.0952381   0.0000000), wk =   0.0047393
        k(   92) = (   0.4500000   0.1000000   0.0000000), wk =   0.0047393
        k(   93) = (   0.4476190   0.1047619   0.0000000), wk =   0.0047393
        k(   94) = (   0.4452381   0.1095238   0.0000000), wk =   0.0047393
        k(   95) = (   0.4428571   0.1142857   0.0000000), wk =   0.0047393
        k(   96) = (   0.4404762   0.1190476   0.0000000), wk =   0.0047393
        k(   97) = (   0.4380952   0.1238095   0.0000000), wk =   0.0047393
        k(   98) = (   0.4357143   0.1285714   0.0000000), wk =   0.0047393
        k(   99) = (   0.4333333   0.1333333   0.0000000), wk =   0.0047393
        k(  100) = (   0.4309524   0.1380952   0.0000000), wk =   0.0047393
        k(  101) = (   0.4285714   0.1428571   0.0000000), wk =   0.0047393
        k(  102) = (   0.4261905   0.1476190   0.0000000), wk =   0.0047393
        k(  103) = (   0.4238095   0.1523810   0.0000000), wk =   0.0047393
        k(  104) = (   0.4214286   0.1571429   0.0000000), wk =   0.0047393
        k(  105) = (   0.4190476   0.1619048   0.0000000), wk =   0.0047393
        k(  106) = (   0.4166667   0.1666667   0.0000000), wk =   0.0047393
        k(  107) = (   0.4142857   0.1714286   0.0000000), wk =   0.0047393
        k(  108) = (   0.4119048   0.1761905   0.0000000), wk =   0.0047393
        k(  109) = (   0.4095238   0.1809524   0.0000000), wk =   0.0047393
        k(  110) = (   0.4071429   0.1857143   0.0000000), wk =   0.0047393
        k(  111) = (   0.4047619   0.1904762   0.0000000), wk =   0.0047393
        k(  112) = (   0.4023810   0.1952381   0.0000000), wk =   0.0047393
        k(  113) = (   0.4000000   0.2000000   0.0000000), wk =   0.0047393
        k(  114) = (   0.3976190   0.2047619   0.0000000), wk =   0.0047393
        k(  115) = (   0.3952381   0.2095238   0.0000000), wk =   0.0047393
        k(  116) = (   0.3928571   0.2142857   0.0000000), wk =   0.0047393
        k(  117) = (   0.3904762   0.2190476   0.0000000), wk =   0.0047393
        k(  118) = (   0.3880952   0.2238095   0.0000000), wk =   0.0047393
        k(  119) = (   0.3857143   0.2285714   0.0000000), wk =   0.0047393
        k(  120) = (   0.3833333   0.2333333   0.0000000), wk =   0.0047393
        k(  121) = (   0.3809524   0.2380952   0.0000000), wk =   0.0047393
        k(  122) = (   0.3785714   0.2428571   0.0000000), wk =   0.0047393
        k(  123) = (   0.3761905   0.2476190   0.0000000), wk =   0.0047393
        k(  124) = (   0.3738095   0.2523810   0.0000000), wk =   0.0047393
        k(  125) = (   0.3714286   0.2571429   0.0000000), wk =   0.0047393
        k(  126) = (   0.3690476   0.2619048   0.0000000), wk =   0.0047393
        k(  127) = (   0.3666667   0.2666667   0.0000000), wk =   0.0047393
        k(  128) = (   0.3642857   0.2714286   0.0000000), wk =   0.0047393
        k(  129) = (   0.3619048   0.2761905   0.0000000), wk =   0.0047393
        k(  130) = (   0.3595238   0.2809524   0.0000000), wk =   0.0047393
        k(  131) = (   0.3571429   0.2857143   0.0000000), wk =   0.0047393
        k(  132) = (   0.3547619   0.2904762   0.0000000), wk =   0.0047393
        k(  133) = (   0.3523810   0.2952381   0.0000000), wk =   0.0047393
        k(  134) = (   0.3500000   0.3000000   0.0000000), wk =   0.0047393
        k(  135) = (   0.3476190   0.3047619   0.0000000), wk =   0.0047393
        k(  136) = (   0.3452381   0.3095238   0.0000000), wk =   0.0047393
        k(  137) = (   0.3428571   0.3142857   0.0000000), wk =   0.0047393
        k(  138) = (   0.3404762   0.3190476   0.0000000), wk =   0.0047393
        k(  139) = (   0.3380952   0.3238095   0.0000000), wk =   0.0047393
        k(  140) = (   0.3357143   0.3285714   0.0000000), wk =   0.0047393
        k(  141) = (   0.3333333   0.3333333   0.0000000), wk =   0.0047393
        k(  142) = (   0.3285714   0.3285714   0.0000000), wk =   0.0047393
        k(  143) = (   0.3238095   0.3238095   0.0000000), wk =   0.0047393
        k(  144) = (   0.3190476   0.3190476   0.0000000), wk =   0.0047393
        k(  145) = (   0.3142857   0.3142857   0.0000000), wk =   0.0047393
        k(  146) = (   0.3095238   0.3095238   0.0000000), wk =   0.0047393
        k(  147) = (   0.3047619   0.3047619   0.0000000), wk =   0.0047393
        k(  148) = (   0.3000000   0.3000000   0.0000000), wk =   0.0047393
        k(  149) = (   0.2952381   0.2952381   0.0000000), wk =   0.0047393
        k(  150) = (   0.2904762   0.2904762   0.0000000), wk =   0.0047393
        k(  151) = (   0.2857143   0.2857143   0.0000000), wk =   0.0047393
        k(  152) = (   0.2809524   0.2809524   0.0000000), wk =   0.0047393
        k(  153) = (   0.2761905   0.2761905   0.0000000), wk =   0.0047393
        k(  154) = (   0.2714286   0.2714286   0.0000000), wk =   0.0047393
        k(  155) = (   0.2666667   0.2666667   0.0000000), wk =   0.0047393
        k(  156) = (   0.2619048   0.2619048   0.0000000), wk =   0.0047393
        k(  157) = (   0.2571429   0.2571429   0.0000000), wk =   0.0047393
        k(  158) = (   0.2523810   0.2523810   0.0000000), wk =   0.0047393
        k(  159) = (   0.2476190   0.2476190   0.0000000), wk =   0.0047393
        k(  160) = (   0.2428571   0.2428571   0.0000000), wk =   0.0047393
        k(  161) = (   0.2380952   0.2380952   0.0000000), wk =   0.0047393
        k(  162) = (   0.2333333   0.2333333   0.0000000), wk =   0.0047393
        k(  163) = (   0.2285714   0.2285714   0.0000000), wk =   0.0047393
        k(  164) = (   0.2238095   0.2238095   0.0000000), wk =   0.0047393
        k(  165) = (   0.2190476   0.2190476   0.0000000), wk =   0.0047393
        k(  166) = (   0.2142857   0.2142857   0.0000000), wk =   0.0047393
        k(  167) = (   0.2095238   0.2095238   0.0000000), wk =   0.0047393
        k(  168) = (   0.2047619   0.2047619   0.0000000), wk =   0.0047393
        k(  169) = (   0.2000000   0.2000000   0.0000000), wk =   0.0047393
        k(  170) = (   0.1952381   0.1952381   0.0000000), wk =   0.0047393
        k(  171) = (   0.1904762   0.1904762   0.0000000), wk =   0.0047393
        k(  172) = (   0.1857143   0.1857143   0.0000000), wk =   0.0047393
        k(  173) = (   0.1809524   0.1809524   0.0000000), wk =   0.0047393
        k(  174) = (   0.1761905   0.1761905   0.0000000), wk =   0.0047393
        k(  175) = (   0.1714286   0.1714286   0.0000000), wk =   0.0047393
        k(  176) = (   0.1666667   0.1666667   0.0000000), wk =   0.0047393
        k(  177) = (   0.1619048   0.1619048   0.0000000), wk =   0.0047393
        k(  178) = (   0.1571429   0.1571429   0.0000000), wk =   0.0047393
        k(  179) = (   0.1523810   0.1523810   0.0000000), wk =   0.0047393
        k(  180) = (   0.1476190   0.1476190   0.0000000), wk =   0.0047393
        k(  181) = (   0.1428571   0.1428571   0.0000000), wk =   0.0047393
        k(  182) = (   0.1380952   0.1380952   0.0000000), wk =   0.0047393
        k(  183) = (   0.1333333   0.1333333   0.0000000), wk =   0.0047393
        k(  184) = (   0.1285714   0.1285714   0.0000000), wk =   0.0047393
        k(  185) = (   0.1238095   0.1238095   0.0000000), wk =   0.0047393
        k(  186) = (   0.1190476   0.1190476   0.0000000), wk =   0.0047393
        k(  187) = (   0.1142857   0.1142857   0.0000000), wk =   0.0047393
        k(  188) = (   0.1095238   0.1095238   0.0000000), wk =   0.0047393
        k(  189) = (   0.1047619   0.1047619   0.0000000), wk =   0.0047393
        k(  190) = (   0.1000000   0.1000000   0.0000000), wk =   0.0047393
        k(  191) = (   0.0952381   0.0952381   0.0000000), wk =   0.0047393
        k(  192) = (   0.0904762   0.0904762   0.0000000), wk =   0.0047393
        k(  193) = (   0.0857143   0.0857143   0.0000000), wk =   0.0047393
        k(  194) = (   0.0809524   0.0809524   0.0000000), wk =   0.0047393
        k(  195) = (   0.0761905   0.0761905   0.0000000), wk =   0.0047393
        k(  196) = (   0.0714286   0.0714286   0.0000000), wk =   0.0047393
        k(  197) = (   0.0666667   0.0666667   0.0000000), wk =   0.0047393
        k(  198) = (   0.0619048   0.0619048   0.0000000), wk =   0.0047393
        k(  199) = (   0.0571429   0.0571429   0.0000000), wk =   0.0047393
        k(  200) = (   0.0523810   0.0523810   0.0000000), wk =   0.0047393
        k(  201) = (   0.0476190   0.0476190   0.0000000), wk =   0.0047393
        k(  202) = (   0.0428571   0.0428571   0.0000000), wk =   0.0047393
        k(  203) = (   0.0380952   0.0380952   0.0000000), wk =   0.0047393
        k(  204) = (   0.0333333   0.0333333   0.0000000), wk =   0.0047393
        k(  205) = (   0.0285714   0.0285714   0.0000000), wk =   0.0047393
        k(  206) = (   0.0238095   0.0238095   0.0000000), wk =   0.0047393
        k(  207) = (   0.0190476   0.0190476   0.0000000), wk =   0.0047393
        k(  208) = (   0.0142857   0.0142857   0.0000000), wk =   0.0047393
        k(  209) = (   0.0095238   0.0095238   0.0000000), wk =   0.0047393
        k(  210) = (   0.0047619   0.0047619   0.0000000), wk =   0.0047393
        k(  211) = (   0.0000000   0.0000000   0.0000000), wk =   0.0047393

     Dense  grid:   467835 G-vectors     FFT dimensions: (  60,  60, 300)

     Smooth grid:   118417 G-vectors     FFT dimensions: (  40,  40, 192)

     Dynamical RAM for                 wfc:       1.88 MB

     Dynamical RAM for     wfc (w. buffer):       1.88 MB

     Dynamical RAM for           str. fact:       0.60 MB

     Dynamical RAM for           local pot:       0.00 MB

     Dynamical RAM for          nlocal pot:       1.60 MB

     Dynamical RAM for                qrad:       9.40 MB

     Dynamical RAM for          rho,v,vnew:       7.86 MB

     Dynamical RAM for           G-vectors:       1.15 MB

     Dynamical RAM for          h,s,v(r/c):       1.83 MB

     Dynamical RAM for          <psi|beta>:       0.52 MB

     Dynamical RAM for                 psi:       3.76 MB

     Dynamical RAM for                hpsi:       3.76 MB

     Dynamical RAM for      wfcinit/wfcrot:       3.05 MB

     Estimated static dynamical RAM per process >      26.23 MB

     Estimated max dynamical RAM per process >      36.10 MB

     Estimated total dynamical RAM >     866.39 MB

     The potential is recalculated from file :
     tmp/Sb2Te3-uatsx-c2-soc-3.0.save/charge-density

     Starting wfcs are random

     Band Structure Calculation
     Davidson diagonalization with overlap

     Computing kpt #:     1  of   211
     total cpu time spent up to now is        5.7 secs

     Computing kpt #:     2  of   211
     total cpu time spent up to now is        9.8 secs

     Computing kpt #:     3  of   211
     total cpu time spent up to now is       13.9 secs

     Computing kpt #:     4  of   211
     total cpu time spent up to now is       18.2 secs

     Computing kpt #:     5  of   211
     total cpu time spent up to now is       22.1 secs

     Computing kpt #:     6  of   211
     total cpu time spent up to now is       26.2 secs

     Computing kpt #:     7  of   211
     total cpu time spent up to now is       30.2 secs

     Computing kpt #:     8  of   211
     total cpu time spent up to now is       34.2 secs

     Computing kpt #:     9  of   211
     total cpu time spent up to now is       38.1 secs

     Computing kpt #:    10  of   211
     total cpu time spent up to now is       42.1 secs

     Computing kpt #:    11  of   211
     total cpu time spent up to now is       46.1 secs

     Computing kpt #:    12  of   211
     total cpu time spent up to now is       50.1 secs

     Computing kpt #:    13  of   211
     total cpu time spent up to now is       54.1 secs

     Computing kpt #:    14  of   211
     total cpu time spent up to now is       58.1 secs

     Computing kpt #:    15  of   211
     total cpu time spent up to now is       62.0 secs

     Computing kpt #:    16  of   211
     total cpu time spent up to now is       66.0 secs

     Computing kpt #:    17  of   211
     total cpu time spent up to now is       70.0 secs

     Computing kpt #:    18  of   211
     total cpu time spent up to now is       74.0 secs

     Computing kpt #:    19  of   211
     total cpu time spent up to now is       78.0 secs

     Computing kpt #:    20  of   211
     total cpu time spent up to now is       81.9 secs

     Computing kpt #:    21  of   211
     total cpu time spent up to now is       85.7 secs

     Computing kpt #:    22  of   211
     total cpu time spent up to now is       90.2 secs

     Computing kpt #:    23  of   211
     total cpu time spent up to now is       94.1 secs

     Computing kpt #:    24  of   211
     total cpu time spent up to now is       98.0 secs

     Computing kpt #:    25  of   211
     total cpu time spent up to now is      101.9 secs

     Computing kpt #:    26  of   211
     total cpu time spent up to now is      105.8 secs

     Computing kpt #:    27  of   211
     total cpu time spent up to now is      109.7 secs

     Computing kpt #:    28  of   211
     total cpu time spent up to now is      113.6 secs

     Computing kpt #:    29  of   211
     total cpu time spent up to now is      117.5 secs

     Computing kpt #:    30  of   211
     total cpu time spent up to now is      121.5 secs

     Computing kpt #:    31  of   211
     total cpu time spent up to now is      125.5 secs

     Computing kpt #:    32  of   211
     total cpu time spent up to now is      129.6 secs

     Computing kpt #:    33  of   211
     total cpu time spent up to now is      133.7 secs

     Computing kpt #:    34  of   211
     total cpu time spent up to now is      137.7 secs

     Computing kpt #:    35  of   211
     total cpu time spent up to now is      141.8 secs

     Computing kpt #:    36  of   211
     total cpu time spent up to now is      145.8 secs

     Computing kpt #:    37  of   211
     total cpu time spent up to now is      150.0 secs

     Computing kpt #:    38  of   211
     total cpu time spent up to now is      154.0 secs

     Computing kpt #:    39  of   211
     total cpu time spent up to now is      158.4 secs

     Computing kpt #:    40  of   211
     total cpu time spent up to now is      162.4 secs

     Computing kpt #:    41  of   211
     total cpu time spent up to now is      166.8 secs

     Computing kpt #:    42  of   211
     total cpu time spent up to now is      170.9 secs

     Computing kpt #:    43  of   211
     total cpu time spent up to now is      175.8 secs

     Computing kpt #:    44  of   211
     total cpu time spent up to now is      180.0 secs

     Computing kpt #:    45  of   211
     total cpu time spent up to now is      184.0 secs

     Computing kpt #:    46  of   211
     total cpu time spent up to now is      188.0 secs

     Computing kpt #:    47  of   211
     total cpu time spent up to now is      192.6 secs

     Computing kpt #:    48  of   211
     total cpu time spent up to now is      196.5 secs

     Computing kpt #:    49  of   211
     total cpu time spent up to now is      200.7 secs

     Computing kpt #:    50  of   211
     total cpu time spent up to now is      204.6 secs

     Computing kpt #:    51  of   211
     total cpu time spent up to now is      208.6 secs

     Computing kpt #:    52  of   211
     total cpu time spent up to now is      212.6 secs

     Computing kpt #:    53  of   211
     total cpu time spent up to now is      216.6 secs

     Computing kpt #:    54  of   211
     total cpu time spent up to now is      220.7 secs

     Computing kpt #:    55  of   211
     total cpu time spent up to now is      224.7 secs

     Computing kpt #:    56  of   211
     total cpu time spent up to now is      228.7 secs

     Computing kpt #:    57  of   211
     total cpu time spent up to now is      232.7 secs

     Computing kpt #:    58  of   211
     total cpu time spent up to now is      236.8 secs

     Computing kpt #:    59  of   211
     total cpu time spent up to now is      240.8 secs

     Computing kpt #:    60  of   211
     total cpu time spent up to now is      244.9 secs

     Computing kpt #:    61  of   211
     total cpu time spent up to now is      248.8 secs

     Computing kpt #:    62  of   211
     total cpu time spent up to now is      252.9 secs

     Computing kpt #:    63  of   211
     total cpu time spent up to now is      256.9 secs

     Computing kpt #:    64  of   211
     total cpu time spent up to now is      260.9 secs

     Computing kpt #:    65  of   211
     total cpu time spent up to now is      264.9 secs

     Computing kpt #:    66  of   211
     total cpu time spent up to now is      269.4 secs

     Computing kpt #:    67  of   211
     total cpu time spent up to now is      273.4 secs

     Computing kpt #:    68  of   211
     total cpu time spent up to now is      277.5 secs

     Computing kpt #:    69  of   211
     total cpu time spent up to now is      281.5 secs

     Computing kpt #:    70  of   211
     total cpu time spent up to now is      285.6 secs

     Computing kpt #:    71  of   211
     total cpu time spent up to now is      289.5 secs

     Computing kpt #:    72  of   211
     total cpu time spent up to now is      293.5 secs

     Computing kpt #:    73  of   211
     total cpu time spent up to now is      297.5 secs

     Computing kpt #:    74  of   211
     total cpu time spent up to now is      301.5 secs

     Computing kpt #:    75  of   211
     total cpu time spent up to now is      305.5 secs

     Computing kpt #:    76  of   211
     total cpu time spent up to now is      309.5 secs

     Computing kpt #:    77  of   211
     total cpu time spent up to now is      313.6 secs

     Computing kpt #:    78  of   211
     total cpu time spent up to now is      317.6 secs

     Computing kpt #:    79  of   211
     total cpu time spent up to now is      321.7 secs

     Computing kpt #:    80  of   211
     total cpu time spent up to now is      325.8 secs

     Computing kpt #:    81  of   211
     total cpu time spent up to now is      329.8 secs

     Computing kpt #:    82  of   211
     total cpu time spent up to now is      333.9 secs

     Computing kpt #:    83  of   211
     total cpu time spent up to now is      338.0 secs

     Computing kpt #:    84  of   211
     total cpu time spent up to now is      342.1 secs

     Computing kpt #:    85  of   211
     total cpu time spent up to now is      346.1 secs

     Computing kpt #:    86  of   211
     total cpu time spent up to now is      350.3 secs

     Computing kpt #:    87  of   211
     total cpu time spent up to now is      354.6 secs

     Computing kpt #:    88  of   211
     total cpu time spent up to now is      358.7 secs

     Computing kpt #:    89  of   211
     total cpu time spent up to now is      363.0 secs

     Computing kpt #:    90  of   211
     total cpu time spent up to now is      367.4 secs

     Computing kpt #:    91  of   211
     total cpu time spent up to now is      371.6 secs

     Computing kpt #:    92  of   211
     total cpu time spent up to now is      376.1 secs

     Computing kpt #:    93  of   211
     total cpu time spent up to now is      380.6 secs

     Computing kpt #:    94  of   211
     total cpu time spent up to now is      385.1 secs

     Computing kpt #:    95  of   211
     total cpu time spent up to now is      389.3 secs

     Computing kpt #:    96  of   211
     total cpu time spent up to now is      393.4 secs

     Computing kpt #:    97  of   211
     total cpu time spent up to now is      397.8 secs

     Computing kpt #:    98  of   211
     total cpu time spent up to now is      402.3 secs

     Computing kpt #:    99  of   211
     total cpu time spent up to now is      406.8 secs

     Computing kpt #:   100  of   211
     total cpu time spent up to now is      410.9 secs

     Computing kpt #:   101  of   211
     total cpu time spent up to now is      415.4 secs

     Computing kpt #:   102  of   211
     total cpu time spent up to now is      419.5 secs

     Computing kpt #:   103  of   211
     total cpu time spent up to now is      424.0 secs

     Computing kpt #:   104  of   211
     total cpu time spent up to now is      428.6 secs

     Computing kpt #:   105  of   211
     total cpu time spent up to now is      433.1 secs

     Computing kpt #:   106  of   211
     total cpu time spent up to now is      437.3 secs

     Computing kpt #:   107  of   211
     total cpu time spent up to now is      441.8 secs

     Computing kpt #:   108  of   211
     total cpu time spent up to now is      445.9 secs

     Computing kpt #:   109  of   211
     total cpu time spent up to now is      450.4 secs

     Computing kpt #:   110  of   211
     total cpu time spent up to now is      455.0 secs

     Computing kpt #:   111  of   211
     total cpu time spent up to now is      459.2 secs

     Computing kpt #:   112  of   211
     total cpu time spent up to now is      463.7 secs

     Computing kpt #:   113  of   211
     total cpu time spent up to now is      467.9 secs

     Computing kpt #:   114  of   211
     total cpu time spent up to now is      472.4 secs

     Computing kpt #:   115  of   211
     total cpu time spent up to now is      476.9 secs

     Computing kpt #:   116  of   211
     total cpu time spent up to now is      481.4 secs

     Computing kpt #:   117  of   211
     total cpu time spent up to now is      485.7 secs

     Computing kpt #:   118  of   211
     total cpu time spent up to now is      489.9 secs

     Computing kpt #:   119  of   211
     total cpu time spent up to now is      494.1 secs

     Computing kpt #:   120  of   211
     total cpu time spent up to now is      498.3 secs

     Computing kpt #:   121  of   211
     total cpu time spent up to now is      502.5 secs

     Computing kpt #:   122  of   211
     total cpu time spent up to now is      506.7 secs

     Computing kpt #:   123  of   211
     total cpu time spent up to now is      510.7 secs

     Computing kpt #:   124  of   211
     total cpu time spent up to now is      514.8 secs

     Computing kpt #:   125  of   211
     total cpu time spent up to now is      518.9 secs

     Computing kpt #:   126  of   211
     total cpu time spent up to now is      522.9 secs

     Computing kpt #:   127  of   211
     total cpu time spent up to now is      526.9 secs

     Computing kpt #:   128  of   211
     total cpu time spent up to now is      531.0 secs

     Computing kpt #:   129  of   211
     total cpu time spent up to now is      535.1 secs

     Computing kpt #:   130  of   211
     total cpu time spent up to now is      539.2 secs

     Computing kpt #:   131  of   211
     total cpu time spent up to now is      543.3 secs

     Computing kpt #:   132  of   211
     total cpu time spent up to now is      547.4 secs

     Computing kpt #:   133  of   211
     total cpu time spent up to now is      551.3 secs

     Computing kpt #:   134  of   211
     total cpu time spent up to now is      555.5 secs

     Computing kpt #:   135  of   211
     total cpu time spent up to now is      559.6 secs

     Computing kpt #:   136  of   211
     total cpu time spent up to now is      563.7 secs

     Computing kpt #:   137  of   211
     total cpu time spent up to now is      567.8 secs

     Computing kpt #:   138  of   211
     total cpu time spent up to now is      571.8 secs

     Computing kpt #:   139  of   211
     total cpu time spent up to now is      576.0 secs

     Computing kpt #:   140  of   211
     total cpu time spent up to now is      580.2 secs

     Computing kpt #:   141  of   211
     total cpu time spent up to now is      584.3 secs

     Computing kpt #:   142  of   211
     total cpu time spent up to now is      588.3 secs

     Computing kpt #:   143  of   211
     total cpu time spent up to now is      592.4 secs

     Computing kpt #:   144  of   211
     total cpu time spent up to now is      596.4 secs

     Computing kpt #:   145  of   211
     total cpu time spent up to now is      600.6 secs

     Computing kpt #:   146  of   211
     total cpu time spent up to now is      604.7 secs

     Computing kpt #:   147  of   211
     total cpu time spent up to now is      608.9 secs

     Computing kpt #:   148  of   211
     total cpu time spent up to now is      613.1 secs

     Computing kpt #:   149  of   211
     total cpu time spent up to now is      617.4 secs

     Computing kpt #:   150  of   211
     total cpu time spent up to now is      621.6 secs

     Computing kpt #:   151  of   211
     total cpu time spent up to now is      625.8 secs

     Computing kpt #:   152  of   211
     total cpu time spent up to now is      630.0 secs

     Computing kpt #:   153  of   211
     total cpu time spent up to now is      634.2 secs

     Computing kpt #:   154  of   211
     total cpu time spent up to now is      638.5 secs

     Computing kpt #:   155  of   211
     total cpu time spent up to now is      642.6 secs

     Computing kpt #:   156  of   211
     total cpu time spent up to now is      646.8 secs

     Computing kpt #:   157  of   211
     total cpu time spent up to now is      651.1 secs

     Computing kpt #:   158  of   211
     total cpu time spent up to now is      655.5 secs

     Computing kpt #:   159  of   211
     total cpu time spent up to now is      659.8 secs

     Computing kpt #:   160  of   211
     total cpu time spent up to now is      664.0 secs

     Computing kpt #:   161  of   211
     total cpu time spent up to now is      668.2 secs

     Computing kpt #:   162  of   211
     total cpu time spent up to now is      672.1 secs

     Computing kpt #:   163  of   211
     total cpu time spent up to now is      676.1 secs

     Computing kpt #:   164  of   211
     total cpu time spent up to now is      679.9 secs

     Computing kpt #:   165  of   211
     total cpu time spent up to now is      683.9 secs

     Computing kpt #:   166  of   211
     total cpu time spent up to now is      687.8 secs

     Computing kpt #:   167  of   211
     total cpu time spent up to now is      691.8 secs

     Computing kpt #:   168  of   211
     total cpu time spent up to now is      695.7 secs

     Computing kpt #:   169  of   211
     total cpu time spent up to now is      699.6 secs

     Computing kpt #:   170  of   211
     total cpu time spent up to now is      703.5 secs

     Computing kpt #:   171  of   211
     total cpu time spent up to now is      707.4 secs

     Computing kpt #:   172  of   211
     total cpu time spent up to now is      711.4 secs

     Computing kpt #:   173  of   211
     total cpu time spent up to now is      715.4 secs

     Computing kpt #:   174  of   211
     total cpu time spent up to now is      719.4 secs

     Computing kpt #:   175  of   211
     total cpu time spent up to now is      723.3 secs

     Computing kpt #:   176  of   211
     total cpu time spent up to now is      727.3 secs

     Computing kpt #:   177  of   211
     total cpu time spent up to now is      731.2 secs

     Computing kpt #:   178  of   211
     total cpu time spent up to now is      735.2 secs

     Computing kpt #:   179  of   211
     total cpu time spent up to now is      739.3 secs

     Computing kpt #:   180  of   211
     total cpu time spent up to now is      743.8 secs

     Computing kpt #:   181  of   211
     total cpu time spent up to now is      748.4 secs

     Computing kpt #:   182  of   211
     total cpu time spent up to now is      752.9 secs

     Computing kpt #:   183  of   211
     total cpu time spent up to now is      757.3 secs

     Computing kpt #:   184  of   211
     total cpu time spent up to now is      761.3 secs

     Computing kpt #:   185  of   211
     total cpu time spent up to now is      765.3 secs

     Computing kpt #:   186  of   211
     total cpu time spent up to now is      769.3 secs

     Computing kpt #:   187  of   211
     total cpu time spent up to now is      773.2 secs

     Computing kpt #:   188  of   211
     total cpu time spent up to now is      777.2 secs

     Computing kpt #:   189  of   211
     total cpu time spent up to now is      781.1 secs

     Computing kpt #:   190  of   211
     total cpu time spent up to now is      785.0 secs

     Computing kpt #:   191  of   211
     total cpu time spent up to now is      788.9 secs

     Computing kpt #:   192  of   211
     total cpu time spent up to now is      792.8 secs

     Computing kpt #:   193  of   211
     total cpu time spent up to now is      796.7 secs

     Computing kpt #:   194  of   211
     total cpu time spent up to now is      800.6 secs

     Computing kpt #:   195  of   211
     total cpu time spent up to now is      804.5 secs

     Computing kpt #:   196  of   211
     total cpu time spent up to now is      808.4 secs

     Computing kpt #:   197  of   211
     total cpu time spent up to now is      812.5 secs

     Computing kpt #:   198  of   211
     total cpu time spent up to now is      816.4 secs

     Computing kpt #:   199  of   211
     total cpu time spent up to now is      820.5 secs

     Computing kpt #:   200  of   211
     total cpu time spent up to now is      824.4 secs

     Computing kpt #:   201  of   211
     total cpu time spent up to now is      828.5 secs

     Computing kpt #:   202  of   211
     total cpu time spent up to now is      832.6 secs

     Computing kpt #:   203  of   211
     total cpu time spent up to now is      836.5 secs

     Computing kpt #:   204  of   211
     total cpu time spent up to now is      840.7 secs

     Computing kpt #:   205  of   211
     total cpu time spent up to now is      844.9 secs

     Computing kpt #:   206  of   211
     total cpu time spent up to now is      848.9 secs

     Computing kpt #:   207  of   211
     total cpu time spent up to now is      853.0 secs

     Computing kpt #:   208  of   211
     total cpu time spent up to now is      857.0 secs

     Computing kpt #:   209  of   211
     total cpu time spent up to now is      861.0 secs

     Computing kpt #:   210  of   211
     total cpu time spent up to now is      864.9 secs

     Computing kpt #:   211  of   211
     total cpu time spent up to now is      869.0 secs

     ethr =  1.28E-10,  avg # of iterations = 51.0

     total cpu time spent up to now is      869.0 secs

     End of band structure calculation

          k = 0.0000 0.0000 0.0000 ( 14817 PWs)   bands (ev):

   -35.5744 -35.5744 -35.5652 -35.5652 -35.5433 -35.5433 -35.5341 -35.5341
   -35.4664 -35.4664 -35.4344 -35.4344 -34.1156 -34.1156 -34.1064 -34.1064
   -34.0893 -34.0893 -34.0802 -34.0802 -34.0751 -34.0751 -34.0659 -34.0659
   -34.0044 -34.0044 -33.9883 -33.9883 -33.9625 -33.9625 -28.2157 -28.2157
   -28.2097 -28.2097 -28.2073 -28.2073 -28.2013 -28.2013 -26.9764 -26.9764
   -26.9704 -26.9704 -26.9674 -26.9674 -26.9650 -26.9650 -26.9615 -26.9615
   -26.9590 -26.9590 -10.6705 -10.6705 -10.1344 -10.1344  -9.0587  -9.0587
    -6.3138  -6.3138  -4.9439  -4.9439  -0.5731  -0.5731  -0.1273  -0.1273
     0.1512   0.1512   0.4077   0.4077   0.4739   0.4739   0.5811   0.5811
     0.8550   0.8550   1.1554   1.1554   1.3285   1.3285   1.9787   1.9787
     2.6303   2.6303   2.9903   2.9903   3.1897   3.1897   3.9197   3.9197
     4.1138   4.1138   6.1540   6.1540   6.3422   6.3422   6.9551   6.9551
     7.3813   7.3813   7.5352   7.5352

          k = 0.0071 0.0041 0.0000 ( 14809 PWs)   bands (ev):

   -35.5744 -35.5744 -35.5652 -35.5652 -35.5433 -35.5432 -35.5341 -35.5341
   -35.4664 -35.4664 -35.4344 -35.4344 -34.1156 -34.1156 -34.1064 -34.1064
   -34.0893 -34.0893 -34.0802 -34.0802 -34.0751 -34.0751 -34.0659 -34.0659
   -34.0044 -34.0044 -33.9883 -33.9883 -33.9625 -33.9625 -28.2157 -28.2157
   -28.2097 -28.2097 -28.2073 -28.2073 -28.2013 -28.2013 -26.9764 -26.9764
   -26.9704 -26.9704 -26.9675 -26.9674 -26.9650 -26.9650 -26.9615 -26.9615
   -26.9590 -26.9590 -10.6700 -10.6700 -10.1340 -10.1340  -9.0585  -9.0585
    -6.3139  -6.3139  -4.9447  -4.9447  -0.5739  -0.5739  -0.1339  -0.1333
     0.1521   0.1526   0.4026   0.4038   0.4625   0.4633   0.5905   0.5917
     0.8574   0.8577   1.1526   1.1528   1.3307   1.3309   1.9851   1.9853
     2.6293   2.6296   2.9840   2.9843   3.1969   3.1974   3.9216   3.9218
     4.1135   4.1135   6.1547   6.1548   6.3423   6.3423   6.9553   6.9553
     7.3789   7.3789   7.5350   7.5350

          k = 0.0143 0.0082 0.0000 ( 14816 PWs)   bands (ev):

   -35.5744 -35.5744 -35.5652 -35.5652 -35.5433 -35.5432 -35.5341 -35.5341
   -35.4664 -35.4664 -35.4344 -35.4344 -34.1156 -34.1156 -34.1064 -34.1064
   -34.0893 -34.0893 -34.0802 -34.0802 -34.0751 -34.0751 -34.0659 -34.0659
   -34.0044 -34.0044 -33.9883 -33.9883 -33.9625 -33.9625 -28.2157 -28.2157
   -28.2097 -28.2097 -28.2073 -28.2073 -28.2013 -28.2013 -26.9764 -26.9764
   -26.9704 -26.9703 -26.9675 -26.9674 -26.9650 -26.9650 -26.9615 -26.9615
   -26.9590 -26.9590 -10.6688 -10.6688 -10.1328 -10.1328  -9.0578  -9.0578
    -6.3142  -6.3142  -4.9471  -4.9471  -0.5763  -0.5762  -0.1524  -0.1512
     0.1545   0.1555   0.3847   0.3872   0.4429   0.4445   0.6103   0.6121
     0.8648   0.8653   1.1446   1.1450   1.3381   1.3385   2.0037   2.0040
     2.6266   2.6270   2.9686   2.9691   3.2161   3.2171   3.9276   3.9281
     4.1126   4.1127   6.1570   6.1571   6.3426   6.3427   6.9557   6.9558
     7.3716   7.3716   7.5345   7.5346

          k = 0.0214 0.0124 0.0000 ( 14812 PWs)   bands (ev):

   -35.5744 -35.5744 -35.5652 -35.5652 -35.5433 -35.5432 -35.5341 -35.5341
   -35.4664 -35.4664 -35.4344 -35.4344 -34.1156 -34.1156 -34.1064 -34.1064
   -34.0893 -34.0893 -34.0802 -34.0802 -34.0751 -34.0751 -34.0659 -34.0659
   -34.0044 -34.0044 -33.9883 -33.9883 -33.9625 -33.9625 -28.2157 -28.2157
   -28.2097 -28.2097 -28.2073 -28.2072 -28.2013 -28.2013 -26.9764 -26.9764
   -26.9703 -26.9703 -26.9675 -26.9674 -26.9650 -26.9650 -26.9615 -26.9615
   -26.9590 -26.9590 -10.6667 -10.6667 -10.1309 -10.1309  -9.0567  -9.0567
    -6.3146  -6.3146  -4.9512  -4.9512  -0.5803  -0.5802  -0.1810  -0.1793
     0.1569   0.1581   0.3513   0.3545   0.4295   0.4314   0.6294   0.6313
     0.8762   0.8770   1.1324   1.1329   1.3518   1.3524   2.0324   2.0329
     2.6220   2.6226   2.9498   2.9504   3.2422   3.2434   3.9374   3.9381
     4.1115   4.1116   6.1608   6.1609   6.3432   6.3433   6.9564   6.9565
     7.3595   7.3596   7.5340   7.5340

          k = 0.0286 0.0165 0.0000 ( 14806 PWs)   bands (ev):

   -35.5744 -35.5744 -35.5652 -35.5652 -35.5433 -35.5432 -35.5341 -35.5341
   -35.4664 -35.4664 -35.4344 -35.4344 -34.1156 -34.1156 -34.1064 -34.1064
   -34.0893 -34.0893 -34.0802 -34.0802 -34.0751 -34.0751 -34.0659 -34.0659
   -34.0044 -34.0044 -33.9883 -33.9883 -33.9625 -33.9625 -28.2157 -28.2157
   -28.2097 -28.2097 -28.2073 -28.2072 -28.2013 -28.2013 -26.9764 -26.9764
   -26.9703 -26.9703 -26.9675 -26.9674 -26.9650 -26.9650 -26.9615 -26.9615
   -26.9590 -26.9590 -10.6637 -10.6637 -10.1282 -10.1282  -9.0551  -9.0551
    -6.3152  -6.3152  -4.9569  -4.9569  -0.5859  -0.5858  -0.2178  -0.2157
     0.1573   0.1586   0.3090   0.3123   0.4208   0.4226   0.6432   0.6451
     0.8900   0.8910   1.1187   1.1194   1.3722   1.3730   2.0687   2.0694
     2.6155   2.6162   2.9323   2.9330   3.2712   3.2727   3.9505   3.9514
     4.1107   4.1108   6.1661   6.1662   6.3440   6.3441   6.9572   6.9572
     7.3432   7.3432   7.5335   7.5336

          k = 0.0357 0.0206 0.0000 ( 14800 PWs)   bands (ev):

   -35.5744 -35.5744 -35.5652 -35.5652 -35.5433 -35.5432 -35.5341 -35.5341
   -35.4664 -35.4664 -35.4344 -35.4344 -34.1156 -34.1156 -34.1064 -34.1064
   -34.0893 -34.0893 -34.0802 -34.0802 -34.0751 -34.0751 -34.0659 -34.0659
   -34.0044 -34.0044 -33.9883 -33.9883 -33.9625 -33.9625 -28.2157 -28.2157
   -28.2097 -28.2097 -28.2073 -28.2072 -28.2013 -28.2013 -26.9764 -26.9764
   -26.9703 -26.9703 -26.9675 -26.9674 -26.9650 -26.9650 -26.9615 -26.9615
   -26.9590 -26.9590 -10.6600 -10.6600 -10.1248 -10.1248  -9.0530  -9.0530
    -6.3160  -6.3159  -4.9641  -4.9641  -0.5933  -0.5931  -0.2611  -0.2587
     0.1544   0.1556   0.2632   0.2664   0.4129   0.4147   0.6503   0.6522
     0.9029   0.9040   1.1082   1.1091   1.3985   1.3994   2.1095   2.1103
     2.6076   2.6084   2.9192   2.9199   3.3008   3.3025   3.9659   3.9670
     4.1111   4.1113   6.1728   6.1730   6.3450   6.3451   6.9577   6.9578
     7.3230   7.3231   7.5333   7.5334

          k = 0.0429 0.0247 0.0000 ( 14804 PWs)   bands (ev):

   -35.5744 -35.5744 -35.5652 -35.5652 -35.5433 -35.5432 -35.5341 -35.5341
   -35.4664 -35.4664 -35.4344 -35.4344 -34.1156 -34.1156 -34.1064 -34.1063
   -34.0893 -34.0893 -34.0802 -34.0802 -34.0751 -34.0751 -34.0659 -34.0659
   -34.0044 -34.0044 -33.9883 -33.9883 -33.9625 -33.9625 -28.2157 -28.2157
   -28.2097 -28.2097 -28.2073 -28.2072 -28.2013 -28.2013 -26.9764 -26.9764
   -26.9703 -26.9703 -26.9675 -26.9674 -26.9650 -26.9650 -26.9615 -26.9615
   -26.9590 -26.9590 -10.6553 -10.6553 -10.1206 -10.1206  -9.0505  -9.0505
    -6.3170  -6.3169  -4.9730  -4.9730  -0.6024  -0.6023  -0.3094  -0.3067
     0.1469   0.1476   0.2172   0.2202   0.4044   0.4060   0.6504   0.6522
     0.9118   0.9128   1.1061   1.1070   1.4289   1.4300   2.1517   2.1526
     2.5999   2.6007   2.9120   2.9127   3.3297   3.3315   3.9821   3.9835
     4.1141   4.1145   6.1810   6.1811   6.3461   6.3463   6.9578   6.9578
     7.3001   7.3002   7.5335   7.5336

          k = 0.0500 0.0289 0.0000 ( 14805 PWs)   bands (ev):

   -35.5744 -35.5744 -35.5652 -35.5652 -35.5433 -35.5432 -35.5341 -35.5341
   -35.4664 -35.4664 -35.4344 -35.4344 -34.1156 -34.1156 -34.1063 -34.1063
   -34.0893 -34.0893 -34.0802 -34.0802 -34.0751 -34.0751 -34.0659 -34.0659
   -34.0044 -34.0044 -33.9883 -33.9883 -33.9625 -33.9625 -28.2157 -28.2157
   -28.2097 -28.2097 -28.2073 -28.2072 -28.2013 -28.2013 -26.9764 -26.9764
   -26.9703 -26.9703 -26.9675 -26.9674 -26.9650 -26.9650 -26.9615 -26.9615
   -26.9590 -26.9590 -10.6499 -10.6499 -10.1156 -10.1156  -9.0476  -9.0476
    -6.3182  -6.3182  -4.9836  -4.9835  -0.6137  -0.6135  -0.3617  -0.3587
     0.1310   0.1320   0.1752   0.1776   0.3943   0.3959   0.6433   0.6449
     0.9153   0.9162   1.1152   1.1160   1.4617   1.4628   2.1920   2.1930
     2.5952   2.5957   2.9115   2.9120   3.3572   3.3592   3.9970   3.9986
     4.1219   4.1224   6.1905   6.1907   6.3473   6.3475   6.9567   6.9568
     7.2756   7.2757   7.5340   7.5341

          k = 0.0571 0.0330 0.0000 ( 14805 PWs)   bands (ev):

   -35.5744 -35.5744 -35.5652 -35.5652 -35.5433 -35.5432 -35.5341 -35.5341
   -35.4664 -35.4664 -35.4344 -35.4344 -34.1156 -34.1156 -34.1063 -34.1063
   -34.0893 -34.0893 -34.0802 -34.0802 -34.0751 -34.0751 -34.0659 -34.0659
   -34.0044 -34.0044 -33.9883 -33.9883 -33.9624 -33.9624 -28.2157 -28.2157
   -28.2097 -28.2097 -28.2073 -28.2072 -28.2013 -28.2013 -26.9764 -26.9763
   -26.9703 -26.9703 -26.9675 -26.9674 -26.9650 -26.9650 -26.9615 -26.9615
   -26.9590 -26.9590 -10.6436 -10.6436 -10.1099 -10.1099  -9.0442  -9.0442
    -6.3196  -6.3196  -4.9957  -4.9956  -0.6274  -0.6270  -0.4167  -0.4134
     0.0990   0.1018   0.1450   0.1472   0.3819   0.3835   0.6294   0.6309
     0.9155   0.9162   1.1343   1.1350   1.4946   1.4958   2.2271   2.2283
     2.5968   2.5971   2.9175   2.9179   3.3830   3.3851   4.0085   4.0104
     4.1364   4.1371   6.2013   6.2016   6.3486   6.3488   6.9538   6.9540
     7.2510   7.2511   7.5349   7.5350

          k = 0.0643 0.0371 0.0000 ( 14811 PWs)   bands (ev):

   -35.5744 -35.5744 -35.5652 -35.5652 -35.5433 -35.5432 -35.5341 -35.5341
   -35.4664 -35.4664 -35.4344 -35.4344 -34.1156 -34.1156 -34.1063 -34.1063
   -34.0893 -34.0893 -34.0802 -34.0802 -34.0751 -34.0751 -34.0659 -34.0659
   -34.0044 -34.0044 -33.9883 -33.9883 -33.9624 -33.9624 -28.2157 -28.2157
   -28.2097 -28.2097 -28.2073 -28.2072 -28.2013 -28.2013 -26.9763 -26.9763
   -26.9703 -26.9703 -26.9675 -26.9674 -26.9650 -26.9650 -26.9615 -26.9615
   -26.9590 -26.9590 -10.6365 -10.6365 -10.1034 -10.1034  -9.0404  -9.0404
    -6.3212  -6.3212  -5.0094  -5.0094  -0.6443  -0.6436  -0.4731  -0.4693
     0.0555   0.0587   0.1244   0.1264   0.3664   0.3682   0.6098   0.6111
     0.9155   0.9162   1.1604   1.1610   1.5256   1.5268   2.2549   2.2563
     2.6079   2.6082   2.9295   2.9297   3.4071   3.4093   4.0160   4.0179
     4.1583   4.1590   6.2134   6.2137   6.3498   6.3501   6.9483   6.9485
     7.2277   7.2279   7.5360   7.5361

          k = 0.0714 0.0412 0.0000 ( 14813 PWs)   bands (ev):

   -35.5744 -35.5744 -35.5652 -35.5652 -35.5433 -35.5432 -35.5341 -35.5341
   -35.4664 -35.4664 -35.4343 -35.4343 -34.1156 -34.1156 -34.1063 -34.1063
   -34.0893 -34.0893 -34.0802 -34.0802 -34.0751 -34.0751 -34.0659 -34.0659
   -34.0044 -34.0044 -33.9883 -33.9883 -33.9624 -33.9624 -28.2157 -28.2157
   -28.2097 -28.2097 -28.2073 -28.2072 -28.2013 -28.2013 -26.9763 -26.9763
   -26.9703 -26.9703 -26.9675 -26.9674 -26.9650 -26.9650 -26.9616 -26.9615
   -26.9590 -26.9590 -10.6285 -10.6285 -10.0962 -10.0962  -9.0361  -9.0361
    -6.3232  -6.3232  -5.0247  -5.0247  -0.6660  -0.6647  -0.5288  -0.5244
     0.0084   0.0117   0.1054   0.1072   0.3473   0.3495   0.5862   0.5875
     0.9173   0.9179   1.1906   1.1913   1.5524   1.5536   2.2753   2.2767
     2.6297   2.6303   2.9469   2.9470   3.4297   3.4320   4.0204   4.0224
     4.1864   4.1871   6.2267   6.2270   6.3509   6.3512   6.9392   6.9394
     7.2076   7.2078   7.5374   7.5376

          k = 0.0786 0.0454 0.0000 ( 14807 PWs)   bands (ev):

   -35.5744 -35.5744 -35.5652 -35.5652 -35.5433 -35.5432 -35.5341 -35.5341
   -35.4664 -35.4664 -35.4343 -35.4343 -34.1156 -34.1156 -34.1063 -34.1063
   -34.0893 -34.0893 -34.0802 -34.0802 -34.0751 -34.0751 -34.0659 -34.0659
   -34.0044 -34.0044 -33.9883 -33.9883 -33.9624 -33.9624 -28.2157 -28.2157
   -28.2097 -28.2097 -28.2073 -28.2072 -28.2013 -28.2013 -26.9763 -26.9763
   -26.9703 -26.9703 -26.9675 -26.9674 -26.9650 -26.9650 -26.9616 -26.9615
   -26.9590 -26.9590 -10.6197 -10.6197 -10.0882 -10.0882  -9.0315  -9.0314
    -6.3253  -6.3253  -5.0416  -5.0415  -0.6953  -0.6935  -0.5801  -0.5752
    -0.0399  -0.0367   0.0859   0.0874   0.3241   0.3267   0.5608   0.5621
     0.9211   0.9217   1.2231   1.2239   1.5728   1.5740   2.2909   2.2924
     2.6610   2.6618   2.9691   2.9693   3.4511   3.4535   4.0235   4.0255
     4.2188   4.2195   6.2410   6.2414   6.3516   6.3520   6.9258   6.9259
     7.1920   7.1922   7.5392   7.5393

          k = 0.0857 0.0495 0.0000 ( 14808 PWs)   bands (ev):

   -35.5744 -35.5744 -35.5652 -35.5652 -35.5433 -35.5432 -35.5341 -35.5341
   -35.4664 -35.4664 -35.4343 -35.4343 -34.1156 -34.1155 -34.1063 -34.1063
   -34.0893 -34.0893 -34.0802 -34.0802 -34.0751 -34.0751 -34.0659 -34.0659
   -34.0044 -34.0044 -33.9883 -33.9883 -33.9624 -33.9624 -28.2157 -28.2157
   -28.2097 -28.2096 -28.2073 -28.2072 -28.2013 -28.2013 -26.9763 -26.9763
   -26.9703 -26.9703 -26.9675 -26.9674 -26.9650 -26.9650 -26.9616 -26.9615
   -26.9590 -26.9590 -10.6101 -10.6101 -10.0794 -10.0794  -9.0264  -9.0264
    -6.3278  -6.3278  -5.0600  -5.0599  -0.7359  -0.7340  -0.6224  -0.6174
    -0.0887  -0.0857   0.0656   0.0669   0.2970   0.3000   0.5353   0.5367
     0.9268   0.9273   1.2565   1.2574   1.5852   1.5865   2.3056   2.3071
     2.6988   2.6998   2.9955   2.9958   3.4719   3.4743   4.0268   4.0288
     4.2539   4.2546   6.2563   6.2568   6.3519   6.3523   6.9080   6.9081
     7.1817   7.1819   7.5413   7.5414

          k = 0.0929 0.0536 0.0000 ( 14807 PWs)   bands (ev):

   -35.5744 -35.5744 -35.5652 -35.5652 -35.5433 -35.5432 -35.5341 -35.5341
   -35.4664 -35.4664 -35.4343 -35.4343 -34.1155 -34.1155 -34.1063 -34.1063
   -34.0893 -34.0893 -34.0802 -34.0802 -34.0751 -34.0751 -34.0659 -34.0659
   -34.0044 -34.0044 -33.9883 -33.9883 -33.9624 -33.9624 -28.2157 -28.2157
   -28.2097 -28.2096 -28.2073 -28.2072 -28.2013 -28.2013 -26.9763 -26.9763
   -26.9702 -26.9702 -26.9676 -26.9674 -26.9650 -26.9650 -26.9616 -26.9615
   -26.9590 -26.9590 -10.5997 -10.5997 -10.0700 -10.0700  -9.0209  -9.0209
    -6.3306  -6.3306  -5.0799  -5.0799  -0.7881  -0.7866  -0.6549  -0.6504
    -0.1381  -0.1352   0.0444   0.0456   0.2662   0.2695   0.5111   0.5126
     0.9335   0.9341   1.2899   1.2909   1.5887   1.5901   2.3229   2.3243
     2.7401   2.7414   3.0252   3.0257   3.4927   3.4951   4.0314   4.0334
     4.2905   4.2911   6.2725   6.2730   6.3515   6.3520   6.8864   6.8865
     7.1767   7.1769   7.5438   7.5439

          k = 0.1000 0.0577 0.0000 ( 14795 PWs)   bands (ev):

   -35.5744 -35.5744 -35.5652 -35.5652 -35.5432 -35.5432 -35.5341 -35.5341
   -35.4664 -35.4664 -35.4343 -35.4343 -34.1155 -34.1155 -34.1063 -34.1063
   -34.0893 -34.0893 -34.0802 -34.0802 -34.0751 -34.0751 -34.0659 -34.0659
   -34.0044 -34.0044 -33.9883 -33.9883 -33.9624 -33.9624 -28.2157 -28.2157
   -28.2097 -28.2096 -28.2073 -28.2072 -28.2013 -28.2013 -26.9763 -26.9763
   -26.9702 -26.9702 -26.9676 -26.9674 -26.9650 -26.9650 -26.9616 -26.9615
   -26.9590 -26.9590 -10.5884 -10.5884 -10.0598 -10.0598  -9.0150  -9.0150
    -6.3338  -6.3337  -5.1014  -5.1013  -0.8481  -0.8472  -0.6813  -0.6773
    -0.1881  -0.1854   0.0225   0.0234   0.2325   0.2362   0.4886   0.4902
     0.9408   0.9413   1.3222   1.3234   1.5837   1.5852   2.3446   2.3459
     2.7830   2.7843   3.0572   3.0578   3.5145   3.5168   4.0382   4.0401
     4.3276   4.3282   6.2892   6.2899   6.3502   6.3508   6.8623   6.8624
     7.1764   7.1765   7.5470   7.5470

          k = 0.1071 0.0619 0.0000 ( 14799 PWs)   bands (ev):

   -35.5744 -35.5744 -35.5652 -35.5652 -35.5432 -35.5432 -35.5341 -35.5341
   -35.4664 -35.4664 -35.4343 -35.4343 -34.1155 -34.1155 -34.1063 -34.1063
   -34.0893 -34.0893 -34.0802 -34.0802 -34.0751 -34.0751 -34.0659 -34.0659
   -34.0043 -34.0043 -33.9883 -33.9883 -33.9624 -33.9624 -28.2157 -28.2156
   -28.2097 -28.2096 -28.2073 -28.2072 -28.2014 -28.2013 -26.9762 -26.9762
   -26.9702 -26.9702 -26.9676 -26.9674 -26.9650 -26.9649 -26.9616 -26.9615
   -26.9590 -26.9590 -10.5763 -10.5763 -10.0489 -10.0488  -9.0088  -9.0087
    -6.3373  -6.3372  -5.1244  -5.1243  -0.9126  -0.9120  -0.7048  -0.7012
    -0.2388  -0.2362  -0.0003   0.0005   0.1972   0.2011   0.4681   0.4697
     0.9480   0.9485   1.3520   1.3534   1.5718   1.5735   2.3711   2.3723
     2.8261   2.8275   3.0900   3.0907   3.5381   3.5403   4.0479   4.0497
     4.3646   4.3652   6.3058   6.3068   6.3481   6.3490   6.8373   6.8374
     7.1800   7.1801   7.5508   7.5509

          k = 0.1143 0.0660 0.0000 ( 14798 PWs)   bands (ev):

   -35.5744 -35.5744 -35.5652 -35.5652 -35.5432 -35.5432 -35.5341 -35.5341
   -35.4664 -35.4664 -35.4343 -35.4343 -34.1155 -34.1155 -34.1063 -34.1063
   -34.0893 -34.0893 -34.0802 -34.0802 -34.0751 -34.0751 -34.0659 -34.0659
   -34.0043 -34.0043 -33.9884 -33.9884 -33.9624 -33.9624 -28.2157 -28.2156
   -28.2097 -28.2096 -28.2073 -28.2072 -28.2014 -28.2013 -26.9762 -26.9762
   -26.9702 -26.9702 -26.9676 -26.9674 -26.9650 -26.9649 -26.9616 -26.9615
   -26.9590 -26.9590 -10.5634 -10.5634 -10.0372 -10.0372  -9.0021  -9.0021
    -6.3412  -6.3411  -5.1488  -5.1487  -0.9793  -0.9790  -0.7271  -0.7239
    -0.2902  -0.2878  -0.0242  -0.0235   0.1612   0.1653   0.4493   0.4509
     0.9547   0.9552   1.3767   1.3784   1.5566   1.5585   2.4016   2.4028
     2.8691   2.8704   3.1221   3.1228   3.5646   3.5667   4.0609   4.0627
     4.4010   4.4015   6.3195   6.3209   6.3474   6.3487   6.8130   6.8131
     7.1867   7.1868   7.5556   7.5557

          k = 0.1214 0.0701 0.0000 ( 14807 PWs)   bands (ev):

   -35.5744 -35.5744 -35.5652 -35.5652 -35.5432 -35.5432 -35.5341 -35.5341
   -35.4664 -35.4664 -35.4343 -35.4343 -34.1155 -34.1155 -34.1063 -34.1063
   -34.0893 -34.0893 -34.0802 -34.0802 -34.0751 -34.0751 -34.0659 -34.0659
   -34.0043 -34.0043 -33.9884 -33.9884 -33.9624 -33.9624 -28.2157 -28.2156
   -28.2096 -28.2096 -28.2073 -28.2072 -28.2014 -28.2013 -26.9762 -26.9762
   -26.9702 -26.9702 -26.9676 -26.9675 -26.9650 -26.9649 -26.9616 -26.9615
   -26.9590 -26.9590 -10.5497 -10.5497 -10.0249 -10.0249  -8.9952  -8.9952
    -6.3455  -6.3455  -5.1747  -5.1746  -1.0473  -1.0471  -0.7489  -0.7459
    -0.3424  -0.3401  -0.0494  -0.0487   0.1257   0.1299   0.4320   0.4336
     0.9604   0.9609   1.3918   1.3936   1.5442   1.5463   2.4350   2.4360
     2.9118   2.9131   3.1520   3.1527   3.5948   3.5966   4.0777   4.0793
     4.4362   4.4367   6.3226   6.3235   6.3561   6.3570   6.7907   6.7908
     7.1959   7.1960   7.5615   7.5616

          k = 0.1286 0.0742 0.0000 ( 14804 PWs)   bands (ev):

   -35.5744 -35.5744 -35.5652 -35.5652 -35.5432 -35.5432 -35.5341 -35.5341
   -35.4664 -35.4664 -35.4343 -35.4343 -34.1155 -34.1155 -34.1063 -34.1063
   -34.0893 -34.0893 -34.0802 -34.0802 -34.0751 -34.0750 -34.0659 -34.0659
   -34.0043 -34.0043 -33.9884 -33.9884 -33.9624 -33.9624 -28.2157 -28.2156
   -28.2096 -28.2096 -28.2073 -28.2072 -28.2014 -28.2013 -26.9762 -26.9762
   -26.9701 -26.9701 -26.9676 -26.9675 -26.9650 -26.9649 -26.9616 -26.9615
   -26.9590 -26.9590 -10.5352 -10.5352 -10.0118 -10.0118  -8.9879  -8.9879
    -6.3503  -6.3503  -5.2020  -5.2019  -1.1159  -1.1157  -0.7705  -0.7677
    -0.3953  -0.3932  -0.0762  -0.0755   0.0916   0.0957   0.4160   0.4176
     0.9647   0.9653   1.3908   1.3925   1.5424   1.5443   2.4697   2.4706
     2.9545   2.9557   3.1787   3.1795   3.6288   3.6304   4.0985   4.1001
     4.4700   4.4705   6.3146   6.3151   6.3733   6.3737   6.7718   6.7719
     7.2070   7.2071   7.5687   7.5687

          k = 0.1357 0.0784 0.0000 ( 14804 PWs)   bands (ev):

   -35.5744 -35.5744 -35.5652 -35.5651 -35.5432 -35.5432 -35.5341 -35.5341
   -35.4664 -35.4664 -35.4343 -35.4343 -34.1155 -34.1155 -34.1063 -34.1062
   -34.0893 -34.0893 -34.0802 -34.0802 -34.0751 -34.0750 -34.0659 -34.0659
   -34.0043 -34.0043 -33.9884 -33.9884 -33.9624 -33.9624 -28.2157 -28.2156
   -28.2096 -28.2096 -28.2073 -28.2072 -28.2014 -28.2013 -26.9762 -26.9762
   -26.9701 -26.9701 -26.9676 -26.9675 -26.9650 -26.9649 -26.9616 -26.9615
   -26.9590 -26.9590 -10.5199 -10.5199  -9.9980  -9.9980  -8.9803  -8.9802
    -6.3556  -6.3556  -5.2307  -5.2306  -1.1846  -1.1843  -0.7919  -0.7892
    -0.4489  -0.4470  -0.1047  -0.1040   0.0594   0.0635   0.4012   0.4027
     0.9673   0.9680   1.3726   1.3739   1.5536   1.5552   2.5044   2.5052
     2.9973   2.9984   3.2021   3.2029   3.6664   3.6678   4.1238   4.1252
     4.5023   4.5027   6.3008   6.3010   6.3929   6.3931   6.7572   6.7574
     7.2198   7.2199   7.5773   7.5774

          k = 0.1429 0.0825 0.0000 ( 14802 PWs)   bands (ev):

   -35.5744 -35.5743 -35.5651 -35.5651 -35.5432 -35.5432 -35.5341 -35.5341
   -35.4664 -35.4664 -35.4343 -35.4343 -34.1155 -34.1155 -34.1062 -34.1062
[...]
    -6.3527  -6.3526  -5.2368  -5.2368  -1.1192  -1.1185  -0.8136  -0.8112
    -0.6213  -0.6203  -0.1647  -0.1612   0.1699   0.1714   0.3627   0.3639
     0.7393   0.7399   1.4248   1.4267   1.5831   1.5854   2.5346   2.5364
     2.8703   2.8708   3.1834   3.1840   3.8113   3.8139   4.1271   4.1291
     4.5573   4.5577   6.3697   6.3704   6.4149   6.4155   6.8022   6.8023
     7.0630   7.0632   7.5922   7.5923

          k = 0.0762 0.1346 0.0000 ( 14827 PWs)   bands (ev):

   -35.5744 -35.5744 -35.5652 -35.5651 -35.5432 -35.5432 -35.5341 -35.5341
   -35.4664 -35.4664 -35.4343 -35.4343 -34.1155 -34.1155 -34.1063 -34.1062
   -34.0893 -34.0893 -34.0802 -34.0802 -34.0751 -34.0750 -34.0659 -34.0658
   -34.0043 -34.0043 -33.9883 -33.9883 -33.9624 -33.9624 -28.2156 -28.2156
   -28.2096 -28.2096 -28.2073 -28.2072 -28.2014 -28.2013 -26.9762 -26.9761
   -26.9701 -26.9701 -26.9676 -26.9674 -26.9651 -26.9649 -26.9616 -26.9615
   -26.9591 -26.9590 -10.5238 -10.5238 -10.0009 -10.0009  -8.9804  -8.9804
    -6.3471  -6.3470  -5.2040  -5.2039  -1.0504  -1.0499  -0.7795  -0.7765
    -0.5532  -0.5522  -0.1238  -0.1202   0.1953   0.1968   0.3831   0.3843
     0.7597   0.7603   1.4237   1.4260   1.5688   1.5715   2.5227   2.5246
     2.8168   2.8172   3.1542   3.1549   3.7690   3.7717   4.0879   4.0900
     4.5208   4.5212   6.3656   6.3669   6.3925   6.3938   6.8280   6.8282
     7.0764   7.0766   7.5748   7.5748

          k = 0.0714 0.1262 0.0000 ( 14825 PWs)   bands (ev):

   -35.5744 -35.5744 -35.5652 -35.5652 -35.5432 -35.5432 -35.5341 -35.5341
   -35.4664 -35.4664 -35.4343 -35.4343 -34.1155 -34.1155 -34.1063 -34.1063
   -34.0893 -34.0893 -34.0802 -34.0802 -34.0751 -34.0750 -34.0659 -34.0658
   -34.0043 -34.0043 -33.9883 -33.9883 -33.9624 -33.9624 -28.2156 -28.2156
   -28.2096 -28.2096 -28.2073 -28.2072 -28.2014 -28.2013 -26.9762 -26.9762
   -26.9701 -26.9701 -26.9676 -26.9674 -26.9651 -26.9649 -26.9616 -26.9615
   -26.9591 -26.9590 -10.5415 -10.5415 -10.0168 -10.0168  -8.9895  -8.9895
    -6.3421  -6.3420  -5.1730  -5.1729  -0.9815  -0.9811  -0.7486  -0.7452
    -0.4822  -0.4811  -0.0828  -0.0791   0.2172   0.2188   0.4039   0.4052
     0.7806   0.7813   1.4103   1.4126   1.5633   1.5662   2.5052   2.5072
     2.7677   2.7680   3.1269   3.1276   3.7194   3.7222   4.0598   4.0619
     4.4827   4.4831   6.3530   6.3545   6.3789   6.3804   6.8525   6.8527
     7.0936   7.0939   7.5600   7.5601

          k = 0.0667 0.1178 0.0000 ( 14811 PWs)   bands (ev):

   -35.5744 -35.5744 -35.5652 -35.5652 -35.5432 -35.5432 -35.5341 -35.5341
   -35.4664 -35.4664 -35.4343 -35.4343 -34.1155 -34.1155 -34.1063 -34.1063
   -34.0893 -34.0893 -34.0802 -34.0802 -34.0751 -34.0750 -34.0659 -34.0659
   -34.0043 -34.0043 -33.9883 -33.9883 -33.9624 -33.9624 -28.2157 -28.2156
   -28.2096 -28.2096 -28.2073 -28.2072 -28.2014 -28.2013 -26.9762 -26.9762
   -26.9702 -26.9701 -26.9675 -26.9674 -26.9651 -26.9649 -26.9616 -26.9615
   -26.9591 -26.9590 -10.5580 -10.5580 -10.0318 -10.0318  -8.9981  -8.9981
    -6.3376  -6.3376  -5.1438  -5.1437  -0.9135  -0.9129  -0.7191  -0.7153
    -0.4103  -0.4092  -0.0415  -0.0377   0.2362   0.2378   0.4255   0.4268
     0.8016   0.8023   1.3844   1.3865   1.5663   1.5690   2.4795   2.4815
     2.7268   2.7271   3.0996   3.1004   3.6660   3.6688   4.0409   4.0430
     4.4429   4.4432   6.3331   6.3342   6.3736   6.3746   6.8753   6.8755
     7.1141   7.1144   7.5482   7.5483

          k = 0.0619 0.1094 0.0000 ( 14819 PWs)   bands (ev):

   -35.5744 -35.5744 -35.5652 -35.5652 -35.5432 -35.5432 -35.5341 -35.5341
   -35.4664 -35.4664 -35.4343 -35.4343 -34.1155 -34.1155 -34.1063 -34.1063
   -34.0893 -34.0893 -34.0802 -34.0802 -34.0751 -34.0751 -34.0659 -34.0659
   -34.0044 -34.0044 -33.9883 -33.9883 -33.9624 -33.9624 -28.2157 -28.2156
   -28.2096 -28.2096 -28.2073 -28.2072 -28.2014 -28.2013 -26.9762 -26.9762
   -26.9702 -26.9702 -26.9675 -26.9674 -26.9651 -26.9649 -26.9616 -26.9615
   -26.9591 -26.9590 -10.5734 -10.5734 -10.0458 -10.0458  -9.0062  -9.0061
    -6.3337  -6.3337  -5.1165  -5.1165  -0.8477  -0.8467  -0.6893  -0.6849
    -0.3388  -0.3375  -0.0003   0.0035   0.2526   0.2542   0.4480   0.4493
     0.8222   0.8229   1.3497   1.3515   1.5730   1.5754   2.4451   2.4471
     2.6963   2.6968   3.0709   3.0718   3.6126   3.6153   4.0288   4.0308
     4.4015   4.4018   6.3117   6.3125   6.3701   6.3709   6.8957   6.8960
     7.1375   7.1378   7.5395   7.5395

          k = 0.0571 0.1010 0.0000 ( 14817 PWs)   bands (ev):

   -35.5744 -35.5744 -35.5652 -35.5652 -35.5433 -35.5432 -35.5341 -35.5341
   -35.4664 -35.4664 -35.4343 -35.4343 -34.1155 -34.1155 -34.1063 -34.1063
   -34.0893 -34.0893 -34.0802 -34.0802 -34.0751 -34.0751 -34.0659 -34.0659
   -34.0044 -34.0044 -33.9883 -33.9883 -33.9624 -33.9624 -28.2157 -28.2156
   -28.2097 -28.2096 -28.2073 -28.2072 -28.2014 -28.2013 -26.9763 -26.9762
   -26.9702 -26.9702 -26.9675 -26.9674 -26.9651 -26.9649 -26.9616 -26.9614
   -26.9591 -26.9590 -10.5877 -10.5877 -10.0588 -10.0588  -9.0137  -9.0137
    -6.3302  -6.3302  -5.0912  -5.0911  -0.7868  -0.7852  -0.6567  -0.6515
    -0.2683  -0.2669   0.0403   0.0441   0.2674   0.2690   0.4715   0.4729
     0.8423   0.8431   1.3098   1.3114   1.5787   1.5809   2.4045   2.4064
     2.6755   2.6762   3.0400   3.0408   3.5622   3.5649   4.0215   4.0234
     4.3587   4.3590   6.2907   6.2913   6.3669   6.3675   6.9134   6.9136
     7.1633   7.1636   7.5337   7.5338

          k = 0.0524 0.0925 0.0000 ( 14802 PWs)   bands (ev):

   -35.5744 -35.5744 -35.5652 -35.5652 -35.5433 -35.5432 -35.5341 -35.5341
   -35.4664 -35.4664 -35.4343 -35.4343 -34.1155 -34.1155 -34.1063 -34.1063
   -34.0893 -34.0893 -34.0802 -34.0802 -34.0751 -34.0751 -34.0659 -34.0659
   -34.0044 -34.0044 -33.9883 -33.9883 -33.9624 -33.9624 -28.2157 -28.2157
   -28.2097 -28.2096 -28.2073 -28.2072 -28.2014 -28.2013 -26.9763 -26.9763
   -26.9702 -26.9702 -26.9675 -26.9674 -26.9651 -26.9649 -26.9615 -26.9614
   -26.9591 -26.9590 -10.6009 -10.6009 -10.0708 -10.0707  -9.0207  -9.0207
    -6.3272  -6.3272  -5.0678  -5.0677  -0.7346  -0.7325  -0.6173  -0.6117
    -0.1993  -0.1979   0.0793   0.0831   0.2812   0.2827   0.4960   0.4975
     0.8617   0.8625   1.2672   1.2685   1.5796   1.5817   2.3613   2.3633
     2.6620   2.6628   3.0068   3.0077   3.5167   3.5193   4.0175   4.0192
     4.3152   4.3154   6.2707   6.2712   6.3637   6.3641   6.9280   6.9282
     7.1908   7.1911   7.5307   7.5308

          k = 0.0476 0.0841 0.0000 ( 14810 PWs)   bands (ev):

   -35.5744 -35.5744 -35.5652 -35.5652 -35.5433 -35.5432 -35.5341 -35.5341
   -35.4664 -35.4664 -35.4343 -35.4343 -34.1156 -34.1155 -34.1063 -34.1063
   -34.0893 -34.0893 -34.0802 -34.0802 -34.0751 -34.0751 -34.0659 -34.0659
   -34.0044 -34.0044 -33.9883 -33.9883 -33.9624 -33.9624 -28.2157 -28.2157
   -28.2097 -28.2096 -28.2073 -28.2072 -28.2014 -28.2013 -26.9763 -26.9763
   -26.9703 -26.9702 -26.9675 -26.9674 -26.9651 -26.9650 -26.9615 -26.9614
   -26.9591 -26.9590 -10.6129 -10.6129 -10.0817 -10.0817  -9.0272  -9.0272
    -6.3246  -6.3246  -5.0464  -5.0463  -0.6942  -0.6923  -0.5682  -0.5629
    -0.1320  -0.1306   0.1153   0.1189   0.2951   0.2965   0.5214   0.5230
     0.8803   0.8812   1.2237   1.2249   1.5732   1.5751   2.3190   2.3209
     2.6532   2.6541   2.9728   2.9737   3.4766   3.4789   4.0155   4.0171
     4.2719   4.2721   6.2518   6.2522   6.3605   6.3609   6.9394   6.9396
     7.2195   7.2197   7.5300   7.5301

          k = 0.0429 0.0757 0.0000 ( 14804 PWs)   bands (ev):

   -35.5744 -35.5744 -35.5652 -35.5652 -35.5433 -35.5432 -35.5341 -35.5341
   -35.4664 -35.4664 -35.4343 -35.4343 -34.1156 -34.1156 -34.1063 -34.1063
   -34.0893 -34.0893 -34.0802 -34.0802 -34.0751 -34.0751 -34.0659 -34.0659
   -34.0044 -34.0044 -33.9883 -33.9883 -33.9624 -33.9624 -28.2157 -28.2157
   -28.2097 -28.2096 -28.2073 -28.2072 -28.2013 -28.2013 -26.9763 -26.9763
   -26.9703 -26.9703 -26.9675 -26.9674 -26.9650 -26.9650 -26.9615 -26.9615
   -26.9591 -26.9590 -10.6238 -10.6238 -10.0917 -10.0917  -9.0331  -9.0331
    -6.3223  -6.3223  -5.0270  -5.0269  -0.6643  -0.6630  -0.5115  -0.5068
    -0.0667  -0.0653   0.1468   0.1500   0.3100   0.3113   0.5472   0.5490
     0.8980   0.8990   1.1813   1.1824   1.5578   1.5596   2.2789   2.2808
     2.6476   2.6485   2.9406   2.9415   3.4412   3.4433   4.0141   4.0156
     4.2302   4.2304   6.2342   6.2346   6.3574   6.3577   6.9476   6.9478
     7.2484   7.2486   7.5307   7.5308

          k = 0.0381 0.0673 0.0000 ( 14804 PWs)   bands (ev):

   -35.5744 -35.5744 -35.5652 -35.5652 -35.5433 -35.5432 -35.5341 -35.5341
   -35.4664 -35.4664 -35.4343 -35.4343 -34.1156 -34.1156 -34.1063 -34.1063
   -34.0893 -34.0893 -34.0802 -34.0802 -34.0751 -34.0751 -34.0659 -34.0659
   -34.0044 -34.0044 -33.9883 -33.9883 -33.9624 -33.9624 -28.2157 -28.2157
   -28.2097 -28.2097 -28.2073 -28.2072 -28.2013 -28.2013 -26.9763 -26.9763
   -26.9703 -26.9703 -26.9675 -26.9674 -26.9650 -26.9650 -26.9615 -26.9615
   -26.9591 -26.9590 -10.6336 -10.6336 -10.1006 -10.1006  -9.0384  -9.0384
    -6.3203  -6.3203  -5.0095  -5.0095  -0.6417  -0.6409  -0.4515  -0.4474
    -0.0037  -0.0024   0.1728   0.1756   0.3263   0.3276   0.5725   0.5746
     0.9140   0.9151   1.1423   1.1434   1.5334   1.5351   2.2406   2.2424
     2.6441   2.6450   2.9135   2.9145   3.4092   3.4111   4.0117   4.0131
     4.1920   4.1922   6.2182   6.2185   6.3544   6.3547   6.9531   6.9532
     7.2764   7.2766   7.5321   7.5323

          k = 0.0333 0.0589 0.0000 ( 14806 PWs)   bands (ev):

   -35.5744 -35.5744 -35.5652 -35.5652 -35.5433 -35.5432 -35.5341 -35.5341
   -35.4664 -35.4664 -35.4344 -35.4344 -34.1156 -34.1156 -34.1063 -34.1063
   -34.0893 -34.0893 -34.0802 -34.0802 -34.0751 -34.0751 -34.0659 -34.0659
   -34.0044 -34.0044 -33.9883 -33.9883 -33.9624 -33.9624 -28.2157 -28.2157
   -28.2097 -28.2097 -28.2073 -28.2072 -28.2013 -28.2013 -26.9763 -26.9763
   -26.9703 -26.9703 -26.9675 -26.9674 -26.9650 -26.9650 -26.9615 -26.9615
   -26.9591 -26.9590 -10.6422 -10.6422 -10.1085 -10.1085  -9.0431  -9.0431
    -6.3187  -6.3187  -4.9942  -4.9941  -0.6239  -0.6234  -0.3917  -0.3881
     0.0556   0.0566   0.1942   0.1966   0.3441   0.3456   0.5958   0.5981
     0.9260   0.9272   1.1107   1.1118   1.5014   1.5031   2.2026   2.2043
     2.6417   2.6425   2.8952   2.8962   3.3789   3.3806   4.0063   4.0076
     4.1599   4.1601   6.2037   6.2039   6.3517   6.3520   6.9563   6.9564
     7.3025   7.3026   7.5335   7.5336

          k = 0.0286 0.0505 0.0000 ( 14809 PWs)   bands (ev):

   -35.5744 -35.5744 -35.5652 -35.5652 -35.5433 -35.5432 -35.5341 -35.5341
   -35.4664 -35.4664 -35.4344 -35.4344 -34.1156 -34.1156 -34.1063 -34.1063
   -34.0893 -34.0893 -34.0802 -34.0802 -34.0751 -34.0751 -34.0659 -34.0659
   -34.0044 -34.0044 -33.9883 -33.9883 -33.9624 -33.9624 -28.2157 -28.2157
   -28.2097 -28.2097 -28.2073 -28.2072 -28.2013 -28.2013 -26.9764 -26.9764
   -26.9703 -26.9703 -26.9675 -26.9674 -26.9650 -26.9650 -26.9615 -26.9615
   -26.9591 -26.9590 -10.6497 -10.6497 -10.1154 -10.1154  -9.0473  -9.0473
    -6.3173  -6.3173  -4.9808  -4.9808  -0.6095  -0.6092  -0.3340  -0.3308
     0.1070   0.1073   0.2157   0.2178   0.3623   0.3641   0.6149   0.6174
     0.9294   0.9307   1.0926   1.0936   1.4646   1.4662   2.1633   2.1648
     2.6398   2.6405   2.8881   2.8892   3.3490   3.3504   3.9959   3.9969
     4.1365   4.1367   6.1908   6.1910   6.3493   6.3495   6.9577   6.9578
     7.3255   7.3256   7.5342   7.5343

          k = 0.0238 0.0421 0.0000 ( 14809 PWs)   bands (ev):

   -35.5744 -35.5744 -35.5652 -35.5652 -35.5433 -35.5432 -35.5341 -35.5341
   -35.4664 -35.4664 -35.4344 -35.4344 -34.1156 -34.1156 -34.1064 -34.1063
   -34.0893 -34.0893 -34.0802 -34.0802 -34.0751 -34.0751 -34.0659 -34.0659
   -34.0044 -34.0044 -33.9883 -33.9883 -33.9625 -33.9625 -28.2157 -28.2157
   -28.2097 -28.2097 -28.2073 -28.2072 -28.2013 -28.2013 -26.9764 -26.9764
   -26.9703 -26.9703 -26.9675 -26.9674 -26.9650 -26.9650 -26.9615 -26.9615
   -26.9591 -26.9590 -10.6561 -10.6561 -10.1212 -10.1211  -9.0508  -9.0508
    -6.3162  -6.3162  -4.9695  -4.9695  -0.5979  -0.5978  -0.2800  -0.2772
     0.1412   0.1421   0.2465   0.2488   0.3800   0.3820   0.6274   0.6301
     0.9207   0.9219   1.0923   1.0932   1.4265   1.4280   2.1221   2.1235
     2.6377   2.6384   2.8932   2.8942   3.3183   3.3195   3.9804   3.9812
     4.1226   4.1227   6.1798   6.1799   6.3472   6.3473   6.9580   6.9580
     7.3445   7.3446   7.5345   7.5346

          k = 0.0190 0.0337 0.0000 ( 14807 PWs)   bands (ev):

   -35.5744 -35.5744 -35.5652 -35.5652 -35.5433 -35.5432 -35.5341 -35.5341
   -35.4664 -35.4664 -35.4344 -35.4344 -34.1156 -34.1156 -34.1064 -34.1064
   -34.0893 -34.0893 -34.0802 -34.0802 -34.0751 -34.0751 -34.0659 -34.0659
   -34.0044 -34.0044 -33.9883 -33.9883 -33.9625 -33.9625 -28.2157 -28.2157
   -28.2097 -28.2097 -28.2073 -28.2072 -28.2013 -28.2013 -26.9764 -26.9764
   -26.9703 -26.9703 -26.9675 -26.9674 -26.9650 -26.9650 -26.9615 -26.9615
   -26.9591 -26.9590 -10.6613 -10.6613 -10.1259 -10.1259  -9.0536  -9.0536
    -6.3153  -6.3153  -4.9603  -4.9603  -0.5888  -0.5887  -0.2313  -0.2289
     0.1556   0.1569   0.2902   0.2930   0.3966   0.3988   0.6314   0.6341
     0.9033   0.9043   1.1059   1.1067   1.3910   1.3923   2.0805   2.0817
     2.6355   2.6361   2.9089   2.9099   3.2865   3.2875   3.9623   3.9628
     4.1159   4.1160   6.1706   6.1707   6.3454   6.3455   6.9575   6.9575
     7.3592   7.3593   7.5345   7.5346

          k = 0.0143 0.0252 0.0000 ( 14801 PWs)   bands (ev):

   -35.5744 -35.5744 -35.5652 -35.5652 -35.5433 -35.5432 -35.5341 -35.5341
   -35.4664 -35.4664 -35.4344 -35.4344 -34.1156 -34.1156 -34.1064 -34.1064
   -34.0893 -34.0893 -34.0802 -34.0802 -34.0751 -34.0751 -34.0659 -34.0659
   -34.0044 -34.0044 -33.9883 -33.9883 -33.9625 -33.9625 -28.2157 -28.2157
   -28.2097 -28.2097 -28.2073 -28.2072 -28.2013 -28.2013 -26.9764 -26.9764
   -26.9703 -26.9703 -26.9675 -26.9674 -26.9650 -26.9650 -26.9615 -26.9615
   -26.9590 -26.9590 -10.6653 -10.6653 -10.1296 -10.1296  -9.0558  -9.0558
    -6.3146  -6.3146  -4.9531  -4.9531  -0.5819  -0.5818  -0.1894  -0.1874
     0.1581   0.1594   0.3385   0.3414   0.4126   0.4149   0.6256   0.6283
     0.8842   0.8850   1.1248   1.1254   1.3618   1.3629   2.0413   2.0422
     2.6334   2.6338   2.9323   2.9331   3.2542   3.2549   3.9450   3.9454
     4.1136   4.1137   6.1634   6.1635   6.3440   6.3441   6.9567   6.9567
     7.3697   7.3697   7.5346   7.5347

          k = 0.0095 0.0168 0.0000 ( 14810 PWs)   bands (ev):

   -35.5744 -35.5744 -35.5652 -35.5652 -35.5433 -35.5432 -35.5341 -35.5341
   -35.4664 -35.4664 -35.4344 -35.4344 -34.1156 -34.1156 -34.1064 -34.1064
   -34.0893 -34.0893 -34.0802 -34.0802 -34.0751 -34.0751 -34.0659 -34.0659
   -34.0044 -34.0044 -33.9883 -33.9883 -33.9625 -33.9625 -28.2157 -28.2157
   -28.2097 -28.2097 -28.2073 -28.2072 -28.2013 -28.2013 -26.9764 -26.9764
   -26.9703 -26.9703 -26.9675 -26.9674 -26.9650 -26.9650 -26.9615 -26.9615
   -26.9590 -26.9590 -10.6682 -10.6682 -10.1322 -10.1322  -9.0575  -9.0575
    -6.3142  -6.3142  -4.9480  -4.9480  -0.5770  -0.5769  -0.1565  -0.1551
     0.1556   0.1567   0.3794   0.3819   0.4319   0.4338   0.6108   0.6131
     0.8684   0.8689   1.1415   1.1419   1.3417   1.3425   2.0085   2.0091
     2.6317   2.6320   2.9585   2.9592   3.2234   3.2240   3.9313   3.9316
     4.1133   4.1134   6.1582   6.1582   6.3430   6.3430   6.9559   6.9559
     7.3764   7.3765   7.5348   7.5349

          k = 0.0048 0.0084 0.0000 ( 14809 PWs)   bands (ev):

   -35.5744 -35.5744 -35.5652 -35.5652 -35.5433 -35.5432 -35.5341 -35.5341
   -35.4664 -35.4664 -35.4344 -35.4344 -34.1156 -34.1156 -34.1064 -34.1064
   -34.0893 -34.0893 -34.0802 -34.0802 -34.0751 -34.0751 -34.0659 -34.0659
   -34.0044 -34.0044 -33.9883 -33.9883 -33.9625 -33.9625 -28.2157 -28.2157
   -28.2097 -28.2097 -28.2073 -28.2073 -28.2013 -28.2013 -26.9764 -26.9764
   -26.9704 -26.9704 -26.9675 -26.9674 -26.9650 -26.9650 -26.9615 -26.9615
   -26.9590 -26.9590 -10.6699 -10.6699 -10.1338 -10.1338  -9.0584  -9.0584
    -6.3139  -6.3139  -4.9449  -4.9449  -0.5741  -0.5740  -0.1350  -0.1343
     0.1524   0.1530   0.4017   0.4027   0.4585   0.4594   0.5914   0.5930
     0.8584   0.8586   1.1519   1.1522   1.3313   1.3317   1.9864   1.9867
     2.6306   2.6308   2.9809   2.9813   3.1993   3.1996   3.9226   3.9227
     4.1136   4.1137   6.1550   6.1550   6.3424   6.3424   6.9553   6.9553
     7.3801   7.3802   7.5351   7.5351

          k = 0.0000 0.0000 0.0000 ( 14817 PWs)   bands (ev):

   -35.5744 -35.5744 -35.5652 -35.5652 -35.5433 -35.5433 -35.5341 -35.5341
   -35.4664 -35.4664 -35.4344 -35.4344 -34.1156 -34.1156 -34.1064 -34.1064
   -34.0893 -34.0893 -34.0802 -34.0802 -34.0751 -34.0751 -34.0659 -34.0659
   -34.0044 -34.0044 -33.9883 -33.9883 -33.9625 -33.9625 -28.2157 -28.2157
   -28.2097 -28.2097 -28.2073 -28.2073 -28.2013 -28.2013 -26.9764 -26.9764
   -26.9704 -26.9704 -26.9674 -26.9674 -26.9650 -26.9650 -26.9615 -26.9615
   -26.9590 -26.9590 -10.6705 -10.6705 -10.1344 -10.1344  -9.0587  -9.0587
    -6.3138  -6.3138  -4.9439  -4.9439  -0.5731  -0.5731  -0.1273  -0.1273
     0.1512   0.1512   0.4077   0.4077   0.4739   0.4739   0.5811   0.5811
     0.8550   0.8550   1.1554   1.1554   1.3285   1.3285   1.9787   1.9787
     2.6303   2.6303   2.9903   2.9903   3.1897   3.1897   3.9197   3.9197
     4.1138   4.1138   6.1540   6.1540   6.3422   6.3422   6.9551   6.9551
     7.3813   7.3813   7.5352   7.5352

     Writing all to output data dir tmp/Sb2Te3-uatsx-c2-soc-3.0.save/ :
     XML data file, pseudopotentials, collected wavefunctions

     init_run     :      1.15s CPU      1.21s WALL (       1 calls)
     electrons    :   1599.26s CPU    867.18s WALL (       1 calls)

     Called by init_run:
     wfcinit      :      0.00s CPU      0.06s WALL (       1 calls)
     wfcinit:wfcr :     41.02s CPU     21.29s WALL (     211 calls)
     potinit      :      0.51s CPU      0.48s WALL (       1 calls)
     hinit0       :      0.54s CPU      0.56s WALL (       1 calls)

     Called by electrons:
     c_bands      :   1599.25s CPU    867.16s WALL (       1 calls)
     v_of_rho     :      0.05s CPU      0.03s WALL (       1 calls)
     v_h          :      0.01s CPU      0.01s WALL (       1 calls)
     v_xc         :      0.04s CPU      0.03s WALL (       1 calls)

     Called by c_bands:
     init_us_2    :      0.20s CPU      0.18s WALL (     211 calls)
     cegterg      :   1549.05s CPU    837.75s WALL (     657 calls)

     Called by sum_band:

     Called by *egterg:
     cdiaghg      :    249.57s CPU    168.27s WALL (   10980 calls)
     cegterg:over :    103.95s CPU     54.16s WALL (   10769 calls)
     cegterg:upda :     50.05s CPU     23.53s WALL (   10769 calls)
     cegterg:last :     81.28s CPU     40.99s WALL (    5698 calls)
     h_psi        :   1052.31s CPU    543.05s WALL (   11637 calls)
     g_psi        :      5.50s CPU      3.88s WALL (   10769 calls)

     Called by h_psi:
     h_psi:calbec :     57.59s CPU     29.40s WALL (   11637 calls)
     vloc_psi     :    934.24s CPU    475.57s WALL (   11637 calls)
     add_vuspsi   :     57.20s CPU     36.01s WALL (   11637 calls)

     General routines
     calbec       :     57.52s CPU     29.37s WALL (   11637 calls)
     fft          :      0.58s CPU      0.58s WALL (      17 calls)
     ffts         :      0.42s CPU      0.42s WALL (       4 calls)
     fftw         :    684.29s CPU    348.80s WALL ( 2422608 calls)
     interpolate  :      0.43s CPU      0.43s WALL (       4 calls)
     davcio       :      0.20s CPU      0.80s WALL (     422 calls)

     Parallel routines

     PWSCF        :  26m55.40s CPU  16m18.77s WALL


   This run was terminated on:  17: 0:28  14Aug2025            

=------------------------------------------------------------------------------=
   JOB DONE.
=------------------------------------------------------------------------------=
