
     Program PWSCF v.7.4.1 starts on 22Aug2025 at 21:36:46 

     This program is part of the open-source Quantum ESPRESSO suite
     for quantum simulation of materials; please cite
         "P. Giannozzi et al., J. Phys.:Condens. Matter 21 395502 (2009);
         "P. Giannozzi et al., J. Phys.:Condens. Matter 29 465901 (2017);
         "P. Giannozzi et al., J. Chem. Phys. 152 154105 (2020);
          URL http://www.quantum-espresso.org", 
     in publications or presentations arising from this work. More details at
     http://www.quantum-espresso.org/quote

     Parallel version (MPI & OpenMP), running on      48 processor cores
     Number of MPI processes:                24
     Threads/MPI process:                     2

     MPI processes distributed on     2 nodes
     21391 MiB available memory on the printing compute node when the environment starts

     Waiting for input...
     Reading input from standard input

     Current dimensions of program PWSCF are:
     Max number of different atomic species (ntypx) = 10
     Max number of k-points (npk) =  40000
     Max angular momentum in pseudopotentials (lmaxx) =  4
Error reading attribute index: expected integer, found *
Error reading attribute index: expected integer, found *

     IMPORTANT: XC functional enforced from input :
     Exchange-correlation= PBE
                           (   1   4   3   4   0   0   0)
     Any further DFT definition will be discarded
     Please, verify this is what you really want


     Atomic positions and unit cell read from directory:
     tmp/Sb2Te3-uatsx-c5-soc-3.0.save/

     Message from routine setup:
     no reason to have ecutrho>4*ecutwfc

     R & G space division:  proc/nbgrp/npool/nimage =      24
     Subspace diagonalization in iterative solution of the eigenvalue problem:
     one sub-group per band group will be used
     scalapack distributed-memory algorithm (size of sub-group:  2*  2 procs)


     Parallelization info
     --------------------
     sticks:   dense  smooth     PW     G-vecs:    dense   smooth      PW
     Min         137      54     15                32297     8156    1215
     Max         138      55     16                32316     8181    1230
     Sum        3307    1319    371               775399   196125   29317

     Using Slab Decomposition



     bravais-lattice index     =            0
     lattice parameter (alat)  =       8.3900  a.u.
     unit-cell volume          =    2478.7943 (a.u.)^3
     number of atoms/cell      =            5
     number of atomic types    =            2
     number of electrons       =        78.00
     number of Kohn-Sham states=          200
     kinetic-energy cutoff     =      70.0000  Ry
     charge density cutoff     =     700.0000  Ry
     Exchange-correlation= PBE
                           (   1   4   3   4   0   0   0)
     Non magnetic calculation with spin-orbit


     celldm(1)=   8.390002  celldm(2)=   0.000000  celldm(3)=   0.000000
     celldm(4)=   0.000000  celldm(5)=   0.000000  celldm(6)=   0.000000

     crystal axes: (cart. coord. in units of alat)
               a(1) = (   1.000000   0.000000   0.000000 )  
               a(2) = (  -0.485437   0.840793   0.000000 )  
               a(3) = (   0.000000   0.000000   4.991890 )  

     reciprocal axes: (cart. coord. in units 2 pi/alat)
               b(1) = (  1.000000  0.577356 -0.000000 )  
               b(2) = (  0.000000  1.189353  0.000000 )  
               b(3) = (  0.000000 -0.000000  0.200325 )  


     PseudoPot. # 1 for Sb read from file:
     /zfs-home/202401017n1/pseudos/Sb_ONCV_PBE_FR-1.1.upf
     MD5 check sum: 7dc1726f2158e3c51e4807d42b9c5c65
     Pseudo is Norm-conserving, Zval = 15.0
     Generated using ONCVPSP code by D. R. Hamann
     Using radial grid of  602 points, 10 beta functions with: 
                l(1) =   0
                l(2) =   0
                l(3) =   1
                l(4) =   1
                l(5) =   1
                l(6) =   1
                l(7) =   2
                l(8) =   2
                l(9) =   2
               l(10) =   2

     PseudoPot. # 2 for Te read from file:
     /zfs-home/202401017n1/pseudos/Te_ONCV_PBE_FR-1.1.upf
     MD5 check sum: c6e17480449037a9a9d16e6377b5c7c4
     Pseudo is Norm-conserving, Zval = 16.0
     Generated using ONCVPSP code by D. R. Hamann
     Using radial grid of  602 points, 10 beta functions with: 
                l(1) =   0
                l(2) =   0
                l(3) =   1
                l(4) =   1
                l(5) =   1
                l(6) =   1
                l(7) =   2
                l(8) =   2
                l(9) =   2
               l(10) =   2

     atomic species   valence    mass     pseudopotential
     Sb               15.00   121.76000     Sb( 1.00)
     Te               16.00   127.60000     Te( 1.00)

     No symmetry found


                                    s                        frac. trans.

      isym =  1     identity                                     

 cryst.   s( 1) = (     1          0          0      )
                  (     0          1          0      )
                  (     0          0          1      )

 cart.    s( 1) = (  1.0000000  0.0000000  0.0000000 )
                  (  0.0000000  1.0000000  0.0000000 )
                  (  0.0000000  0.0000000  1.0000000 )


   Cartesian axes

     site n.     atom                  positions (alat units)
         1        Sb     tau(   1) = (   0.5867812   0.4172984   2.9417443  )
         2        Te     tau(   2) = (   0.5754457   0.3979752   1.6726131  )
         3        Sb     tau(   3) = (   0.0727921   0.1220272   2.0501240  )
         4        Te     tau(   4) = (   0.0840698   0.1416820   3.3192296  )
         5        Te     tau(   5) = (   0.0870265   0.6902229   2.4959189  )

     -------------------------------------------------
     Parameters for Dispersion (Grimme-D2) Correction:
     -------------------------------------------------
       atom      VdW radius       C_6     

        Sb         3.555       1333.532
        Te         3.575       1101.101

   Crystallographic axes

     site n.     atom                  positions (cryst. coord.)
         1        Sb     tau(   1) = (  0.8277109  0.4963151  0.5893047  )
         2        Te     tau(   2) = (  0.8052190  0.4733330  0.3350661  )
         3        Sb     tau(   3) = (  0.1432452  0.1451335  0.4106909  )
         4        Te     tau(   4) = (  0.1658708  0.1685099  0.6649244  )
         5        Te     tau(   5) = (  0.4855307  0.8209187  0.4999948  )

     number of k points=   211
                       cart. coord. in units 2pi/alat
        k(    1) = (   0.0000000   0.0000000   0.0000000), wk =   0.0047393
        k(    2) = (   0.0071429   0.0041240   0.0000000), wk =   0.0047393
        k(    3) = (   0.0142857   0.0082479   0.0000000), wk =   0.0047393
        k(    4) = (   0.0214286   0.0123719   0.0000000), wk =   0.0047393
        k(    5) = (   0.0285714   0.0164959   0.0000000), wk =   0.0047393
        k(    6) = (   0.0357143   0.0206199   0.0000000), wk =   0.0047393
        k(    7) = (   0.0428571   0.0247438   0.0000000), wk =   0.0047393
        k(    8) = (   0.0500000   0.0288678   0.0000000), wk =   0.0047393
        k(    9) = (   0.0571429   0.0329918   0.0000000), wk =   0.0047393
        k(   10) = (   0.0642857   0.0371157   0.0000000), wk =   0.0047393
        k(   11) = (   0.0714286   0.0412397   0.0000000), wk =   0.0047393
        k(   12) = (   0.0785714   0.0453637   0.0000000), wk =   0.0047393
        k(   13) = (   0.0857143   0.0494876   0.0000000), wk =   0.0047393
        k(   14) = (   0.0928571   0.0536116   0.0000000), wk =   0.0047393
        k(   15) = (   0.1000000   0.0577356   0.0000000), wk =   0.0047393
        k(   16) = (   0.1071429   0.0618596   0.0000000), wk =   0.0047393
        k(   17) = (   0.1142857   0.0659835   0.0000000), wk =   0.0047393
        k(   18) = (   0.1214286   0.0701075   0.0000000), wk =   0.0047393
        k(   19) = (   0.1285714   0.0742315   0.0000000), wk =   0.0047393
        k(   20) = (   0.1357143   0.0783554   0.0000000), wk =   0.0047393
        k(   21) = (   0.1428571   0.0824794   0.0000000), wk =   0.0047393
        k(   22) = (   0.1500000   0.0866034   0.0000000), wk =   0.0047393
        k(   23) = (   0.1571429   0.0907273   0.0000000), wk =   0.0047393
        k(   24) = (   0.1642857   0.0948513   0.0000000), wk =   0.0047393
        k(   25) = (   0.1714286   0.0989753   0.0000000), wk =   0.0047393
        k(   26) = (   0.1785714   0.1030993   0.0000000), wk =   0.0047393
        k(   27) = (   0.1857143   0.1072232   0.0000000), wk =   0.0047393
        k(   28) = (   0.1928571   0.1113472   0.0000000), wk =   0.0047393
        k(   29) = (   0.2000000   0.1154712   0.0000000), wk =   0.0047393
        k(   30) = (   0.2071429   0.1195951   0.0000000), wk =   0.0047393
        k(   31) = (   0.2142857   0.1237191   0.0000000), wk =   0.0047393
        k(   32) = (   0.2214286   0.1278431   0.0000000), wk =   0.0047393
        k(   33) = (   0.2285714   0.1319671   0.0000000), wk =   0.0047393
        k(   34) = (   0.2357143   0.1360910   0.0000000), wk =   0.0047393
        k(   35) = (   0.2428571   0.1402150   0.0000000), wk =   0.0047393
        k(   36) = (   0.2500000   0.1443390   0.0000000), wk =   0.0047393
        k(   37) = (   0.2571429   0.1484629   0.0000000), wk =   0.0047393
        k(   38) = (   0.2642857   0.1525869   0.0000000), wk =   0.0047393
        k(   39) = (   0.2714286   0.1567109   0.0000000), wk =   0.0047393
        k(   40) = (   0.2785714   0.1608348   0.0000000), wk =   0.0047393
        k(   41) = (   0.2857143   0.1649588   0.0000000), wk =   0.0047393
        k(   42) = (   0.2928571   0.1690828   0.0000000), wk =   0.0047393
        k(   43) = (   0.3000000   0.1732068   0.0000000), wk =   0.0047393
        k(   44) = (   0.3071429   0.1773307   0.0000000), wk =   0.0047393
        k(   45) = (   0.3142857   0.1814547   0.0000000), wk =   0.0047393
        k(   46) = (   0.3214286   0.1855787   0.0000000), wk =   0.0047393
        k(   47) = (   0.3285714   0.1897026   0.0000000), wk =   0.0047393
        k(   48) = (   0.3357143   0.1938266   0.0000000), wk =   0.0047393
        k(   49) = (   0.3428571   0.1979506   0.0000000), wk =   0.0047393
        k(   50) = (   0.3500000   0.2020745   0.0000000), wk =   0.0047393
        k(   51) = (   0.3571429   0.2061985   0.0000000), wk =   0.0047393
        k(   52) = (   0.3642857   0.2103225   0.0000000), wk =   0.0047393
        k(   53) = (   0.3714286   0.2144465   0.0000000), wk =   0.0047393
        k(   54) = (   0.3785714   0.2185704   0.0000000), wk =   0.0047393
        k(   55) = (   0.3857143   0.2226944   0.0000000), wk =   0.0047393
        k(   56) = (   0.3928571   0.2268184   0.0000000), wk =   0.0047393
        k(   57) = (   0.4000000   0.2309423   0.0000000), wk =   0.0047393
        k(   58) = (   0.4071429   0.2350663   0.0000000), wk =   0.0047393
        k(   59) = (   0.4142857   0.2391903   0.0000000), wk =   0.0047393
        k(   60) = (   0.4214286   0.2433143   0.0000000), wk =   0.0047393
        k(   61) = (   0.4285714   0.2474382   0.0000000), wk =   0.0047393
        k(   62) = (   0.4357143   0.2515622   0.0000000), wk =   0.0047393
        k(   63) = (   0.4428571   0.2556862   0.0000000), wk =   0.0047393
        k(   64) = (   0.4500000   0.2598101   0.0000000), wk =   0.0047393
        k(   65) = (   0.4571429   0.2639341   0.0000000), wk =   0.0047393
        k(   66) = (   0.4642857   0.2680581   0.0000000), wk =   0.0047393
        k(   67) = (   0.4714286   0.2721820   0.0000000), wk =   0.0047393
        k(   68) = (   0.4785714   0.2763060   0.0000000), wk =   0.0047393
        k(   69) = (   0.4857143   0.2804300   0.0000000), wk =   0.0047393
        k(   70) = (   0.4928571   0.2845540   0.0000000), wk =   0.0047393
        k(   71) = (   0.5000000   0.2886779   0.0000000), wk =   0.0047393
        k(   72) = (   0.4976190   0.2929669   0.0000000), wk =   0.0047393
        k(   73) = (   0.4952381   0.2972558   0.0000000), wk =   0.0047393
        k(   74) = (   0.4928571   0.3015447   0.0000000), wk =   0.0047393
        k(   75) = (   0.4904762   0.3058336   0.0000000), wk =   0.0047393
        k(   76) = (   0.4880952   0.3101226   0.0000000), wk =   0.0047393
        k(   77) = (   0.4857143   0.3144115   0.0000000), wk =   0.0047393
        k(   78) = (   0.4833333   0.3187004   0.0000000), wk =   0.0047393
        k(   79) = (   0.4809524   0.3229894   0.0000000), wk =   0.0047393
        k(   80) = (   0.4785714   0.3272783   0.0000000), wk =   0.0047393
        k(   81) = (   0.4761905   0.3315672   0.0000000), wk =   0.0047393
        k(   82) = (   0.4738095   0.3358561   0.0000000), wk =   0.0047393
        k(   83) = (   0.4714286   0.3401451   0.0000000), wk =   0.0047393
        k(   84) = (   0.4690476   0.3444340   0.0000000), wk =   0.0047393
        k(   85) = (   0.4666667   0.3487229   0.0000000), wk =   0.0047393
        k(   86) = (   0.4642857   0.3530119   0.0000000), wk =   0.0047393
        k(   87) = (   0.4619048   0.3573008   0.0000000), wk =   0.0047393
        k(   88) = (   0.4595238   0.3615897   0.0000000), wk =   0.0047393
        k(   89) = (   0.4571429   0.3658787   0.0000000), wk =   0.0047393
        k(   90) = (   0.4547619   0.3701676   0.0000000), wk =   0.0047393
        k(   91) = (   0.4523810   0.3744565   0.0000000), wk =   0.0047393
        k(   92) = (   0.4500000   0.3787454   0.0000000), wk =   0.0047393
        k(   93) = (   0.4476190   0.3830344   0.0000000), wk =   0.0047393
        k(   94) = (   0.4452381   0.3873233   0.0000000), wk =   0.0047393
        k(   95) = (   0.4428571   0.3916122   0.0000000), wk =   0.0047393
        k(   96) = (   0.4404762   0.3959012   0.0000000), wk =   0.0047393
        k(   97) = (   0.4380952   0.4001901   0.0000000), wk =   0.0047393
        k(   98) = (   0.4357143   0.4044790   0.0000000), wk =   0.0047393
        k(   99) = (   0.4333333   0.4087679   0.0000000), wk =   0.0047393
        k(  100) = (   0.4309524   0.4130569   0.0000000), wk =   0.0047393
        k(  101) = (   0.4285714   0.4173458   0.0000000), wk =   0.0047393
        k(  102) = (   0.4261905   0.4216347   0.0000000), wk =   0.0047393
        k(  103) = (   0.4238095   0.4259237   0.0000000), wk =   0.0047393
        k(  104) = (   0.4214286   0.4302126   0.0000000), wk =   0.0047393
        k(  105) = (   0.4190476   0.4345015   0.0000000), wk =   0.0047393
        k(  106) = (   0.4166667   0.4387904   0.0000000), wk =   0.0047393
        k(  107) = (   0.4142857   0.4430794   0.0000000), wk =   0.0047393
        k(  108) = (   0.4119048   0.4473683   0.0000000), wk =   0.0047393
        k(  109) = (   0.4095238   0.4516572   0.0000000), wk =   0.0047393
        k(  110) = (   0.4071429   0.4559462   0.0000000), wk =   0.0047393
        k(  111) = (   0.4047619   0.4602351   0.0000000), wk =   0.0047393
        k(  112) = (   0.4023810   0.4645240   0.0000000), wk =   0.0047393
        k(  113) = (   0.4000000   0.4688130   0.0000000), wk =   0.0047393
        k(  114) = (   0.3976190   0.4731019   0.0000000), wk =   0.0047393
        k(  115) = (   0.3952381   0.4773908   0.0000000), wk =   0.0047393
        k(  116) = (   0.3928571   0.4816797   0.0000000), wk =   0.0047393
        k(  117) = (   0.3904762   0.4859687   0.0000000), wk =   0.0047393
        k(  118) = (   0.3880952   0.4902576   0.0000000), wk =   0.0047393
        k(  119) = (   0.3857143   0.4945465   0.0000000), wk =   0.0047393
        k(  120) = (   0.3833333   0.4988355   0.0000000), wk =   0.0047393
        k(  121) = (   0.3809524   0.5031244   0.0000000), wk =   0.0047393
        k(  122) = (   0.3785714   0.5074133   0.0000000), wk =   0.0047393
        k(  123) = (   0.3761905   0.5117022   0.0000000), wk =   0.0047393
        k(  124) = (   0.3738095   0.5159912   0.0000000), wk =   0.0047393
        k(  125) = (   0.3714286   0.5202801   0.0000000), wk =   0.0047393
        k(  126) = (   0.3690476   0.5245690   0.0000000), wk =   0.0047393
        k(  127) = (   0.3666667   0.5288580   0.0000000), wk =   0.0047393
        k(  128) = (   0.3642857   0.5331469   0.0000000), wk =   0.0047393
        k(  129) = (   0.3619048   0.5374358   0.0000000), wk =   0.0047393
        k(  130) = (   0.3595238   0.5417247   0.0000000), wk =   0.0047393
        k(  131) = (   0.3571429   0.5460137   0.0000000), wk =   0.0047393
        k(  132) = (   0.3547619   0.5503026   0.0000000), wk =   0.0047393
        k(  133) = (   0.3523810   0.5545915   0.0000000), wk =   0.0047393
        k(  134) = (   0.3500000   0.5588805   0.0000000), wk =   0.0047393
        k(  135) = (   0.3476190   0.5631694   0.0000000), wk =   0.0047393
        k(  136) = (   0.3452381   0.5674583   0.0000000), wk =   0.0047393
        k(  137) = (   0.3428571   0.5717473   0.0000000), wk =   0.0047393
        k(  138) = (   0.3404762   0.5760362   0.0000000), wk =   0.0047393
        k(  139) = (   0.3380952   0.5803251   0.0000000), wk =   0.0047393
        k(  140) = (   0.3357143   0.5846140   0.0000000), wk =   0.0047393
        k(  141) = (   0.3333333   0.5889030   0.0000000), wk =   0.0047393
        k(  142) = (   0.3285714   0.5804901   0.0000000), wk =   0.0047393
        k(  143) = (   0.3238095   0.5720772   0.0000000), wk =   0.0047393
        k(  144) = (   0.3190476   0.5636643   0.0000000), wk =   0.0047393
        k(  145) = (   0.3142857   0.5552514   0.0000000), wk =   0.0047393
        k(  146) = (   0.3095238   0.5468385   0.0000000), wk =   0.0047393
        k(  147) = (   0.3047619   0.5384256   0.0000000), wk =   0.0047393
        k(  148) = (   0.3000000   0.5300127   0.0000000), wk =   0.0047393
        k(  149) = (   0.2952381   0.5215998   0.0000000), wk =   0.0047393
        k(  150) = (   0.2904762   0.5131869   0.0000000), wk =   0.0047393
        k(  151) = (   0.2857143   0.5047740   0.0000000), wk =   0.0047393
        k(  152) = (   0.2809524   0.4963611   0.0000000), wk =   0.0047393
        k(  153) = (   0.2761905   0.4879482   0.0000000), wk =   0.0047393
        k(  154) = (   0.2714286   0.4795353   0.0000000), wk =   0.0047393
        k(  155) = (   0.2666667   0.4711224   0.0000000), wk =   0.0047393
        k(  156) = (   0.2619048   0.4627095   0.0000000), wk =   0.0047393
        k(  157) = (   0.2571429   0.4542966   0.0000000), wk =   0.0047393
        k(  158) = (   0.2523810   0.4458837   0.0000000), wk =   0.0047393
        k(  159) = (   0.2476190   0.4374708   0.0000000), wk =   0.0047393
        k(  160) = (   0.2428571   0.4290579   0.0000000), wk =   0.0047393
        k(  161) = (   0.2380952   0.4206450   0.0000000), wk =   0.0047393
        k(  162) = (   0.2333333   0.4122321   0.0000000), wk =   0.0047393
        k(  163) = (   0.2285714   0.4038192   0.0000000), wk =   0.0047393
        k(  164) = (   0.2238095   0.3954063   0.0000000), wk =   0.0047393
        k(  165) = (   0.2190476   0.3869934   0.0000000), wk =   0.0047393
        k(  166) = (   0.2142857   0.3785805   0.0000000), wk =   0.0047393
        k(  167) = (   0.2095238   0.3701676   0.0000000), wk =   0.0047393
        k(  168) = (   0.2047619   0.3617547   0.0000000), wk =   0.0047393
        k(  169) = (   0.2000000   0.3533418   0.0000000), wk =   0.0047393
        k(  170) = (   0.1952381   0.3449289   0.0000000), wk =   0.0047393
        k(  171) = (   0.1904762   0.3365160   0.0000000), wk =   0.0047393
        k(  172) = (   0.1857143   0.3281031   0.0000000), wk =   0.0047393
        k(  173) = (   0.1809524   0.3196902   0.0000000), wk =   0.0047393
        k(  174) = (   0.1761905   0.3112773   0.0000000), wk =   0.0047393
        k(  175) = (   0.1714286   0.3028644   0.0000000), wk =   0.0047393
        k(  176) = (   0.1666667   0.2944515   0.0000000), wk =   0.0047393
        k(  177) = (   0.1619048   0.2860386   0.0000000), wk =   0.0047393
        k(  178) = (   0.1571429   0.2776257   0.0000000), wk =   0.0047393
        k(  179) = (   0.1523810   0.2692128   0.0000000), wk =   0.0047393
        k(  180) = (   0.1476190   0.2607999   0.0000000), wk =   0.0047393
        k(  181) = (   0.1428571   0.2523870   0.0000000), wk =   0.0047393
        k(  182) = (   0.1380952   0.2439741   0.0000000), wk =   0.0047393
        k(  183) = (   0.1333333   0.2355612   0.0000000), wk =   0.0047393
        k(  184) = (   0.1285714   0.2271483   0.0000000), wk =   0.0047393
        k(  185) = (   0.1238095   0.2187354   0.0000000), wk =   0.0047393
        k(  186) = (   0.1190476   0.2103225   0.0000000), wk =   0.0047393
        k(  187) = (   0.1142857   0.2019096   0.0000000), wk =   0.0047393
        k(  188) = (   0.1095238   0.1934967   0.0000000), wk =   0.0047393
        k(  189) = (   0.1047619   0.1850838   0.0000000), wk =   0.0047393
        k(  190) = (   0.1000000   0.1766709   0.0000000), wk =   0.0047393
        k(  191) = (   0.0952381   0.1682580   0.0000000), wk =   0.0047393
        k(  192) = (   0.0904762   0.1598451   0.0000000), wk =   0.0047393
        k(  193) = (   0.0857143   0.1514322   0.0000000), wk =   0.0047393
        k(  194) = (   0.0809524   0.1430193   0.0000000), wk =   0.0047393
        k(  195) = (   0.0761905   0.1346064   0.0000000), wk =   0.0047393
        k(  196) = (   0.0714286   0.1261935   0.0000000), wk =   0.0047393
        k(  197) = (   0.0666667   0.1177806   0.0000000), wk =   0.0047393
        k(  198) = (   0.0619048   0.1093677   0.0000000), wk =   0.0047393
        k(  199) = (   0.0571429   0.1009548   0.0000000), wk =   0.0047393
        k(  200) = (   0.0523810   0.0925419   0.0000000), wk =   0.0047393
        k(  201) = (   0.0476190   0.0841290   0.0000000), wk =   0.0047393
        k(  202) = (   0.0428571   0.0757161   0.0000000), wk =   0.0047393
        k(  203) = (   0.0380952   0.0673032   0.0000000), wk =   0.0047393
        k(  204) = (   0.0333333   0.0588903   0.0000000), wk =   0.0047393
        k(  205) = (   0.0285714   0.0504774   0.0000000), wk =   0.0047393
        k(  206) = (   0.0238095   0.0420645   0.0000000), wk =   0.0047393
        k(  207) = (   0.0190476   0.0336516   0.0000000), wk =   0.0047393
        k(  208) = (   0.0142857   0.0252387   0.0000000), wk =   0.0047393
        k(  209) = (   0.0095238   0.0168258   0.0000000), wk =   0.0047393
        k(  210) = (   0.0047619   0.0084129   0.0000000), wk =   0.0047393
        k(  211) = (   0.0000000   0.0000000   0.0000000), wk =   0.0047393

                       cryst. coord.
        k(    1) = (   0.0000000   0.0000000   0.0000000), wk =   0.0047393
        k(    2) = (   0.0071429   0.0000000   0.0000000), wk =   0.0047393
        k(    3) = (   0.0142857   0.0000000   0.0000000), wk =   0.0047393
        k(    4) = (   0.0214286   0.0000000   0.0000000), wk =   0.0047393
        k(    5) = (   0.0285714   0.0000000   0.0000000), wk =   0.0047393
        k(    6) = (   0.0357143  -0.0000000   0.0000000), wk =   0.0047393
        k(    7) = (   0.0428571   0.0000000   0.0000000), wk =   0.0047393
        k(    8) = (   0.0500000   0.0000000   0.0000000), wk =   0.0047393
        k(    9) = (   0.0571429   0.0000000   0.0000000), wk =   0.0047393
        k(   10) = (   0.0642857   0.0000000   0.0000000), wk =   0.0047393
        k(   11) = (   0.0714286  -0.0000000   0.0000000), wk =   0.0047393
        k(   12) = (   0.0785714  -0.0000000   0.0000000), wk =   0.0047393
        k(   13) = (   0.0857143   0.0000000   0.0000000), wk =   0.0047393
        k(   14) = (   0.0928571  -0.0000000   0.0000000), wk =   0.0047393
        k(   15) = (   0.1000000   0.0000000   0.0000000), wk =   0.0047393
        k(   16) = (   0.1071429   0.0000000   0.0000000), wk =   0.0047393
        k(   17) = (   0.1142857   0.0000000   0.0000000), wk =   0.0047393
        k(   18) = (   0.1214286   0.0000000   0.0000000), wk =   0.0047393
        k(   19) = (   0.1285714   0.0000000   0.0000000), wk =   0.0047393
        k(   20) = (   0.1357143   0.0000000   0.0000000), wk =   0.0047393
        k(   21) = (   0.1428571  -0.0000000   0.0000000), wk =   0.0047393
        k(   22) = (   0.1500000  -0.0000000   0.0000000), wk =   0.0047393
        k(   23) = (   0.1571429  -0.0000000   0.0000000), wk =   0.0047393
        k(   24) = (   0.1642857   0.0000000   0.0000000), wk =   0.0047393
        k(   25) = (   0.1714286   0.0000000   0.0000000), wk =   0.0047393
        k(   26) = (   0.1785714  -0.0000000   0.0000000), wk =   0.0047393
        k(   27) = (   0.1857143  -0.0000000   0.0000000), wk =   0.0047393
        k(   28) = (   0.1928571   0.0000000   0.0000000), wk =   0.0047393
        k(   29) = (   0.2000000   0.0000000   0.0000000), wk =   0.0047393
        k(   30) = (   0.2071429   0.0000000   0.0000000), wk =   0.0047393
        k(   31) = (   0.2142857   0.0000000   0.0000000), wk =   0.0047393
        k(   32) = (   0.2214286   0.0000000   0.0000000), wk =   0.0047393
        k(   33) = (   0.2285714   0.0000000   0.0000000), wk =   0.0047393
        k(   34) = (   0.2357143   0.0000000   0.0000000), wk =   0.0047393
        k(   35) = (   0.2428571   0.0000000   0.0000000), wk =   0.0047393
        k(   36) = (   0.2500000   0.0000000   0.0000000), wk =   0.0047393
        k(   37) = (   0.2571429   0.0000000   0.0000000), wk =   0.0047393
        k(   38) = (   0.2642857  -0.0000000   0.0000000), wk =   0.0047393
        k(   39) = (   0.2714286   0.0000000   0.0000000), wk =   0.0047393
        k(   40) = (   0.2785714  -0.0000000   0.0000000), wk =   0.0047393
        k(   41) = (   0.2857143  -0.0000000   0.0000000), wk =   0.0047393
        k(   42) = (   0.2928571   0.0000000   0.0000000), wk =   0.0047393
        k(   43) = (   0.3000000  -0.0000000   0.0000000), wk =   0.0047393
        k(   44) = (   0.3071429   0.0000000   0.0000000), wk =   0.0047393
        k(   45) = (   0.3142857  -0.0000000   0.0000000), wk =   0.0047393
        k(   46) = (   0.3214286  -0.0000000   0.0000000), wk =   0.0047393
        k(   47) = (   0.3285714   0.0000000   0.0000000), wk =   0.0047393
        k(   48) = (   0.3357143   0.0000000   0.0000000), wk =   0.0047393
        k(   49) = (   0.3428571   0.0000000   0.0000000), wk =   0.0047393
        k(   50) = (   0.3500000   0.0000000   0.0000000), wk =   0.0047393
        k(   51) = (   0.3571429  -0.0000000   0.0000000), wk =   0.0047393
        k(   52) = (   0.3642857   0.0000000   0.0000000), wk =   0.0047393
        k(   53) = (   0.3714286  -0.0000000   0.0000000), wk =   0.0047393
        k(   54) = (   0.3785714  -0.0000000   0.0000000), wk =   0.0047393
        k(   55) = (   0.3857143   0.0000000   0.0000000), wk =   0.0047393
        k(   56) = (   0.3928571   0.0000000   0.0000000), wk =   0.0047393
        k(   57) = (   0.4000000   0.0000000   0.0000000), wk =   0.0047393
        k(   58) = (   0.4071429   0.0000000   0.0000000), wk =   0.0047393
        k(   59) = (   0.4142857   0.0000000   0.0000000), wk =   0.0047393
        k(   60) = (   0.4214286   0.0000000   0.0000000), wk =   0.0047393
        k(   61) = (   0.4285714   0.0000000   0.0000000), wk =   0.0047393
        k(   62) = (   0.4357143   0.0000000   0.0000000), wk =   0.0047393
        k(   63) = (   0.4428571   0.0000000   0.0000000), wk =   0.0047393
        k(   64) = (   0.4500000  -0.0000000   0.0000000), wk =   0.0047393
        k(   65) = (   0.4571429   0.0000000   0.0000000), wk =   0.0047393
        k(   66) = (   0.4642857  -0.0000000   0.0000000), wk =   0.0047393
        k(   67) = (   0.4714286   0.0000000   0.0000000), wk =   0.0047393
        k(   68) = (   0.4785714   0.0000000   0.0000000), wk =   0.0047393
        k(   69) = (   0.4857143   0.0000000   0.0000000), wk =   0.0047393
        k(   70) = (   0.4928571   0.0000000   0.0000000), wk =   0.0047393
        k(   71) = (   0.5000000   0.0000000   0.0000000), wk =   0.0047393
        k(   72) = (   0.4976190   0.0047619   0.0000000), wk =   0.0047393
        k(   73) = (   0.4952381   0.0095238   0.0000000), wk =   0.0047393
        k(   74) = (   0.4928571   0.0142857   0.0000000), wk =   0.0047393
        k(   75) = (   0.4904762   0.0190476   0.0000000), wk =   0.0047393
        k(   76) = (   0.4880952   0.0238095   0.0000000), wk =   0.0047393
        k(   77) = (   0.4857143   0.0285714   0.0000000), wk =   0.0047393
        k(   78) = (   0.4833333   0.0333333   0.0000000), wk =   0.0047393
        k(   79) = (   0.4809524   0.0380952   0.0000000), wk =   0.0047393
        k(   80) = (   0.4785714   0.0428571   0.0000000), wk =   0.0047393
        k(   81) = (   0.4761905   0.0476190   0.0000000), wk =   0.0047393
        k(   82) = (   0.4738095   0.0523810   0.0000000), wk =   0.0047393
        k(   83) = (   0.4714286   0.0571429   0.0000000), wk =   0.0047393
        k(   84) = (   0.4690476   0.0619048   0.0000000), wk =   0.0047393
        k(   85) = (   0.4666667   0.0666667   0.0000000), wk =   0.0047393
        k(   86) = (   0.4642857   0.0714286   0.0000000), wk =   0.0047393
        k(   87) = (   0.4619048   0.0761905   0.0000000), wk =   0.0047393
        k(   88) = (   0.4595238   0.0809524   0.0000000), wk =   0.0047393
        k(   89) = (   0.4571429   0.0857143   0.0000000), wk =   0.0047393
        k(   90) = (   0.4547619   0.0904762   0.0000000), wk =   0.0047393
        k(   91) = (   0.4523810   0.0952381   0.0000000), wk =   0.0047393
        k(   92) = (   0.4500000   0.1000000   0.0000000), wk =   0.0047393
        k(   93) = (   0.4476190   0.1047619   0.0000000), wk =   0.0047393
        k(   94) = (   0.4452381   0.1095238   0.0000000), wk =   0.0047393
        k(   95) = (   0.4428571   0.1142857   0.0000000), wk =   0.0047393
        k(   96) = (   0.4404762   0.1190476   0.0000000), wk =   0.0047393
        k(   97) = (   0.4380952   0.1238095   0.0000000), wk =   0.0047393
        k(   98) = (   0.4357143   0.1285714   0.0000000), wk =   0.0047393
        k(   99) = (   0.4333333   0.1333333   0.0000000), wk =   0.0047393
        k(  100) = (   0.4309524   0.1380952   0.0000000), wk =   0.0047393
        k(  101) = (   0.4285714   0.1428571   0.0000000), wk =   0.0047393
        k(  102) = (   0.4261905   0.1476190   0.0000000), wk =   0.0047393
        k(  103) = (   0.4238095   0.1523810   0.0000000), wk =   0.0047393
        k(  104) = (   0.4214286   0.1571429   0.0000000), wk =   0.0047393
        k(  105) = (   0.4190476   0.1619048   0.0000000), wk =   0.0047393
        k(  106) = (   0.4166667   0.1666667   0.0000000), wk =   0.0047393
        k(  107) = (   0.4142857   0.1714286   0.0000000), wk =   0.0047393
        k(  108) = (   0.4119048   0.1761905   0.0000000), wk =   0.0047393
        k(  109) = (   0.4095238   0.1809524   0.0000000), wk =   0.0047393
        k(  110) = (   0.4071429   0.1857143   0.0000000), wk =   0.0047393
        k(  111) = (   0.4047619   0.1904762   0.0000000), wk =   0.0047393
        k(  112) = (   0.4023810   0.1952381   0.0000000), wk =   0.0047393
        k(  113) = (   0.4000000   0.2000000   0.0000000), wk =   0.0047393
        k(  114) = (   0.3976190   0.2047619   0.0000000), wk =   0.0047393
        k(  115) = (   0.3952381   0.2095238   0.0000000), wk =   0.0047393
        k(  116) = (   0.3928571   0.2142857   0.0000000), wk =   0.0047393
        k(  117) = (   0.3904762   0.2190476   0.0000000), wk =   0.0047393
        k(  118) = (   0.3880952   0.2238095   0.0000000), wk =   0.0047393
        k(  119) = (   0.3857143   0.2285714   0.0000000), wk =   0.0047393
        k(  120) = (   0.3833333   0.2333333   0.0000000), wk =   0.0047393
        k(  121) = (   0.3809524   0.2380952   0.0000000), wk =   0.0047393
        k(  122) = (   0.3785714   0.2428571   0.0000000), wk =   0.0047393
        k(  123) = (   0.3761905   0.2476190   0.0000000), wk =   0.0047393
        k(  124) = (   0.3738095   0.2523810   0.0000000), wk =   0.0047393
        k(  125) = (   0.3714286   0.2571429   0.0000000), wk =   0.0047393
        k(  126) = (   0.3690476   0.2619048   0.0000000), wk =   0.0047393
        k(  127) = (   0.3666667   0.2666667   0.0000000), wk =   0.0047393
        k(  128) = (   0.3642857   0.2714286   0.0000000), wk =   0.0047393
        k(  129) = (   0.3619048   0.2761905   0.0000000), wk =   0.0047393
        k(  130) = (   0.3595238   0.2809524   0.0000000), wk =   0.0047393
        k(  131) = (   0.3571429   0.2857143   0.0000000), wk =   0.0047393
        k(  132) = (   0.3547619   0.2904762   0.0000000), wk =   0.0047393
        k(  133) = (   0.3523810   0.2952381   0.0000000), wk =   0.0047393
        k(  134) = (   0.3500000   0.3000000   0.0000000), wk =   0.0047393
        k(  135) = (   0.3476190   0.3047619   0.0000000), wk =   0.0047393
        k(  136) = (   0.3452381   0.3095238   0.0000000), wk =   0.0047393
        k(  137) = (   0.3428571   0.3142857   0.0000000), wk =   0.0047393
        k(  138) = (   0.3404762   0.3190476   0.0000000), wk =   0.0047393
        k(  139) = (   0.3380952   0.3238095   0.0000000), wk =   0.0047393
        k(  140) = (   0.3357143   0.3285714   0.0000000), wk =   0.0047393
        k(  141) = (   0.3333333   0.3333333   0.0000000), wk =   0.0047393
        k(  142) = (   0.3285714   0.3285714   0.0000000), wk =   0.0047393
        k(  143) = (   0.3238095   0.3238095   0.0000000), wk =   0.0047393
        k(  144) = (   0.3190476   0.3190476   0.0000000), wk =   0.0047393
        k(  145) = (   0.3142857   0.3142857   0.0000000), wk =   0.0047393
        k(  146) = (   0.3095238   0.3095238   0.0000000), wk =   0.0047393
        k(  147) = (   0.3047619   0.3047619   0.0000000), wk =   0.0047393
        k(  148) = (   0.3000000   0.3000000   0.0000000), wk =   0.0047393
        k(  149) = (   0.2952381   0.2952381   0.0000000), wk =   0.0047393
        k(  150) = (   0.2904762   0.2904762   0.0000000), wk =   0.0047393
        k(  151) = (   0.2857143   0.2857143   0.0000000), wk =   0.0047393
        k(  152) = (   0.2809524   0.2809524   0.0000000), wk =   0.0047393
        k(  153) = (   0.2761905   0.2761905   0.0000000), wk =   0.0047393
        k(  154) = (   0.2714286   0.2714286   0.0000000), wk =   0.0047393
        k(  155) = (   0.2666667   0.2666667   0.0000000), wk =   0.0047393
        k(  156) = (   0.2619048   0.2619048   0.0000000), wk =   0.0047393
        k(  157) = (   0.2571429   0.2571429   0.0000000), wk =   0.0047393
        k(  158) = (   0.2523810   0.2523810   0.0000000), wk =   0.0047393
        k(  159) = (   0.2476190   0.2476190   0.0000000), wk =   0.0047393
        k(  160) = (   0.2428571   0.2428571   0.0000000), wk =   0.0047393
        k(  161) = (   0.2380952   0.2380952   0.0000000), wk =   0.0047393
        k(  162) = (   0.2333333   0.2333333   0.0000000), wk =   0.0047393
        k(  163) = (   0.2285714   0.2285714   0.0000000), wk =   0.0047393
        k(  164) = (   0.2238095   0.2238095   0.0000000), wk =   0.0047393
        k(  165) = (   0.2190476   0.2190476   0.0000000), wk =   0.0047393
        k(  166) = (   0.2142857   0.2142857   0.0000000), wk =   0.0047393
        k(  167) = (   0.2095238   0.2095238   0.0000000), wk =   0.0047393
        k(  168) = (   0.2047619   0.2047619   0.0000000), wk =   0.0047393
        k(  169) = (   0.2000000   0.2000000   0.0000000), wk =   0.0047393
        k(  170) = (   0.1952381   0.1952381   0.0000000), wk =   0.0047393
        k(  171) = (   0.1904762   0.1904762   0.0000000), wk =   0.0047393
        k(  172) = (   0.1857143   0.1857143   0.0000000), wk =   0.0047393
        k(  173) = (   0.1809524   0.1809524   0.0000000), wk =   0.0047393
        k(  174) = (   0.1761905   0.1761905   0.0000000), wk =   0.0047393
        k(  175) = (   0.1714286   0.1714286   0.0000000), wk =   0.0047393
        k(  176) = (   0.1666667   0.1666667   0.0000000), wk =   0.0047393
        k(  177) = (   0.1619048   0.1619048   0.0000000), wk =   0.0047393
        k(  178) = (   0.1571429   0.1571429   0.0000000), wk =   0.0047393
        k(  179) = (   0.1523810   0.1523810   0.0000000), wk =   0.0047393
        k(  180) = (   0.1476190   0.1476190   0.0000000), wk =   0.0047393
        k(  181) = (   0.1428571   0.1428571   0.0000000), wk =   0.0047393
        k(  182) = (   0.1380952   0.1380952   0.0000000), wk =   0.0047393
        k(  183) = (   0.1333333   0.1333333   0.0000000), wk =   0.0047393
        k(  184) = (   0.1285714   0.1285714   0.0000000), wk =   0.0047393
        k(  185) = (   0.1238095   0.1238095   0.0000000), wk =   0.0047393
        k(  186) = (   0.1190476   0.1190476   0.0000000), wk =   0.0047393
        k(  187) = (   0.1142857   0.1142857   0.0000000), wk =   0.0047393
        k(  188) = (   0.1095238   0.1095238   0.0000000), wk =   0.0047393
        k(  189) = (   0.1047619   0.1047619   0.0000000), wk =   0.0047393
        k(  190) = (   0.1000000   0.1000000   0.0000000), wk =   0.0047393
        k(  191) = (   0.0952381   0.0952381   0.0000000), wk =   0.0047393
        k(  192) = (   0.0904762   0.0904762   0.0000000), wk =   0.0047393
        k(  193) = (   0.0857143   0.0857143   0.0000000), wk =   0.0047393
        k(  194) = (   0.0809524   0.0809524   0.0000000), wk =   0.0047393
        k(  195) = (   0.0761905   0.0761905   0.0000000), wk =   0.0047393
        k(  196) = (   0.0714286   0.0714286   0.0000000), wk =   0.0047393
        k(  197) = (   0.0666667   0.0666667   0.0000000), wk =   0.0047393
        k(  198) = (   0.0619048   0.0619048   0.0000000), wk =   0.0047393
        k(  199) = (   0.0571429   0.0571429   0.0000000), wk =   0.0047393
        k(  200) = (   0.0523810   0.0523810   0.0000000), wk =   0.0047393
        k(  201) = (   0.0476190   0.0476190   0.0000000), wk =   0.0047393
        k(  202) = (   0.0428571   0.0428571   0.0000000), wk =   0.0047393
        k(  203) = (   0.0380952   0.0380952   0.0000000), wk =   0.0047393
        k(  204) = (   0.0333333   0.0333333   0.0000000), wk =   0.0047393
        k(  205) = (   0.0285714   0.0285714   0.0000000), wk =   0.0047393
        k(  206) = (   0.0238095   0.0238095   0.0000000), wk =   0.0047393
        k(  207) = (   0.0190476   0.0190476   0.0000000), wk =   0.0047393
        k(  208) = (   0.0142857   0.0142857   0.0000000), wk =   0.0047393
        k(  209) = (   0.0095238   0.0095238   0.0000000), wk =   0.0047393
        k(  210) = (   0.0047619   0.0047619   0.0000000), wk =   0.0047393
        k(  211) = (   0.0000000   0.0000000   0.0000000), wk =   0.0047393

     Dense  grid:   775399 G-vectors     FFT dimensions: (  72,  72, 360)

     Smooth grid:   196125 G-vectors     FFT dimensions: (  45,  45, 225)

     Dynamical RAM for                 wfc:       6.23 MB

     Dynamical RAM for     wfc (w. buffer):       6.23 MB

     Dynamical RAM for           str. fact:       0.99 MB

     Dynamical RAM for           local pot:       0.00 MB

     Dynamical RAM for          nlocal pot:       2.65 MB

     Dynamical RAM for                qrad:      11.12 MB

     Dynamical RAM for          rho,v,vnew:      13.04 MB

     Dynamical RAM for           G-vectors:       1.91 MB

     Dynamical RAM for          h,s,v(r/c):       1.83 MB

     Dynamical RAM for          <psi|beta>:       1.04 MB

     Dynamical RAM for                 psi:      12.46 MB

     Dynamical RAM for                hpsi:      12.46 MB

     Dynamical RAM for      wfcinit/wfcrot:      10.26 MB

     Estimated static dynamical RAM per process >      42.15 MB

     Estimated max dynamical RAM per process >      69.95 MB

     Estimated total dynamical RAM >       1.64 GB

     The potential is recalculated from file :
     tmp/Sb2Te3-uatsx-c5-soc-3.0.save/charge-density

     Starting wfcs are random

     Band Structure Calculation
     Davidson diagonalization with overlap

     Computing kpt #:     1  of   211
     total cpu time spent up to now is       21.6 secs

     Computing kpt #:     2  of   211
     total cpu time spent up to now is       38.2 secs

     Computing kpt #:     3  of   211
     total cpu time spent up to now is       53.3 secs

     Computing kpt #:     4  of   211
     total cpu time spent up to now is       68.8 secs

     Computing kpt #:     5  of   211
     total cpu time spent up to now is       85.4 secs

     Computing kpt #:     6  of   211
     total cpu time spent up to now is      100.5 secs

     Computing kpt #:     7  of   211
     total cpu time spent up to now is      115.2 secs

     Computing kpt #:     8  of   211
     total cpu time spent up to now is      129.6 secs

     Computing kpt #:     9  of   211
     total cpu time spent up to now is      144.3 secs

     Computing kpt #:    10  of   211
     total cpu time spent up to now is      157.9 secs

     Computing kpt #:    11  of   211
     total cpu time spent up to now is      171.4 secs

     Computing kpt #:    12  of   211
     total cpu time spent up to now is      184.8 secs

     Computing kpt #:    13  of   211
     total cpu time spent up to now is      198.3 secs

     Computing kpt #:    14  of   211
     total cpu time spent up to now is      212.0 secs

     Computing kpt #:    15  of   211
     total cpu time spent up to now is      226.6 secs

     Computing kpt #:    16  of   211
     total cpu time spent up to now is      241.6 secs

     Computing kpt #:    17  of   211
     total cpu time spent up to now is      257.7 secs

     Computing kpt #:    18  of   211
     total cpu time spent up to now is      272.6 secs

     Computing kpt #:    19  of   211
     total cpu time spent up to now is      288.8 secs

     Computing kpt #:    20  of   211
     total cpu time spent up to now is      305.0 secs

     Computing kpt #:    21  of   211
     total cpu time spent up to now is      321.3 secs

     Computing kpt #:    22  of   211
     total cpu time spent up to now is      336.5 secs

     Computing kpt #:    23  of   211
     total cpu time spent up to now is      351.5 secs

     Computing kpt #:    24  of   211
     total cpu time spent up to now is      366.8 secs

     Computing kpt #:    25  of   211
     total cpu time spent up to now is      383.5 secs

     Computing kpt #:    26  of   211
     total cpu time spent up to now is      398.9 secs

     Computing kpt #:    27  of   211
     total cpu time spent up to now is      414.2 secs

     Computing kpt #:    28  of   211
     total cpu time spent up to now is      429.3 secs

     Computing kpt #:    29  of   211
     total cpu time spent up to now is      444.4 secs

     Computing kpt #:    30  of   211
     total cpu time spent up to now is      459.8 secs

     Computing kpt #:    31  of   211
     total cpu time spent up to now is      476.2 secs

     Computing kpt #:    32  of   211
     total cpu time spent up to now is      492.5 secs

     Computing kpt #:    33  of   211
     total cpu time spent up to now is      508.8 secs

     Computing kpt #:    34  of   211
     total cpu time spent up to now is      524.0 secs

     Computing kpt #:    35  of   211
     total cpu time spent up to now is      539.1 secs

     Computing kpt #:    36  of   211
     total cpu time spent up to now is      554.0 secs

     Computing kpt #:    37  of   211
     total cpu time spent up to now is      568.9 secs

     Computing kpt #:    38  of   211
     total cpu time spent up to now is      584.0 secs

     Computing kpt #:    39  of   211
     total cpu time spent up to now is      600.1 secs

     Computing kpt #:    40  of   211
     total cpu time spent up to now is      615.0 secs

     Computing kpt #:    41  of   211
     total cpu time spent up to now is      631.1 secs

     Computing kpt #:    42  of   211
     total cpu time spent up to now is      645.8 secs

     Computing kpt #:    43  of   211
     total cpu time spent up to now is      660.7 secs

     Computing kpt #:    44  of   211
     total cpu time spent up to now is      675.3 secs

     Computing kpt #:    45  of   211
     total cpu time spent up to now is      689.9 secs

     Computing kpt #:    46  of   211
     total cpu time spent up to now is      704.3 secs

     Computing kpt #:    47  of   211
     total cpu time spent up to now is      718.8 secs

     Computing kpt #:    48  of   211
     total cpu time spent up to now is      732.4 secs

     Computing kpt #:    49  of   211
     total cpu time spent up to now is      746.1 secs

     Computing kpt #:    50  of   211
     total cpu time spent up to now is      759.8 secs

     Computing kpt #:    51  of   211
     total cpu time spent up to now is      773.6 secs

     Computing kpt #:    52  of   211
     total cpu time spent up to now is      787.2 secs

     Computing kpt #:    53  of   211
     total cpu time spent up to now is      800.8 secs

     Computing kpt #:    54  of   211
     total cpu time spent up to now is      815.2 secs

     Computing kpt #:    55  of   211
     total cpu time spent up to now is      829.9 secs

     Computing kpt #:    56  of   211
     total cpu time spent up to now is      844.6 secs

     Computing kpt #:    57  of   211
     total cpu time spent up to now is      859.3 secs

     Computing kpt #:    58  of   211
     total cpu time spent up to now is      874.0 secs

     Computing kpt #:    59  of   211
     total cpu time spent up to now is      888.7 secs

     Computing kpt #:    60  of   211
     total cpu time spent up to now is      903.3 secs

     Computing kpt #:    61  of   211
     total cpu time spent up to now is      918.0 secs

     Computing kpt #:    62  of   211
     total cpu time spent up to now is      932.8 secs

     Computing kpt #:    63  of   211
     total cpu time spent up to now is      949.1 secs

     Computing kpt #:    64  of   211
     total cpu time spent up to now is      965.0 secs

     Computing kpt #:    65  of   211
     total cpu time spent up to now is      980.3 secs

     Computing kpt #:    66  of   211
     total cpu time spent up to now is      995.6 secs

     Computing kpt #:    67  of   211
     total cpu time spent up to now is     1010.9 secs

     Computing kpt #:    68  of   211
     total cpu time spent up to now is     1025.9 secs

     Computing kpt #:    69  of   211
     total cpu time spent up to now is     1041.4 secs

     Computing kpt #:    70  of   211
     total cpu time spent up to now is     1056.4 secs

     Computing kpt #:    71  of   211
     total cpu time spent up to now is     1072.7 secs

     Computing kpt #:    72  of   211
     total cpu time spent up to now is     1088.1 secs

     Computing kpt #:    73  of   211
     total cpu time spent up to now is     1104.7 secs

     Computing kpt #:    74  of   211
     total cpu time spent up to now is     1120.3 secs

     Computing kpt #:    75  of   211
     total cpu time spent up to now is     1135.6 secs

     Computing kpt #:    76  of   211
     total cpu time spent up to now is     1151.0 secs

     Computing kpt #:    77  of   211
     total cpu time spent up to now is     1167.6 secs

     Computing kpt #:    78  of   211
     total cpu time spent up to now is     1184.3 secs

     Computing kpt #:    79  of   211
     total cpu time spent up to now is     1199.7 secs

     Computing kpt #:    80  of   211
     total cpu time spent up to now is     1216.1 secs

     Computing kpt #:    81  of   211
     total cpu time spent up to now is     1232.5 secs

     Computing kpt #:    82  of   211
     total cpu time spent up to now is     1247.9 secs

     Computing kpt #:    83  of   211
     total cpu time spent up to now is     1263.1 secs

     Computing kpt #:    84  of   211
     total cpu time spent up to now is     1278.3 secs

     Computing kpt #:    85  of   211
     total cpu time spent up to now is     1293.4 secs

     Computing kpt #:    86  of   211
     total cpu time spent up to now is     1309.1 secs

     Computing kpt #:    87  of   211
     total cpu time spent up to now is     1324.5 secs

     Computing kpt #:    88  of   211
     total cpu time spent up to now is     1340.2 secs

     Computing kpt #:    89  of   211
     total cpu time spent up to now is     1355.8 secs

     Computing kpt #:    90  of   211
     total cpu time spent up to now is     1372.5 secs

     Computing kpt #:    91  of   211
     total cpu time spent up to now is     1388.4 secs

     Computing kpt #:    92  of   211
     total cpu time spent up to now is     1405.2 secs

     Computing kpt #:    93  of   211
     total cpu time spent up to now is     1421.9 secs

     Computing kpt #:    94  of   211
     total cpu time spent up to now is     1437.9 secs

     Computing kpt #:    95  of   211
     total cpu time spent up to now is     1453.6 secs

     Computing kpt #:    96  of   211
     total cpu time spent up to now is     1469.3 secs

     Computing kpt #:    97  of   211
     total cpu time spent up to now is     1485.0 secs

     Computing kpt #:    98  of   211
     total cpu time spent up to now is     1501.6 secs

     Computing kpt #:    99  of   211
     total cpu time spent up to now is     1518.3 secs

     Computing kpt #:   100  of   211
     total cpu time spent up to now is     1535.1 secs

     Computing kpt #:   101  of   211
     total cpu time spent up to now is     1551.8 secs

     Computing kpt #:   102  of   211
     total cpu time spent up to now is     1568.4 secs

     Computing kpt #:   103  of   211
     total cpu time spent up to now is     1584.8 secs

     Computing kpt #:   104  of   211
     total cpu time spent up to now is     1601.4 secs

     Computing kpt #:   105  of   211
     total cpu time spent up to now is     1617.9 secs

     Computing kpt #:   106  of   211
     total cpu time spent up to now is     1634.0 secs

     Computing kpt #:   107  of   211
     total cpu time spent up to now is     1650.1 secs

     Computing kpt #:   108  of   211
     total cpu time spent up to now is     1666.5 secs

     Computing kpt #:   109  of   211
     total cpu time spent up to now is     1682.9 secs

     Computing kpt #:   110  of   211
     total cpu time spent up to now is     1698.9 secs

     Computing kpt #:   111  of   211
     total cpu time spent up to now is     1713.8 secs

     Computing kpt #:   112  of   211
     total cpu time spent up to now is     1728.9 secs

     Computing kpt #:   113  of   211
     total cpu time spent up to now is     1743.8 secs

     Computing kpt #:   114  of   211
     total cpu time spent up to now is     1758.6 secs

     Computing kpt #:   115  of   211
     total cpu time spent up to now is     1773.6 secs

     Computing kpt #:   116  of   211
     total cpu time spent up to now is     1788.8 secs

     Computing kpt #:   117  of   211
     total cpu time spent up to now is     1804.0 secs

     Computing kpt #:   118  of   211
     total cpu time spent up to now is     1819.4 secs

     Computing kpt #:   119  of   211
     total cpu time spent up to now is     1835.9 secs

     Computing kpt #:   120  of   211
     total cpu time spent up to now is     1852.8 secs

     Computing kpt #:   121  of   211
     total cpu time spent up to now is     1872.3 secs

     Computing kpt #:   122  of   211
     total cpu time spent up to now is     1888.9 secs

     Computing kpt #:   123  of   211
     total cpu time spent up to now is     1905.7 secs

     Computing kpt #:   124  of   211
     c_bands:  1 eigenvalues not converged
     total cpu time spent up to now is     1925.7 secs

     Computing kpt #:   125  of   211
     total cpu time spent up to now is     1943.6 secs

     Computing kpt #:   126  of   211
     total cpu time spent up to now is     1960.4 secs

     Computing kpt #:   127  of   211
     total cpu time spent up to now is     1977.1 secs

     Computing kpt #:   128  of   211
     total cpu time spent up to now is     1993.8 secs

     Computing kpt #:   129  of   211
     total cpu time spent up to now is     2010.4 secs

     Computing kpt #:   130  of   211
     total cpu time spent up to now is     2026.9 secs

     Computing kpt #:   131  of   211
     total cpu time spent up to now is     2043.3 secs

     Computing kpt #:   132  of   211
     total cpu time spent up to now is     2060.1 secs

     Computing kpt #:   133  of   211
     total cpu time spent up to now is     2076.9 secs

     Computing kpt #:   134  of   211
     total cpu time spent up to now is     2093.7 secs

     Computing kpt #:   135  of   211
     total cpu time spent up to now is     2110.6 secs

     Computing kpt #:   136  of   211
     total cpu time spent up to now is     2127.6 secs

     Computing kpt #:   137  of   211
     total cpu time spent up to now is     2144.8 secs

     Computing kpt #:   138  of   211
     total cpu time spent up to now is     2162.2 secs

     Computing kpt #:   139  of   211
     total cpu time spent up to now is     2179.0 secs

     Computing kpt #:   140  of   211
     total cpu time spent up to now is     2196.0 secs

     Computing kpt #:   141  of   211
     total cpu time spent up to now is     2212.7 secs

     Computing kpt #:   142  of   211
     total cpu time spent up to now is     2229.4 secs

     Computing kpt #:   143  of   211
     total cpu time spent up to now is     2246.2 secs

     Computing kpt #:   144  of   211
     total cpu time spent up to now is     2262.9 secs

     Computing kpt #:   145  of   211
     total cpu time spent up to now is     2279.8 secs

     Computing kpt #:   146  of   211
     total cpu time spent up to now is     2296.5 secs

     Computing kpt #:   147  of   211
     total cpu time spent up to now is     2312.6 secs

     Computing kpt #:   148  of   211
     total cpu time spent up to now is     2329.3 secs

     Computing kpt #:   149  of   211
     total cpu time spent up to now is     2346.4 secs

     Computing kpt #:   150  of   211
     total cpu time spent up to now is     2363.2 secs

     Computing kpt #:   151  of   211
     total cpu time spent up to now is     2379.9 secs

     Computing kpt #:   152  of   211
     total cpu time spent up to now is     2396.6 secs

     Computing kpt #:   153  of   211
     total cpu time spent up to now is     2413.2 secs

     Computing kpt #:   154  of   211
     total cpu time spent up to now is     2429.8 secs

     Computing kpt #:   155  of   211
     total cpu time spent up to now is     2446.5 secs

     Computing kpt #:   156  of   211
     total cpu time spent up to now is     2463.0 secs

     Computing kpt #:   157  of   211
     total cpu time spent up to now is     2478.7 secs

     Computing kpt #:   158  of   211
     total cpu time spent up to now is     2494.3 secs

     Computing kpt #:   159  of   211
     total cpu time spent up to now is     2510.1 secs

     Computing kpt #:   160  of   211
     total cpu time spent up to now is     2525.7 secs

     Computing kpt #:   161  of   211
     total cpu time spent up to now is     2542.3 secs

     Computing kpt #:   162  of   211
     total cpu time spent up to now is     2558.7 secs

     Computing kpt #:   163  of   211
     total cpu time spent up to now is     2573.6 secs

     Computing kpt #:   164  of   211
     total cpu time spent up to now is     2588.5 secs

     Computing kpt #:   165  of   211
     total cpu time spent up to now is     2603.6 secs

     Computing kpt #:   166  of   211
     total cpu time spent up to now is     2618.7 secs

     Computing kpt #:   167  of   211
     total cpu time spent up to now is     2635.2 secs

     Computing kpt #:   168  of   211
     total cpu time spent up to now is     2651.3 secs

     Computing kpt #:   169  of   211
     total cpu time spent up to now is     2666.5 secs

     Computing kpt #:   170  of   211
     total cpu time spent up to now is     2681.6 secs

     Computing kpt #:   171  of   211
     total cpu time spent up to now is     2696.0 secs

     Computing kpt #:   172  of   211
     total cpu time spent up to now is     2710.9 secs

     Computing kpt #:   173  of   211
     total cpu time spent up to now is     2725.7 secs

     Computing kpt #:   174  of   211
     total cpu time spent up to now is     2740.4 secs

     Computing kpt #:   175  of   211
     total cpu time spent up to now is     2755.0 secs

     Computing kpt #:   176  of   211
     total cpu time spent up to now is     2769.6 secs

     Computing kpt #:   177  of   211
     total cpu time spent up to now is     2784.6 secs

     Computing kpt #:   178  of   211
     total cpu time spent up to now is     2799.6 secs

     Computing kpt #:   179  of   211
     total cpu time spent up to now is     2814.7 secs

     Computing kpt #:   180  of   211
     total cpu time spent up to now is     2830.7 secs

     Computing kpt #:   181  of   211
     total cpu time spent up to now is     2850.0 secs

     Computing kpt #:   182  of   211
     total cpu time spent up to now is     2866.6 secs

     Computing kpt #:   183  of   211
     total cpu time spent up to now is     2883.1 secs

     Computing kpt #:   184  of   211
     total cpu time spent up to now is     2899.7 secs

     Computing kpt #:   185  of   211
     total cpu time spent up to now is     2916.2 secs

     Computing kpt #:   186  of   211
     total cpu time spent up to now is     2932.4 secs

     Computing kpt #:   187  of   211
     total cpu time spent up to now is     2948.4 secs

     Computing kpt #:   188  of   211
     total cpu time spent up to now is     2964.6 secs

     Computing kpt #:   189  of   211
     total cpu time spent up to now is     2979.8 secs

     Computing kpt #:   190  of   211
     total cpu time spent up to now is     2995.2 secs

     Computing kpt #:   191  of   211
     total cpu time spent up to now is     3010.8 secs

     Computing kpt #:   192  of   211
     total cpu time spent up to now is     3026.2 secs

     Computing kpt #:   193  of   211
     total cpu time spent up to now is     3042.7 secs

     Computing kpt #:   194  of   211
     total cpu time spent up to now is     3059.1 secs

     Computing kpt #:   195  of   211
     total cpu time spent up to now is     3074.5 secs

     Computing kpt #:   196  of   211
     total cpu time spent up to now is     3089.8 secs

     Computing kpt #:   197  of   211
     total cpu time spent up to now is     3104.9 secs

     Computing kpt #:   198  of   211
     total cpu time spent up to now is     3119.8 secs

     Computing kpt #:   199  of   211
     total cpu time spent up to now is     3135.1 secs

     Computing kpt #:   200  of   211
     total cpu time spent up to now is     3151.3 secs

     Computing kpt #:   201  of   211
     total cpu time spent up to now is     3166.7 secs

     Computing kpt #:   202  of   211
     total cpu time spent up to now is     3182.2 secs

     Computing kpt #:   203  of   211
     total cpu time spent up to now is     3198.5 secs

     Computing kpt #:   204  of   211
     total cpu time spent up to now is     3214.8 secs

     Computing kpt #:   205  of   211
     total cpu time spent up to now is     3231.0 secs

     Computing kpt #:   206  of   211
     total cpu time spent up to now is     3247.4 secs

     Computing kpt #:   207  of   211
     total cpu time spent up to now is     3263.9 secs

     Computing kpt #:   208  of   211
     total cpu time spent up to now is     3280.5 secs

     Computing kpt #:   209  of   211
     total cpu time spent up to now is     3297.1 secs

     Computing kpt #:   210  of   211
     total cpu time spent up to now is     3314.2 secs

     Computing kpt #:   211  of   211
     total cpu time spent up to now is     3331.0 secs

     ethr =  1.28E-10,  avg # of iterations = 59.1

     total cpu time spent up to now is     3331.0 secs

     End of band structure calculation

          k = 0.0000 0.0000 0.0000 ( 24437 PWs)   bands (ev):

   -35.5713 -35.5713 -35.5681 -35.5681 -35.5401 -35.5401 -35.5369 -35.5369
   -35.4599 -35.4599 -35.4278 -35.4278 -34.1124 -34.1124 -34.1092 -34.1092
   -34.0862 -34.0862 -34.0830 -34.0830 -34.0720 -34.0720 -34.0687 -34.0687
   -33.9979 -33.9979 -33.9818 -33.9818 -33.9559 -33.9559 -28.2086 -28.2086
   -28.2065 -28.2065 -28.2002 -28.2002 -28.1982 -28.1982 -26.9693 -26.9693
   -26.9672 -26.9672 -26.9604 -26.9604 -26.9583 -26.9583 -26.9579 -26.9579
   -26.9559 -26.9559 -10.6700 -10.6700 -10.1358 -10.1358  -9.0593  -9.0593
    -6.3150  -6.3150  -4.9455  -4.9455  -0.5702  -0.5702  -0.1258  -0.1258
     0.1542   0.1542   0.4106   0.4106   0.4770   0.4770   0.5827   0.5827
     0.8559   0.8559   1.1580   1.1580   1.3300   1.3300   1.9808   1.9808
     2.6325   2.6325   2.9927   2.9927   3.1929   3.1929   3.9226   3.9226
     4.1167   4.1167   6.1541   6.1541   6.3411   6.3411   6.9586   6.9586
     7.3846   7.3846   7.5388   7.5388   7.8110   7.8110   8.3301   8.3301
     8.5461   8.5461   8.6567   8.6567   8.7418   8.7418   9.1468   9.1468
     9.5026   9.5026   9.6540   9.6540   9.9797   9.9797  10.0520  10.0520
    10.4777  10.4777  10.9189  10.9189  11.3053  11.3053  11.4430  11.4430
    11.4474  11.4474  11.6564  11.6564  12.7797  12.7797  12.7982  12.7982
    13.7374  13.7374  14.0053  14.0053  14.1294  14.1294  14.1838  14.1838
    14.3734  14.3734  15.0015  15.0015  15.5672  15.5672  15.9093  15.9093
    15.9318  15.9318  16.0044  16.0044  16.1500  16.1500  16.2949  16.2949
    16.6106  16.6106  16.8908  16.8908  16.9136  16.9136  16.9548  16.9548
    17.2043  17.2043  17.2066  17.2066  17.2797  17.2797  17.2953  17.2953
    17.4943  17.4943  17.5006  17.5006  17.6019  17.6019  17.7476  17.7476
    17.8011  17.8011  18.0572  18.0572  18.8053  18.8053  18.8710  18.8710
    18.9588  18.9588  19.1699  19.1699  19.1705  19.1705  19.2570  19.2570

          k = 0.0071 0.0041 0.0000 ( 24448 PWs)   bands (ev):

   -35.5713 -35.5713 -35.5681 -35.5681 -35.5401 -35.5401 -35.5369 -35.5369
   -35.4599 -35.4599 -35.4278 -35.4278 -34.1124 -34.1124 -34.1092 -34.1092
   -34.0862 -34.0862 -34.0830 -34.0830 -34.0720 -34.0720 -34.0687 -34.0687
   -33.9979 -33.9979 -33.9818 -33.9818 -33.9559 -33.9559 -28.2086 -28.2086
   -28.2065 -28.2065 -28.2002 -28.2002 -28.1982 -28.1981 -26.9693 -26.9693
   -26.9672 -26.9672 -26.9604 -26.9604 -26.9583 -26.9583 -26.9579 -26.9579
   -26.9559 -26.9559 -10.6696 -10.6696 -10.1354 -10.1354  -9.0591  -9.0591
    -6.3150  -6.3150  -4.9463  -4.9463  -0.5710  -0.5710  -0.1321  -0.1320
     0.1551   0.1554   0.4057   0.4063   0.4656   0.4663   0.5923   0.5935
     0.8584   0.8586   1.1552   1.1554   1.3321   1.3323   1.9872   1.9873
     2.6316   2.6318   2.9864   2.9868   3.2000   3.2005   3.9246   3.9248
     4.1164   4.1164   6.1548   6.1548   6.3412   6.3412   6.9588   6.9588
     7.3822   7.3822   7.5386   7.5386   7.8112   7.8112   8.3329   8.3329
     8.5440   8.5442   8.6561   8.6564   8.7416   8.7418   9.1453   9.1454
     9.5089   9.5089   9.6561   9.6562   9.9778   9.9778  10.0542  10.0542
    10.4796  10.4796  10.9193  10.9193  11.2961  11.2965  11.3956  11.3962
    11.5003  11.5006  11.6637  11.6638  12.7771  12.7771  12.8009  12.8009
    13.7256  13.7256  14.0082  14.0085  14.1147  14.1151  14.2032  14.2033
    14.3770  14.3770  15.0036  15.0036  15.5458  15.5458  15.8796  15.8797
    15.9700  15.9703  16.0013  16.0015  16.1619  16.1619  16.2960  16.2960
    16.6101  16.6102  16.7914  16.7914  16.9258  16.9258  17.0123  17.0123
    17.1642  17.1643  17.1898  17.1898  17.2962  17.2962  17.3515  17.3515
    17.4709  17.4710  17.5195  17.5196  17.6064  17.6064  17.7620  17.7621
    17.8062  17.8062  18.0683  18.0683  18.7379  18.7380  18.8455  18.8455
    19.0016  19.0016  19.1391  19.1392  19.1975  19.1976  19.2641  19.2642

          k = 0.0143 0.0082 0.0000 ( 24433 PWs)   bands (ev):

   -35.5713 -35.5713 -35.5681 -35.5681 -35.5401 -35.5401 -35.5369 -35.5369
   -35.4599 -35.4599 -35.4278 -35.4278 -34.1124 -34.1124 -34.1092 -34.1092
   -34.0862 -34.0862 -34.0830 -34.0830 -34.0720 -34.0720 -34.0687 -34.0687
   -33.9979 -33.9979 -33.9818 -33.9818 -33.9559 -33.9559 -28.2086 -28.2086
   -28.2065 -28.2065 -28.2002 -28.2002 -28.1982 -28.1981 -26.9693 -26.9693
   -26.9672 -26.9672 -26.9604 -26.9604 -26.9583 -26.9583 -26.9579 -26.9579
   -26.9559 -26.9559 -10.6683 -10.6683 -10.1343 -10.1343  -9.0584  -9.0584
    -6.3153  -6.3153  -4.9488  -4.9488  -0.5734  -0.5733  -0.1504  -0.1500
     0.1576   0.1581   0.3878   0.3892   0.4463   0.4471   0.6123   0.6140
     0.8658   0.8662   1.1473   1.1476   1.3395   1.3398   2.0058   2.0061
     2.6289   2.6292   2.9710   2.9716   3.2192   3.2201   3.9307   3.9310
     4.1155   4.1156   6.1571   6.1571   6.3415   6.3416   6.9593   6.9593
     7.3749   7.3749   7.5382   7.5382   7.8118   7.8119   8.3411   8.3411
     8.5382   8.5386   8.6535   8.6542   8.7428   8.7430   9.1413   9.1414
     9.5269   9.5270   9.6626   9.6626   9.9722   9.9722  10.0610  10.0610
    10.4854  10.4854  10.9200  10.9201  11.2709  11.2715  11.3547  11.3554
    11.5588  11.5592  11.6843  11.6845  12.7714  12.7715  12.8070  12.8070
    13.6948  13.6948  14.0047  14.0051  14.1043  14.1048  14.2358  14.2360
    14.3886  14.3886  15.0082  15.0082  15.4947  15.4948  15.8458  15.8459
    15.9667  15.9668  16.0515  16.0516  16.1870  16.1871  16.3012  16.3012
    16.6025  16.6025  16.6942  16.6942  16.8507  16.8507  17.0859  17.0860
    17.1205  17.1206  17.1946  17.1947  17.3102  17.3102  17.3890  17.3890
    17.4949  17.4949  17.5426  17.5427  17.6150  17.6150  17.7964  17.7966
    17.8298  17.8300  18.0977  18.0977  18.6333  18.6333  18.7600  18.7600
    19.0263  19.0264  19.1461  19.1462  19.2228  19.2228  19.2595  19.2595

          k = 0.0214 0.0124 0.0000 ( 24433 PWs)   bands (ev):

   -35.5713 -35.5713 -35.5681 -35.5681 -35.5401 -35.5401 -35.5369 -35.5369
   -35.4599 -35.4599 -35.4278 -35.4278 -34.1124 -34.1124 -34.1092 -34.1092
   -34.0862 -34.0862 -34.0830 -34.0830 -34.0720 -34.0720 -34.0687 -34.0687
   -33.9979 -33.9979 -33.9818 -33.9818 -33.9559 -33.9559 -28.2086 -28.2086
   -28.2065 -28.2065 -28.2002 -28.2002 -28.1982 -28.1981 -26.9693 -26.9693
   -26.9672 -26.9672 -26.9604 -26.9604 -26.9584 -26.9583 -26.9579 -26.9579
   -26.9559 -26.9559 -10.6662 -10.6662 -10.1324 -10.1324  -9.0573  -9.0572
    -6.3157  -6.3157  -4.9528  -4.9528  -0.5774  -0.5773  -0.1787  -0.1783
     0.1600   0.1606   0.3543   0.3562   0.4330   0.4340   0.6314   0.6333
     0.8774   0.8780   1.1351   1.1356   1.3532   1.3536   2.0346   2.0350
     2.6243   2.6247   2.9522   2.9530   3.2453   3.2464   3.9405   3.9410
     4.1144   4.1145   6.1609   6.1609   6.3421   6.3422   6.9600   6.9600
     7.3628   7.3628   7.5376   7.5377   7.8133   7.8133   8.3540   8.3540
     8.5286   8.5290   8.6473   8.6481   8.7483   8.7486   9.1355   9.1356
     9.5543   9.5543   9.6730   9.6730   9.9639   9.9639  10.0721  10.0721
    10.4953  10.4953  10.9198  10.9199  11.2361  11.2367  11.3212  11.3219
    11.6188  11.6193  11.7154  11.7159  12.7644  12.7645  12.8147  12.8147
    13.6529  13.6529  13.9807  13.9810  14.1165  14.1169  14.2684  14.2685
    14.4100  14.4100  15.0091  15.0091  15.4371  15.4371  15.8096  15.8097
    15.9412  15.9413  16.1227  16.1228  16.2051  16.2052  16.3174  16.3175
    16.5494  16.5495  16.6560  16.6561  16.7502  16.7502  17.0670  17.0671
    17.0998  17.0998  17.2759  17.2760  17.2974  17.2974  17.3685  17.3686
    17.5594  17.5595  17.5828  17.5829  17.6461  17.6461  17.8451  17.8453
    17.8758  17.8760  18.1364  18.1365  18.5299  18.5299  18.6535  18.6535
    18.9781  18.9782  19.1834  19.1834  19.2094  19.2095  19.2967  19.2968

          k = 0.0286 0.0165 0.0000 ( 24425 PWs)   bands (ev):

   -35.5713 -35.5713 -35.5681 -35.5681 -35.5401 -35.5401 -35.5369 -35.5369
   -35.4599 -35.4599 -35.4278 -35.4278 -34.1124 -34.1124 -34.1092 -34.1092
   -34.0862 -34.0862 -34.0830 -34.0830 -34.0720 -34.0720 -34.0687 -34.0687
   -33.9979 -33.9979 -33.9818 -33.9818 -33.9559 -33.9559 -28.2086 -28.2086
   -28.2065 -28.2065 -28.2002 -28.2002 -28.1982 -28.1981 -26.9693 -26.9693
   -26.9672 -26.9672 -26.9604 -26.9604 -26.9584 -26.9583 -26.9579 -26.9579
   -26.9559 -26.9559 -10.6633 -10.6633 -10.1297 -10.1297  -9.0557  -9.0556
    -6.3163  -6.3163  -4.9585  -4.9585  -0.5830  -0.5829  -0.2153  -0.2147
     0.1604   0.1612   0.3118   0.3138   0.4241   0.4251   0.6452   0.6472
     0.8913   0.8921   1.1214   1.1221   1.3736   1.3741   2.0710   2.0715
     2.6178   2.6183   2.9348   2.9355   3.2743   3.2755   3.9536   3.9542
     4.1136   4.1137   6.1662   6.1663   6.3429   6.3430   6.9607   6.9607
     7.3464   7.3464   7.5372   7.5372   7.8159   7.8160   8.3706   8.3706
     8.5149   8.5154   8.6378   8.6387   8.7600   8.7603   9.1288   9.1288
     9.5875   9.5876   9.6869   9.6870   9.9543   9.9543  10.0876  10.0876
    10.5095  10.5096  10.9168  10.9169  11.1999  11.2004  11.2921  11.2927
    11.6787  11.6793  11.7547  11.7553  12.7565  12.7565  12.8236  12.8236
    13.6058  13.6059  13.9453  13.9455  14.1370  14.1374  14.3009  14.3010
    14.4410  14.4410  14.9959  14.9959  15.3930  15.3931  15.7703  15.7703
    15.9105  15.9105  16.1829  16.1831  16.2037  16.2039  16.3494  16.3494
    16.4726  16.4726  16.6369  16.6370  16.6740  16.6741  17.0144  17.0144
    17.0919  17.0919  17.2613  17.2614  17.3213  17.3214  17.4004  17.4004
    17.5690  17.5690  17.6374  17.6374  17.7402  17.7402  17.9104  17.9106
    17.9316  17.9318  18.1726  18.1726  18.4427  18.4428  18.5402  18.5403
    18.9182  18.9183  19.1383  19.1384  19.2215  19.2215  19.3208  19.3209

          k = 0.0357 0.0206 0.0000 ( 24431 PWs)   bands (ev):

   -35.5713 -35.5713 -35.5681 -35.5681 -35.5401 -35.5401 -35.5369 -35.5369
   -35.4599 -35.4599 -35.4278 -35.4278 -34.1124 -34.1124 -34.1092 -34.1092
   -34.0862 -34.0861 -34.0830 -34.0830 -34.0720 -34.0720 -34.0687 -34.0687
   -33.9979 -33.9979 -33.9818 -33.9818 -33.9559 -33.9559 -28.2086 -28.2086
   -28.2065 -28.2065 -28.2002 -28.2002 -28.1982 -28.1981 -26.9693 -26.9693
   -26.9672 -26.9672 -26.9604 -26.9604 -26.9584 -26.9583 -26.9579 -26.9579
   -26.9559 -26.9559 -10.6595 -10.6595 -10.1263 -10.1263  -9.0536  -9.0536
    -6.3171  -6.3171  -4.9658  -4.9658  -0.5903  -0.5902  -0.2584  -0.2577
     0.1575   0.1582   0.2659   0.2679   0.4160   0.4171   0.6523   0.6543
     0.9045   0.9054   1.1109   1.1117   1.3998   1.4004   2.1118   2.1124
     2.6099   2.6105   2.9216   2.9223   3.3039   3.3053   3.9691   3.9698
     4.1140   4.1141   6.1730   6.1730   6.3440   6.3440   6.9612   6.9613
     7.3263   7.3263   7.5371   7.5371   7.8201   7.8202   8.3891   8.3891
     8.4972   8.4978   8.6280   8.6288   8.7771   8.7774   9.1219   9.1219
     9.6226   9.6226   9.7039   9.7039   9.9457   9.9458  10.1076  10.1076
    10.5285  10.5285  10.9083  10.9084  11.1685  11.1689  11.2661  11.2665
    11.7371  11.7379  11.8005  11.8012  12.7476  12.7477  12.8338  12.8338
    13.5571  13.5572  13.9067  13.9068  14.1549  14.1551  14.3364  14.3364
    14.4782  14.4782  14.9595  14.9595  15.3762  15.3763  15.7293  15.7293
    15.8730  15.8730  16.1581  16.1582  16.2412  16.2414  16.3797  16.3799
    16.4221  16.4222  16.5423  16.5424  16.7017  16.7017  16.9651  16.9651
    17.0713  17.0713  17.2203  17.2204  17.2998  17.2998  17.4967  17.4967
    17.5609  17.5610  17.7140  17.7140  17.8397  17.8397  17.9751  17.9752
    18.0005  18.0006  18.1897  18.1898  18.3918  18.3919  18.4314  18.4315
    18.8571  18.8572  19.0893  19.0893  19.1970  19.1970  19.2967  19.2968

          k = 0.0429 0.0247 0.0000 ( 24429 PWs)   bands (ev):

   -35.5713 -35.5713 -35.5681 -35.5681 -35.5401 -35.5401 -35.5369 -35.5369
   -35.4599 -35.4599 -35.4278 -35.4278 -34.1124 -34.1124 -34.1092 -34.1092
   -34.0862 -34.0861 -34.0830 -34.0830 -34.0720 -34.0720 -34.0687 -34.0687
   -33.9979 -33.9979 -33.9818 -33.9818 -33.9559 -33.9559 -28.2086 -28.2086
   -28.2065 -28.2065 -28.2002 -28.2002 -28.1982 -28.1981 -26.9693 -26.9693
   -26.9672 -26.9672 -26.9604 -26.9604 -26.9584 -26.9583 -26.9579 -26.9579
   -26.9559 -26.9559 -10.6549 -10.6549 -10.1220 -10.1220  -9.0511  -9.0511
    -6.3181  -6.3181  -4.9747  -4.9747  -0.5995  -0.5994  -0.3065  -0.3058
     0.1497   0.1504   0.2199   0.2216   0.4073   0.4084   0.6524   0.6543
     0.9135   0.9145   1.1086   1.1095   1.4303   1.4310   2.1540   2.1547
     2.6023   2.6029   2.9145   2.9151   3.3329   3.3343   3.9853   3.9862
     4.1171   4.1173   6.1811   6.1812   6.3451   6.3452   6.9612   6.9613
     7.3033   7.3034   7.5373   7.5373   7.8262   7.8262   8.4065   8.4065
     8.4779   8.4785   8.6201   8.6209   8.7986   8.7988   9.1154   9.1154
     9.6543   9.6544   9.7235   9.7236   9.9416   9.9417  10.1322  10.1323
    10.5523  10.5524  10.8923  10.8925  11.1446  11.1450  11.2436  11.2439
    11.7931  11.7940  11.8516  11.8524  12.7378  12.7378  12.8452  12.8453
    13.5091  13.5092  13.8675  13.8677  14.1678  14.1680  14.3756  14.3756
    14.5167  14.5168  14.9022  14.9022  15.3869  15.3870  15.6880  15.6880
    15.8265  15.8265  16.0975  16.0976  16.2683  16.2684  16.3332  16.3332
    16.4483  16.4486  16.4854  16.4856  16.7427  16.7428  16.9251  16.9251
    17.0388  17.0388  17.1770  17.1770  17.2744  17.2744  17.5594  17.5595
    17.5935  17.5936  17.7986  17.7987  17.9165  17.9165  18.0015  18.0015
    18.1006  18.1007  18.2015  18.2015  18.3018  18.3019  18.4213  18.4213
    18.7968  18.7968  19.0403  19.0403  19.1583  19.1583  19.2528  19.2528

          k = 0.0500 0.0289 0.0000 ( 24421 PWs)   bands (ev):

   -35.5713 -35.5713 -35.5681 -35.5680 -35.5401 -35.5401 -35.5369 -35.5369
   -35.4599 -35.4599 -35.4278 -35.4278 -34.1124 -34.1124 -34.1092 -34.1092
   -34.0862 -34.0861 -34.0830 -34.0830 -34.0720 -34.0719 -34.0687 -34.0687
   -33.9979 -33.9979 -33.9818 -33.9818 -33.9559 -33.9559 -28.2086 -28.2086
   -28.2065 -28.2065 -28.2002 -28.2002 -28.1982 -28.1981 -26.9693 -26.9693
   -26.9672 -26.9672 -26.9605 -26.9604 -26.9584 -26.9583 -26.9579 -26.9579
   -26.9559 -26.9559 -10.6494 -10.6494 -10.1171 -10.1171  -9.0482  -9.0482
    -6.3193  -6.3193  -4.9852  -4.9852  -0.6107  -0.6105  -0.3586  -0.3578
     0.1338   0.1347   0.1780   0.1790   0.3970   0.3981   0.6453   0.6470
     0.9173   0.9182   1.1175   1.1184   1.4630   1.4638   2.1944   2.1951
     2.5974   2.5980   2.9140   2.9144   3.3604   3.3618   4.0003   4.0012
     4.1250   4.1252   6.1907   6.1907   6.3464   6.3465   6.9601   6.9602
     7.2788   7.2788   7.5378   7.5379   7.8341   7.8342   8.4123   8.4124
     8.4676   8.4680   8.6153   8.6159   8.8233   8.8234   9.1098   9.1099
     9.6765   9.6766   9.7461   9.7462   9.9466   9.9467  10.1614  10.1614
    10.5812  10.5813  10.8688  10.8690  11.1283  11.1286  11.2259  11.2262
    11.8464  11.8473  11.9063  11.9072  12.7271  12.7271  12.8581  12.8581
    13.4634  13.4634  13.8291  13.8292  14.1772  14.1773  14.4161  14.4163
    14.5494  14.5495  14.8384  14.8384  15.4145  15.4145  15.6466  15.6467
    15.7699  15.7699  16.0287  16.0287  16.2295  16.2295  16.2962  16.2962
    16.4601  16.4603  16.5058  16.5060  16.7763  16.7764  16.9101  16.9101
    16.9990  16.9990  17.1352  17.1352  17.2444  17.2444  17.5753  17.5753
    17.6771  17.6771  17.8704  17.8705  17.9271  17.9271  18.0467  18.0467
    18.1872  18.1873  18.2161  18.2161  18.2520  18.2521  18.4693  18.4693
    18.7381  18.7381  18.9932  18.9932  19.1148  19.1149  19.2042  19.2043

          k = 0.0571 0.0330 0.0000 ( 24432 PWs)   bands (ev):

   -35.5713 -35.5713 -35.5680 -35.5680 -35.5401 -35.5401 -35.5369 -35.5369
   -35.4599 -35.4599 -35.4278 -35.4278 -34.1124 -34.1124 -34.1092 -34.1092
   -34.0862 -34.0861 -34.0830 -34.0830 -34.0720 -34.0719 -34.0687 -34.0687
   -33.9979 -33.9979 -33.9818 -33.9818 -33.9559 -33.9559 -28.2086 -28.2086
   -28.2065 -28.2065 -28.2002 -28.2002 -28.1982 -28.1981 -26.9693 -26.9692
   -26.9672 -26.9672 -26.9605 -26.9604 -26.9584 -26.9583 -26.9579 -26.9579
   -26.9559 -26.9559 -10.6431 -10.6431 -10.1114 -10.1114  -9.0448  -9.0448
    -6.3208  -6.3208  -4.9973  -4.9973  -0.6243  -0.6241  -0.4135  -0.4126
     0.1020   0.1038   0.1481   0.1488   0.3845   0.3856   0.6314   0.6329
     0.9177   0.9186   1.1364   1.1372   1.4960   1.4968   2.2296   2.2304
     2.5990   2.5995   2.9199   2.9202   3.3862   3.3877   4.0118   4.0129
     4.1395   4.1399   6.2015   6.2016   6.3477   6.3478   6.9572   6.9573
     7.2541   7.2541   7.5387   7.5388   7.8441   7.8441   8.3956   8.3958
     8.4781   8.4783   8.6132   8.6138   8.8506   8.8507   9.1055   9.1056
     9.6848   9.6849   9.7717   9.7718   9.9641   9.9642  10.1946  10.1947
    10.6152  10.6154  10.8396  10.8398  11.1169  11.1171  11.2144  11.2146
    11.8979  11.8987  11.9626  11.9633  12.7156  12.7156  12.8723  12.8723
    13.4213  13.4213  13.7918  13.7919  14.1846  14.1848  14.4530  14.4532
    14.5631  14.5633  14.7914  14.7914  15.4448  15.4449  15.6044  15.6045
    15.7071  15.7071  15.9641  15.9641  16.1326  16.1326  16.3015  16.3016
    16.4646  16.4647  16.5464  16.5465  16.7793  16.7794  16.9290  16.9290
    16.9651  16.9652  17.1001  17.1001  17.2106  17.2106  17.5929  17.5930
    17.7440  17.7440  17.8507  17.8507  17.9714  17.9715  18.0965  18.0966
    18.1252  18.1253  18.3215  18.3215  18.3371  18.3371  18.5310  18.5311
    18.6828  18.6828  18.9496  18.9497  19.0711  19.0712  19.1559  19.1559

          k = 0.0643 0.0371 0.0000 ( 24430 PWs)   bands (ev):

   -35.5713 -35.5713 -35.5680 -35.5680 -35.5401 -35.5401 -35.5369 -35.5369
   -35.4599 -35.4599 -35.4278 -35.4278 -34.1124 -34.1124 -34.1092 -34.1092
   -34.0862 -34.0861 -34.0830 -34.0830 -34.0720 -34.0719 -34.0687 -34.0687
   -33.9979 -33.9979 -33.9818 -33.9818 -33.9559 -33.9559 -28.2086 -28.2086
   -28.2065 -28.2065 -28.2002 -28.2002 -28.1982 -28.1981 -26.9692 -26.9692
   -26.9672 -26.9671 -26.9605 -26.9604 -26.9584 -26.9583 -26.9579 -26.9579
   -26.9559 -26.9559 -10.6360 -10.6360 -10.1049 -10.1049  -9.0410  -9.0410
    -6.3224  -6.3224  -5.0110  -5.0110  -0.6410  -0.6408  -0.4698  -0.4687
     0.0583   0.0604   0.1274   0.1284   0.3690   0.3701   0.6118   0.6130
     0.9179   0.9187   1.1624   1.1632   1.5271   1.5277   2.2575   2.2582
     2.6101   2.6106   2.9319   2.9320   3.4104   3.4118   4.0193   4.0205
     4.1615   4.1619   6.2136   6.2137   6.3490   6.3491   6.9517   6.9517
     7.2309   7.2309   7.5399   7.5400   7.8561   7.8561   8.3688   8.3691
     8.4979   8.4981   8.6133   8.6138   8.8799   8.8800   9.1031   9.1031
     9.6801   9.6802   9.7989   9.7990   9.9941   9.9942  10.2312  10.2313
    10.6541  10.6543  10.8079  10.8082  11.1077  11.1079  11.2097  11.2098
    11.9480  11.9487  12.0182  12.0189  12.7038  12.7039  12.8877  12.8878
    13.3840  13.3841  13.7563  13.7563  14.1898  14.1899  14.4703  14.4706
    14.5540  14.5543  14.7850  14.7850  15.4544  15.4546  15.5627  15.5629
    15.6513  15.6513  15.9087  15.9088  16.0399  16.0399  16.3061  16.3061
    16.4717  16.4718  16.5722  16.5723  16.7728  16.7729  16.9022  16.9023
    16.9854  16.9855  17.0823  17.0824  17.1818  17.1818  17.5824  17.5825
    17.7712  17.7712  17.8530  17.8531  17.9433  17.9433  18.1246  18.1247
    18.1982  18.1982  18.4122  18.4123  18.4455  18.4456  18.5915  18.5916
    18.6402  18.6402  18.9120  18.9120  19.0310  19.0311  19.1113  19.1114

          k = 0.0714 0.0412 0.0000 ( 24441 PWs)   bands (ev):

   -35.5713 -35.5712 -35.5680 -35.5680 -35.5401 -35.5401 -35.5369 -35.5369
   -35.4599 -35.4599 -35.4278 -35.4278 -34.1124 -34.1124 -34.1092 -34.1092
   -34.0862 -34.0861 -34.0830 -34.0830 -34.0720 -34.0719 -34.0687 -34.0687
   -33.9979 -33.9979 -33.9818 -33.9818 -33.9559 -33.9559 -28.2086 -28.2086
   -28.2065 -28.2065 -28.2002 -28.2002 -28.1982 -28.1981 -26.9692 -26.9692
[...]
   -35.4599 -35.4599 -35.4278 -35.4278 -34.1124 -34.1124 -34.1092 -34.1092
   -34.0862 -34.0861 -34.0830 -34.0830 -34.0720 -34.0719 -34.0687 -34.0687
   -33.9979 -33.9979 -33.9818 -33.9818 -33.9559 -33.9559 -28.2086 -28.2086
   -28.2065 -28.2065 -28.2003 -28.2002 -28.1982 -28.1981 -26.9692 -26.9692
   -26.9671 -26.9671 -26.9605 -26.9604 -26.9584 -26.9583 -26.9580 -26.9579
   -26.9559 -26.9559 -10.6332 -10.6332 -10.1021 -10.1021  -9.0390  -9.0390
    -6.3215  -6.3215  -5.0112  -5.0111  -0.6384  -0.6381  -0.4482  -0.4468
    -0.0009  -0.0003   0.1758   0.1771   0.3289   0.3298   0.5749   0.5762
     0.9168   0.9175   1.1445   1.1451   1.5349   1.5359   2.2433   2.2443
     2.6466   2.6472   2.9162   2.9165   3.4125   3.4136   4.0149   4.0157
     4.1950   4.1952   6.2184   6.2185   6.3536   6.3537   6.9565   6.9565
     7.2795   7.2796   7.5361   7.5361   7.7485   7.7486   8.4219   8.4223
     8.5117   8.5118   8.5923   8.5927   8.8311   8.8312   9.1618   9.1619
     9.6822   9.6826   9.7083   9.7087  10.0869  10.0871  10.2657  10.2657
    10.6763  10.6764  10.7853  10.7855  11.0365  11.0366  11.3181  11.3182
    11.8841  11.8843  12.0682  12.0685  12.7396  12.7396  12.9306  12.9306
    13.3632  13.3632  13.6702  13.6703  14.2175  14.2176  14.3564  14.3564
    14.6820  14.6820  14.8517  14.8517  15.2600  15.2601  15.6731  15.6731
    15.8052  15.8053  15.9337  15.9338  16.1670  16.1670  16.2105  16.2105
    16.4234  16.4235  16.4466  16.4466  16.6305  16.6305  16.7022  16.7022
    17.0792  17.0792  17.2363  17.2363  17.3759  17.3759  17.4591  17.4592
    17.5475  17.5475  17.7688  17.7689  17.9888  17.9888  18.0582  18.0583
    18.1961  18.1961  18.3514  18.3514  18.4942  18.4943  18.6003  18.6004
    18.7606  18.7607  19.0171  19.0171  19.2378  19.2379  19.3500  19.3501

          k = 0.0333 0.0589 0.0000 ( 24438 PWs)   bands (ev):

   -35.5713 -35.5713 -35.5680 -35.5680 -35.5401 -35.5401 -35.5369 -35.5369
   -35.4599 -35.4599 -35.4278 -35.4278 -34.1124 -34.1124 -34.1092 -34.1092
   -34.0862 -34.0861 -34.0830 -34.0830 -34.0720 -34.0719 -34.0687 -34.0687
   -33.9979 -33.9979 -33.9818 -33.9818 -33.9559 -33.9559 -28.2086 -28.2086
   -28.2065 -28.2065 -28.2002 -28.2002 -28.1982 -28.1981 -26.9692 -26.9692
   -26.9672 -26.9671 -26.9604 -26.9604 -26.9584 -26.9583 -26.9580 -26.9579
   -26.9559 -26.9559 -10.6418 -10.6418 -10.1100 -10.1100  -9.0437  -9.0437
    -6.3199  -6.3198  -4.9958  -4.9958  -0.6207  -0.6205  -0.3886  -0.3873
     0.0584   0.0589   0.1971   0.1982   0.3467   0.3477   0.5981   0.5997
     0.9286   0.9294   1.1130   1.1137   1.5029   1.5039   2.2053   2.2062
     2.6442   2.6447   2.8979   2.8983   3.3821   3.3832   4.0095   4.0102
     4.1629   4.1631   6.2039   6.2039   6.3508   6.3509   6.9597   6.9597
     7.3056   7.3057   7.5373   7.5374   7.7432   7.7433   8.4356   8.4358
     8.5104   8.5109   8.5873   8.5880   8.8075   8.8077   9.1498   9.1499
     9.6659   9.6661   9.7081   9.7083  10.0369  10.0370  10.2216  10.2216
    10.6491  10.6492  10.7991  10.7993  11.0499  11.0499  11.3262  11.3263
    11.8184  11.8187  12.0113  12.0116  12.7416  12.7416  12.9044  12.9044
    13.4189  13.4189  13.7237  13.7238  14.2036  14.2036  14.3244  14.3245
    14.6744  14.6745  14.8833  14.8834  15.3091  15.3092  15.6636  15.6636
    15.8660  15.8662  15.9677  15.9679  16.2272  16.2273  16.2555  16.2555
    16.4344  16.4345  16.4507  16.4507  16.6844  16.6844  16.7500  16.7500
    17.0220  17.0220  17.2297  17.2297  17.3486  17.3487  17.4214  17.4214
    17.5378  17.5378  17.7993  17.7993  17.9427  17.9427  18.0758  18.0759
    18.1930  18.1930  18.2871  18.2871  18.5354  18.5354  18.6093  18.6094
    18.7240  18.7240  18.8910  18.8911  19.2264  19.2264  19.3332  19.3332

          k = 0.0286 0.0505 0.0000 ( 24434 PWs)   bands (ev):

   -35.5713 -35.5713 -35.5681 -35.5680 -35.5401 -35.5401 -35.5369 -35.5369
   -35.4599 -35.4599 -35.4278 -35.4278 -34.1124 -34.1124 -34.1092 -34.1092
   -34.0862 -34.0861 -34.0830 -34.0830 -34.0720 -34.0719 -34.0687 -34.0687
   -33.9979 -33.9979 -33.9818 -33.9818 -33.9559 -33.9559 -28.2086 -28.2086
   -28.2065 -28.2065 -28.2002 -28.2002 -28.1982 -28.1981 -26.9693 -26.9693
   -26.9672 -26.9672 -26.9604 -26.9604 -26.9584 -26.9583 -26.9580 -26.9579
   -26.9559 -26.9559 -10.6493 -10.6493 -10.1168 -10.1168  -9.0478  -9.0478
    -6.3185  -6.3185  -4.9825  -4.9825  -0.6065  -0.6063  -0.3310  -0.3299
     0.1096   0.1101   0.2184   0.2195   0.3652   0.3663   0.6172   0.6190
     0.9316   0.9325   1.0951   1.0959   1.4661   1.4670   2.1658   2.1667
     2.6422   2.6427   2.8908   2.8914   3.3521   3.3532   3.9991   3.9996
     4.1395   4.1396   6.1910   6.1911   6.3483   6.3484   6.9612   6.9612
     7.3287   7.3287   7.5380   7.5381   7.7453   7.7454   8.4378   8.4378
     8.5054   8.5061   8.5974   8.5982   8.7851   8.7852   9.1418   9.1419
     9.6389   9.6390   9.7108   9.7109  10.0001  10.0002  10.1802  10.1803
    10.6087  10.6087  10.8292  10.8294  11.0734  11.0735  11.3348  11.3349
    11.7545  11.7548  11.9510  11.9513  12.7460  12.7461  12.8805  12.8805
    13.4734  13.4734  13.7858  13.7858  14.1828  14.1829  14.2926  14.2926
    14.6346  14.6346  14.9384  14.9384  15.3475  15.3476  15.6612  15.6612
    15.9076  15.9078  16.0138  16.0140  16.2542  16.2543  16.3071  16.3071
    16.4374  16.4375  16.4724  16.4725  16.7484  16.7485  16.7940  16.7940
    17.0106  17.0106  17.2256  17.2256  17.3200  17.3201  17.3831  17.3832
    17.5276  17.5276  17.7677  17.7677  17.8506  17.8507  18.0890  18.0891
    18.1846  18.1846  18.3025  18.3025  18.4731  18.4731  18.6284  18.6285
    18.7707  18.7707  18.8370  18.8370  19.2217  19.2217  19.3142  19.3143

          k = 0.0238 0.0421 0.0000 ( 24432 PWs)   bands (ev):

   -35.5713 -35.5713 -35.5681 -35.5681 -35.5401 -35.5401 -35.5369 -35.5369
   -35.4599 -35.4599 -35.4278 -35.4278 -34.1124 -34.1124 -34.1092 -34.1092
   -34.0862 -34.0861 -34.0830 -34.0830 -34.0720 -34.0719 -34.0687 -34.0687
   -33.9979 -33.9979 -33.9818 -33.9818 -33.9559 -33.9559 -28.2086 -28.2086
   -28.2065 -28.2065 -28.2002 -28.2002 -28.1982 -28.1981 -26.9693 -26.9693
   -26.9672 -26.9672 -26.9604 -26.9604 -26.9584 -26.9583 -26.9580 -26.9579
   -26.9559 -26.9559 -10.6556 -10.6556 -10.1226 -10.1226  -9.0513  -9.0513
    -6.3174  -6.3174  -4.9712  -4.9712  -0.5950  -0.5948  -0.2773  -0.2763
     0.1441   0.1447   0.2491   0.2505   0.3831   0.3843   0.6297   0.6318
     0.9225   0.9233   1.0950   1.0957   1.4280   1.4289   2.1246   2.1255
     2.6401   2.6405   2.8958   2.8965   3.3214   3.3224   3.9835   3.9839
     4.1255   4.1256   6.1799   6.1800   6.3462   6.3462   6.9614   6.9615
     7.3477   7.3478   7.5382   7.5383   7.7539   7.7540   8.4222   8.4223
     8.5104   8.5111   8.6134   8.6142   8.7658   8.7660   9.1378   9.1379
     9.6091   9.6092   9.7061   9.7062   9.9786   9.9787  10.1433  10.1433
    10.5698  10.5698  10.8582  10.8583  11.1080  11.1081  11.3443  11.3446
    11.6931  11.6934  11.8885  11.8888  12.7517  12.7518  12.8593  12.8593
    13.5276  13.5276  13.8531  13.8532  14.1571  14.1572  14.2636  14.2636
    14.5801  14.5801  14.9939  14.9939  15.3670  15.3671  15.6956  15.6956
    15.9147  15.9148  16.0725  16.0726  16.2382  16.2383  16.3431  16.3431
    16.4451  16.4451  16.5422  16.5422  16.7568  16.7568  16.8598  16.8598
    17.0622  17.0622  17.2245  17.2245  17.2932  17.2932  17.3460  17.3461
    17.5181  17.5181  17.7071  17.7072  17.7420  17.7421  18.0320  18.0320
    18.1803  18.1803  18.3680  18.3680  18.4207  18.4207  18.5929  18.5930
    18.7886  18.7887  18.9431  18.9431  19.2227  19.2227  19.2895  19.2895

          k = 0.0190 0.0337 0.0000 ( 24442 PWs)   bands (ev):

   -35.5713 -35.5713 -35.5681 -35.5681 -35.5401 -35.5401 -35.5369 -35.5369
   -35.4599 -35.4599 -35.4278 -35.4278 -34.1124 -34.1124 -34.1092 -34.1092
   -34.0862 -34.0862 -34.0830 -34.0830 -34.0720 -34.0720 -34.0687 -34.0687
   -33.9979 -33.9979 -33.9818 -33.9818 -33.9559 -33.9559 -28.2086 -28.2086
   -28.2065 -28.2065 -28.2002 -28.2002 -28.1982 -28.1981 -26.9693 -26.9693
   -26.9672 -26.9672 -26.9604 -26.9604 -26.9584 -26.9583 -26.9580 -26.9579
   -26.9559 -26.9559 -10.6608 -10.6608 -10.1274 -10.1274  -9.0542  -9.0542
    -6.3165  -6.3165  -4.9620  -4.9620  -0.5858  -0.5858  -0.2287  -0.2279
     0.1587   0.1593   0.2930   0.2946   0.3999   0.4012   0.6337   0.6358
     0.9048   0.9055   1.1087   1.1093   1.3924   1.3932   2.0829   2.0836
     2.6378   2.6382   2.9115   2.9123   3.2895   3.2904   3.9653   3.9657
     4.1188   4.1189   6.1707   6.1708   6.3444   6.3444   6.9610   6.9610
     7.3625   7.3625   7.5382   7.5383   7.7672   7.7673   8.3974   8.3974
     8.5212   8.5219   8.6296   8.6305   8.7513   8.7516   9.1372   9.1373
     9.5784   9.5785   9.6944   9.6945   9.9705   9.9706  10.1117  10.1118
    10.5367  10.5367  10.8813  10.8814  11.1522  11.1524  11.3556  11.3559
    11.6350  11.6353  11.8256  11.8258  12.7580  12.7580  12.8409  12.8409
    13.5818  13.5818  13.9221  13.9222  14.1269  14.1271  14.2391  14.2392
    14.5225  14.5225  15.0289  15.0289  15.3881  15.3882  15.7581  15.7582
    15.9123  15.9124  16.1141  16.1142  16.1871  16.1872  16.3636  16.3636
    16.4771  16.4771  16.6436  16.6436  16.7213  16.7213  16.9610  16.9610
    17.1140  17.1141  17.2207  17.2208  17.2915  17.2916  17.3149  17.3150
    17.5081  17.5081  17.6302  17.6303  17.6473  17.6474  17.9400  17.9400
    18.1341  18.1341  18.3428  18.3428  18.5043  18.5043  18.5446  18.5446
    18.8843  18.8843  19.0407  19.0407  19.2229  19.2229  19.2639  19.2640

          k = 0.0143 0.0252 0.0000 ( 24432 PWs)   bands (ev):

   -35.5713 -35.5713 -35.5681 -35.5681 -35.5401 -35.5401 -35.5369 -35.5369
   -35.4599 -35.4599 -35.4278 -35.4278 -34.1124 -34.1124 -34.1092 -34.1092
   -34.0862 -34.0862 -34.0830 -34.0830 -34.0720 -34.0720 -34.0687 -34.0687
   -33.9979 -33.9979 -33.9818 -33.9818 -33.9559 -33.9559 -28.2086 -28.2086
   -28.2065 -28.2065 -28.2002 -28.2002 -28.1982 -28.1981 -26.9693 -26.9693
   -26.9672 -26.9672 -26.9604 -26.9604 -26.9584 -26.9583 -26.9580 -26.9579
   -26.9559 -26.9559 -10.6648 -10.6648 -10.1311 -10.1311  -9.0564  -9.0564
    -6.3158  -6.3158  -4.9548  -4.9548  -0.5789  -0.5789  -0.1871  -0.1864
     0.1613   0.1618   0.3414   0.3431   0.4161   0.4173   0.6279   0.6300
     0.8855   0.8860   1.1276   1.1281   1.3632   1.3639   2.0436   2.0442
     2.6357   2.6360   2.9348   2.9356   3.2571   3.2579   3.9481   3.9483
     4.1165   4.1166   6.1635   6.1635   6.3429   6.3429   6.9602   6.9602
     7.3729   7.3730   7.5383   7.5383   7.7826   7.7826   8.3717   8.3718
     8.5317   8.5322   8.6429   8.6437   8.7429   8.7432   9.1393   9.1394
     9.5492   9.5493   9.6798   9.6799   9.9708   9.9709  10.0863  10.0864
    10.5107  10.5108  10.8983  10.8983  11.2021  11.2024  11.3696  11.3701
    11.5809  11.5811  11.7649  11.7652  12.7643  12.7644  12.8253  12.8253
    13.6351  13.6351  13.9876  13.9878  14.0940  14.0944  14.2197  14.2198
    14.4680  14.4680  15.0346  15.0346  15.4307  15.4308  15.8291  15.8293
    15.9115  15.9117  16.1079  16.1081  16.1477  16.1479  16.3524  16.3525
    16.5508  16.5509  16.6877  16.6878  16.7556  16.7556  17.0608  17.0609
    17.1204  17.1205  17.2037  17.2037  17.2655  17.2655  17.3708  17.3708
    17.4937  17.4937  17.5518  17.5518  17.5699  17.5699  17.8674  17.8675
    18.0237  18.0237  18.2828  18.2828  18.5351  18.5351  18.6587  18.6587
    18.9808  18.9809  19.1088  19.1089  19.1771  19.1772  19.2831  19.2831

          k = 0.0095 0.0168 0.0000 ( 24427 PWs)   bands (ev):

   -35.5713 -35.5713 -35.5681 -35.5681 -35.5401 -35.5401 -35.5369 -35.5369
   -35.4599 -35.4599 -35.4278 -35.4278 -34.1124 -34.1124 -34.1092 -34.1092
   -34.0862 -34.0862 -34.0830 -34.0830 -34.0720 -34.0720 -34.0687 -34.0687
   -33.9979 -33.9979 -33.9818 -33.9818 -33.9559 -33.9559 -28.2086 -28.2086
   -28.2065 -28.2065 -28.2002 -28.2002 -28.1982 -28.1981 -26.9693 -26.9693
   -26.9672 -26.9672 -26.9604 -26.9604 -26.9583 -26.9583 -26.9580 -26.9579
   -26.9559 -26.9559 -10.6677 -10.6677 -10.1337 -10.1337  -9.0580  -9.0580
    -6.3153  -6.3153  -4.9496  -4.9496  -0.5741  -0.5740  -0.1544  -0.1539
     0.1588   0.1592   0.3825   0.3839   0.4353   0.4364   0.6130   0.6148
     0.8695   0.8699   1.1443   1.1446   1.3432   1.3437   2.0107   2.0111
     2.6340   2.6342   2.9610   2.9617   3.2264   3.2271   3.9343   3.9345
     4.1162   4.1163   6.1583   6.1583   6.3419   6.3419   6.9594   6.9594
     7.3797   7.3797   7.5385   7.5385   7.7970   7.7970   8.3499   8.3499
     8.5396   8.5400   8.6514   8.6520   8.7403   8.7406   9.1426   9.1427
     9.5248   9.5248   9.6664   9.6664   9.9746   9.9746  10.0676  10.0676
    10.4923  10.4923  10.9099  10.9099  11.2513  11.2516  11.3875  11.3881
    11.5311  11.5313  11.7110  11.7112  12.7707  12.7707  12.8124  12.8124
    13.6842  13.6843  14.0310  14.0315  14.0755  14.0763  14.2043  14.2045
    14.4210  14.4210  15.0220  15.0220  15.4895  15.4895  15.8811  15.8814
    15.9293  15.9296  16.0397  16.0398  16.1529  16.1529  16.3283  16.3283
    16.6110  16.6110  16.7035  16.7035  16.8557  16.8558  17.0777  17.0778
    17.1416  17.1417  17.1998  17.1998  17.2388  17.2388  17.4485  17.4485
    17.4641  17.4642  17.4860  17.4860  17.5343  17.5343  17.8193  17.8194
    17.9093  17.9094  18.1809  18.1809  18.6302  18.6302  18.7690  18.7690
    19.0529  19.0531  19.1089  19.1091  19.1466  19.1466  19.2983  19.2983

          k = 0.0048 0.0084 0.0000 ( 24431 PWs)   bands (ev):

   -35.5713 -35.5713 -35.5681 -35.5681 -35.5401 -35.5401 -35.5369 -35.5369
   -35.4599 -35.4599 -35.4278 -35.4278 -34.1124 -34.1124 -34.1092 -34.1092
   -34.0862 -34.0862 -34.0830 -34.0830 -34.0720 -34.0720 -34.0687 -34.0687
   -33.9979 -33.9979 -33.9818 -33.9818 -33.9559 -33.9559 -28.2086 -28.2086
   -28.2065 -28.2065 -28.2002 -28.2002 -28.1982 -28.1981 -26.9693 -26.9693
   -26.9672 -26.9672 -26.9604 -26.9604 -26.9583 -26.9583 -26.9579 -26.9579
   -26.9559 -26.9559 -10.6694 -10.6694 -10.1353 -10.1353  -9.0590  -9.0590
    -6.3151  -6.3151  -4.9466  -4.9466  -0.5712  -0.5711  -0.1332  -0.1330
     0.1555   0.1558   0.4047   0.4053   0.4616   0.4623   0.5933   0.5946
     0.8593   0.8595   1.1546   1.1548   1.3328   1.3331   1.9886   1.9888
     2.6329   2.6330   2.9833   2.9837   3.2024   3.2028   3.9256   3.9257
     4.1165   4.1165   6.1551   6.1551   6.3413   6.3413   6.9588   6.9588
     7.3834   7.3835   7.5387   7.5387   7.8073   7.8073   8.3353   8.3353
     8.5444   8.5446   8.6555   8.6558   8.7411   8.7412   9.1456   9.1457
     9.5084   9.5084   9.6572   9.6572   9.9783   9.9783  10.0559  10.0559
    10.4814  10.4814  10.9167  10.9167  11.2899  11.2903  11.4118  11.4124
    11.4857  11.4860  11.6714  11.6715  12.7766  12.7766  12.8026  12.8026
    13.7222  13.7222  14.0164  14.0166  14.1089  14.1092  14.1914  14.1916
    14.3867  14.3867  15.0074  15.0074  15.5438  15.5438  15.8971  15.8973
    15.9583  15.9586  15.9912  15.9914  16.1524  16.1525  16.3049  16.3049
    16.6136  16.6136  16.7944  16.7944  16.9283  16.9283  17.0057  17.0057
    17.1610  17.1610  17.2230  17.2230  17.2558  17.2558  17.3555  17.3555
    17.4778  17.4779  17.5125  17.5125  17.5608  17.5608  17.7828  17.7830
    17.8215  17.8216  18.0938  18.0938  18.7346  18.7346  18.8551  18.8551
    19.0000  19.0001  19.1360  19.1363  19.1684  19.1686  19.2915  19.2915

          k = 0.0000 0.0000 0.0000 ( 24437 PWs)   bands (ev):

   -35.5713 -35.5713 -35.5681 -35.5681 -35.5401 -35.5401 -35.5369 -35.5369
   -35.4599 -35.4599 -35.4278 -35.4278 -34.1124 -34.1124 -34.1092 -34.1092
   -34.0862 -34.0862 -34.0830 -34.0830 -34.0720 -34.0720 -34.0687 -34.0687
   -33.9979 -33.9979 -33.9818 -33.9818 -33.9559 -33.9559 -28.2086 -28.2086
   -28.2065 -28.2065 -28.2002 -28.2002 -28.1982 -28.1982 -26.9693 -26.9693
   -26.9672 -26.9672 -26.9604 -26.9604 -26.9583 -26.9583 -26.9579 -26.9579
   -26.9559 -26.9559 -10.6700 -10.6700 -10.1358 -10.1358  -9.0593  -9.0593
    -6.3150  -6.3150  -4.9455  -4.9455  -0.5702  -0.5702  -0.1258  -0.1258
     0.1542   0.1542   0.4106   0.4106   0.4770   0.4770   0.5827   0.5827
     0.8559   0.8559   1.1580   1.1580   1.3300   1.3300   1.9808   1.9808
     2.6325   2.6325   2.9927   2.9927   3.1929   3.1929   3.9226   3.9226
     4.1167   4.1167   6.1541   6.1541   6.3411   6.3411   6.9586   6.9586
     7.3846   7.3846   7.5388   7.5388   7.8110   7.8110   8.3301   8.3301
     8.5461   8.5461   8.6567   8.6567   8.7418   8.7418   9.1468   9.1468
     9.5026   9.5026   9.6540   9.6540   9.9797   9.9797  10.0520  10.0520
    10.4777  10.4777  10.9189  10.9189  11.3053  11.3053  11.4430  11.4430
    11.4474  11.4474  11.6564  11.6564  12.7797  12.7797  12.7982  12.7982
    13.7374  13.7374  14.0053  14.0053  14.1294  14.1294  14.1838  14.1838
    14.3734  14.3734  15.0015  15.0015  15.5672  15.5672  15.9093  15.9093
    15.9318  15.9318  16.0044  16.0044  16.1500  16.1500  16.2949  16.2949
    16.6106  16.6106  16.8908  16.8908  16.9136  16.9136  16.9548  16.9548
    17.2043  17.2043  17.2066  17.2066  17.2797  17.2797  17.2953  17.2953
    17.4943  17.4943  17.5006  17.5006  17.6019  17.6019  17.7476  17.7476
    17.8011  17.8011  18.0572  18.0572  18.8053  18.8053  18.8710  18.8710
    18.9588  18.9588  19.1699  19.1699  19.1705  19.1705  19.2570  19.2570

     Writing all to output data dir tmp/Sb2Te3-uatsx-c5-soc-3.0.save/ :
     XML data file, pseudopotentials, collected wavefunctions

     init_run     :      1.30s CPU      1.33s WALL (       1 calls)
     electrons    :   6176.47s CPU   3329.15s WALL (       1 calls)

     Called by init_run:
     wfcinit      :      0.00s CPU      0.03s WALL (       1 calls)
     wfcinit:wfcr :    145.29s CPU     76.04s WALL (     211 calls)
     potinit      :      0.27s CPU      0.24s WALL (       1 calls)
     hinit0       :      0.84s CPU      0.86s WALL (       1 calls)

     Called by electrons:
     c_bands      :   6176.44s CPU   3329.11s WALL (       1 calls)
     v_of_rho     :      0.07s CPU      0.05s WALL (       1 calls)
     v_h          :      0.01s CPU      0.01s WALL (       1 calls)
     v_xc         :      0.07s CPU      0.05s WALL (       1 calls)

     Called by c_bands:
     init_us_2    :      0.39s CPU      0.31s WALL (     211 calls)
     cegterg      :   6018.15s CPU   3240.39s WALL (     730 calls)

     Called by sum_band:

     Called by *egterg:
     cdiaghg      :    883.54s CPU    559.18s WALL (   12684 calls)
     cegterg:over :    561.26s CPU    295.76s WALL (   12473 calls)
     cegterg:upda :    395.50s CPU    215.18s WALL (   12473 calls)
     cegterg:last :    616.16s CPU    335.13s WALL (    5855 calls)
     cdiaghg:chol :     58.91s CPU     34.12s WALL (   12684 calls)
     cdiaghg:inve :     12.00s CPU      8.76s WALL (   12684 calls)
     cdiaghg:para :    149.77s CPU     77.37s WALL (   25368 calls)
     h_psi        :   3583.66s CPU   1842.09s WALL (   13414 calls)
     g_psi        :     22.41s CPU     11.64s WALL (   12473 calls)

     Called by h_psi:
     h_psi:calbec :    167.37s CPU     92.48s WALL (   13414 calls)
     vloc_psi     :   3248.81s CPU   1648.62s WALL (   13414 calls)
     add_vuspsi   :    142.64s CPU     88.28s WALL (   13414 calls)

     General routines
     calbec       :    167.29s CPU     92.45s WALL (   13414 calls)
     fft          :      0.89s CPU      0.89s WALL (      17 calls)
     ffts         :      0.15s CPU      0.14s WALL (       4 calls)
     fftw         :   2494.74s CPU   1250.61s WALL ( 4830548 calls)
     interpolate  :      0.16s CPU      0.15s WALL (       4 calls)
     davcio       :      0.77s CPU      1.99s WALL (     422 calls)

     Parallel routines

     PWSCF        :      1h43m CPU  59m36.63s WALL


   This run was terminated on:  22:36:23  22Aug2025            

=------------------------------------------------------------------------------=
   JOB DONE.
=------------------------------------------------------------------------------=
