
     Program PWSCF v.7.4.1 starts on 14Aug2025 at 20:22:28 

     This program is part of the open-source Quantum ESPRESSO suite
     for quantum simulation of materials; please cite
         "P. Giannozzi et al., J. Phys.:Condens. Matter 21 395502 (2009);
         "P. Giannozzi et al., J. Phys.:Condens. Matter 29 465901 (2017);
         "P. Giannozzi et al., J. Chem. Phys. 152 154105 (2020);
          URL http://www.quantum-espresso.org", 
     in publications or presentations arising from this work. More details at
     http://www.quantum-espresso.org/quote

     Parallel version (MPI & OpenMP), running on      48 processor cores
     Number of MPI processes:                24
     Threads/MPI process:                     2

     MPI processes distributed on     2 nodes
     112135 MiB available memory on the printing compute node when the environment starts

     Waiting for input...
     Reading input from standard input

     Current dimensions of program PWSCF are:
     Max number of different atomic species (ntypx) = 10
     Max number of k-points (npk) =  40000
     Max angular momentum in pseudopotentials (lmaxx) =  4

     IMPORTANT: XC functional enforced from input :
     Exchange-correlation= PBE
                           (   1   4   3   4   0   0   0)
     Any further DFT definition will be discarded
     Please, verify this is what you really want


     Atomic positions and unit cell read from directory:
     tmp/Sb2Te3-uatsx-c3-2.0.save/

     Message from routine setup:
     no reason to have ecutrho>4*ecutwfc

     R & G space division:  proc/nbgrp/npool/nimage =      24
     Subspace diagonalization in iterative solution of the eigenvalue problem:
     a serial algorithm will be used


     Parallelization info
     --------------------
     sticks:   dense  smooth     PW     G-vecs:    dense   smooth      PW
     Min          97      39     10                19297     4885     728
     Max          98      40     11                19315     4897     761
     Sum        2329     937    263               463351   117389   17987

     Using Slab Decomposition



     bravais-lattice index     =            0
     lattice parameter (alat)  =       8.3085  a.u.
     unit-cell volume          =    2454.7283 (a.u.)^3
     number of atoms/cell      =            5
     number of atomic types    =            2
     number of electrons       =        78.00
     number of Kohn-Sham states=          100
     kinetic-energy cutoff     =      50.0000  Ry
     charge density cutoff     =     500.0000  Ry
     Exchange-correlation= PBE
                           (   1   4   3   4   0   0   0)

     celldm(1)=   8.308546  celldm(2)=   0.000000  celldm(3)=   0.000000
     celldm(4)=   0.000000  celldm(5)=   0.000000  celldm(6)=   0.000000

     crystal axes: (cart. coord. in units of alat)
               a(1) = (   1.000000   0.000000   0.000000 )  
               a(2) = (  -0.490196   0.849036   0.000000 )  
               a(3) = (   0.000000   0.000000   5.040830 )  

     reciprocal axes: (cart. coord. in units 2 pi/alat)
               b(1) = (  1.000000  0.577356 -0.000000 )  
               b(2) = (  0.000000  1.177806  0.000000 )  
               b(3) = (  0.000000 -0.000000  0.198380 )  


     PseudoPot. # 1 for Sb read from file:
     /zfs-home/202401017n1/pseudos/Sb_ONCV_PBE-1.2.upf
     MD5 check sum: 0417cd6c0fe8ce4611e2b23135f1abd9
     Pseudo is Norm-conserving, Zval = 15.0
     Generated using ONCVPSP code by D. R. Hamann
     Using radial grid of  602 points,  6 beta functions with: 
                l(1) =   0
                l(2) =   0
                l(3) =   1
                l(4) =   1
                l(5) =   2
                l(6) =   2

     PseudoPot. # 2 for Te read from file:
     /zfs-home/202401017n1/pseudos/Te_ONCV_PBE-1.2.upf
     MD5 check sum: dd4de4dac1e38587f63aaf3700bb29d3
     Pseudo is Norm-conserving, Zval = 16.0
     Generated using ONCVPSP code by D. R. Hamann
     Using radial grid of  602 points,  6 beta functions with: 
                l(1) =   0
                l(2) =   0
                l(3) =   1
                l(4) =   1
                l(5) =   2
                l(6) =   2

     atomic species   valence    mass     pseudopotential
     Sb               15.00   121.76000     Sb( 1.00)
     Te               16.00   127.60000     Te( 1.00)

     No symmetry found


                                    s                        frac. trans.

      isym =  1     identity                                     

 cryst.   s( 1) = (     1          0          0      )
                  (     0          1          0      )
                  (     0          0          1      )

 cart.    s( 1) = (  1.0000000  0.0000000  0.0000000 )
                  (  0.0000000  1.0000000  0.0000000 )
                  (  0.0000000  0.0000000  1.0000000 )


   Cartesian axes

     site n.     atom                  positions (alat units)
         1        Sb     tau(   1) = (   0.5829733   0.4189608   2.9724649  )
         2        Te     tau(   2) = (   0.5752175   0.4057666   1.6850437  )
         3        Sb     tau(   3) = (   0.0736071   0.1257310   2.0683360  )
         4        Te     tau(   4) = (   0.0811854   0.1390911   3.3558017  )
         5        Te     tau(   5) = (   0.0831178   0.6970014   2.5203330  )

     -------------------------------------------------
     Parameters for Dispersion (Grimme-D2) Correction:
     -------------------------------------------------
       atom      VdW radius       C_6     

        Sb         3.555       1333.532
        Te         3.575       1101.101

   Crystallographic axes

     site n.     atom                  positions (cryst. coord.)
         1        Sb     tau(   1) = (  0.8248627  0.4934545  0.5896776  )
         2        Te     tau(   2) = (  0.8094892  0.4779143  0.3342790  )
         3        Sb     tau(   3) = (  0.1461986  0.1480867  0.4103165  )
         4        Te     tau(   4) = (  0.1614904  0.1638223  0.6657240  )
         5        Te     tau(   5) = (  0.4855356  0.8209324  0.4999837  )

     number of k points=   211
                       cart. coord. in units 2pi/alat
        k(    1) = (   0.0000000   0.0000000   0.0000000), wk =   0.0094787
        k(    2) = (   0.0071429   0.0041240   0.0000000), wk =   0.0094787
        k(    3) = (   0.0142857   0.0082479   0.0000000), wk =   0.0094787
        k(    4) = (   0.0214286   0.0123719   0.0000000), wk =   0.0094787
        k(    5) = (   0.0285714   0.0164959   0.0000000), wk =   0.0094787
        k(    6) = (   0.0357143   0.0206199   0.0000000), wk =   0.0094787
        k(    7) = (   0.0428571   0.0247438   0.0000000), wk =   0.0094787
        k(    8) = (   0.0500000   0.0288678   0.0000000), wk =   0.0094787
        k(    9) = (   0.0571429   0.0329918   0.0000000), wk =   0.0094787
        k(   10) = (   0.0642857   0.0371157   0.0000000), wk =   0.0094787
        k(   11) = (   0.0714286   0.0412397   0.0000000), wk =   0.0094787
        k(   12) = (   0.0785714   0.0453637   0.0000000), wk =   0.0094787
        k(   13) = (   0.0857143   0.0494876   0.0000000), wk =   0.0094787
        k(   14) = (   0.0928571   0.0536116   0.0000000), wk =   0.0094787
        k(   15) = (   0.1000000   0.0577356   0.0000000), wk =   0.0094787
        k(   16) = (   0.1071429   0.0618596   0.0000000), wk =   0.0094787
        k(   17) = (   0.1142857   0.0659835   0.0000000), wk =   0.0094787
        k(   18) = (   0.1214286   0.0701075   0.0000000), wk =   0.0094787
        k(   19) = (   0.1285714   0.0742315   0.0000000), wk =   0.0094787
        k(   20) = (   0.1357143   0.0783554   0.0000000), wk =   0.0094787
        k(   21) = (   0.1428571   0.0824794   0.0000000), wk =   0.0094787
        k(   22) = (   0.1500000   0.0866034   0.0000000), wk =   0.0094787
        k(   23) = (   0.1571429   0.0907273   0.0000000), wk =   0.0094787
        k(   24) = (   0.1642857   0.0948513   0.0000000), wk =   0.0094787
        k(   25) = (   0.1714286   0.0989753   0.0000000), wk =   0.0094787
        k(   26) = (   0.1785714   0.1030993   0.0000000), wk =   0.0094787
        k(   27) = (   0.1857143   0.1072232   0.0000000), wk =   0.0094787
        k(   28) = (   0.1928571   0.1113472   0.0000000), wk =   0.0094787
        k(   29) = (   0.2000000   0.1154712   0.0000000), wk =   0.0094787
        k(   30) = (   0.2071429   0.1195951   0.0000000), wk =   0.0094787
        k(   31) = (   0.2142857   0.1237191   0.0000000), wk =   0.0094787
        k(   32) = (   0.2214286   0.1278431   0.0000000), wk =   0.0094787
        k(   33) = (   0.2285714   0.1319671   0.0000000), wk =   0.0094787
        k(   34) = (   0.2357143   0.1360910   0.0000000), wk =   0.0094787
        k(   35) = (   0.2428571   0.1402150   0.0000000), wk =   0.0094787
        k(   36) = (   0.2500000   0.1443390   0.0000000), wk =   0.0094787
        k(   37) = (   0.2571429   0.1484629   0.0000000), wk =   0.0094787
        k(   38) = (   0.2642857   0.1525869   0.0000000), wk =   0.0094787
        k(   39) = (   0.2714286   0.1567109   0.0000000), wk =   0.0094787
        k(   40) = (   0.2785714   0.1608348   0.0000000), wk =   0.0094787
        k(   41) = (   0.2857143   0.1649588   0.0000000), wk =   0.0094787
        k(   42) = (   0.2928571   0.1690828   0.0000000), wk =   0.0094787
        k(   43) = (   0.3000000   0.1732068   0.0000000), wk =   0.0094787
        k(   44) = (   0.3071429   0.1773307   0.0000000), wk =   0.0094787
        k(   45) = (   0.3142857   0.1814547   0.0000000), wk =   0.0094787
        k(   46) = (   0.3214286   0.1855787   0.0000000), wk =   0.0094787
        k(   47) = (   0.3285714   0.1897026   0.0000000), wk =   0.0094787
        k(   48) = (   0.3357143   0.1938266   0.0000000), wk =   0.0094787
        k(   49) = (   0.3428571   0.1979506   0.0000000), wk =   0.0094787
        k(   50) = (   0.3500000   0.2020745   0.0000000), wk =   0.0094787
        k(   51) = (   0.3571429   0.2061985   0.0000000), wk =   0.0094787
        k(   52) = (   0.3642857   0.2103225   0.0000000), wk =   0.0094787
        k(   53) = (   0.3714286   0.2144465   0.0000000), wk =   0.0094787
        k(   54) = (   0.3785714   0.2185704   0.0000000), wk =   0.0094787
        k(   55) = (   0.3857143   0.2226944   0.0000000), wk =   0.0094787
        k(   56) = (   0.3928571   0.2268184   0.0000000), wk =   0.0094787
        k(   57) = (   0.4000000   0.2309423   0.0000000), wk =   0.0094787
        k(   58) = (   0.4071429   0.2350663   0.0000000), wk =   0.0094787
        k(   59) = (   0.4142857   0.2391903   0.0000000), wk =   0.0094787
        k(   60) = (   0.4214286   0.2433143   0.0000000), wk =   0.0094787
        k(   61) = (   0.4285714   0.2474382   0.0000000), wk =   0.0094787
        k(   62) = (   0.4357143   0.2515622   0.0000000), wk =   0.0094787
        k(   63) = (   0.4428571   0.2556862   0.0000000), wk =   0.0094787
        k(   64) = (   0.4500000   0.2598101   0.0000000), wk =   0.0094787
        k(   65) = (   0.4571429   0.2639341   0.0000000), wk =   0.0094787
        k(   66) = (   0.4642857   0.2680581   0.0000000), wk =   0.0094787
        k(   67) = (   0.4714286   0.2721820   0.0000000), wk =   0.0094787
        k(   68) = (   0.4785714   0.2763060   0.0000000), wk =   0.0094787
        k(   69) = (   0.4857143   0.2804300   0.0000000), wk =   0.0094787
        k(   70) = (   0.4928571   0.2845540   0.0000000), wk =   0.0094787
        k(   71) = (   0.5000000   0.2886779   0.0000000), wk =   0.0094787
        k(   72) = (   0.4976190   0.2929119   0.0000000), wk =   0.0094787
        k(   73) = (   0.4952381   0.2971458   0.0000000), wk =   0.0094787
        k(   74) = (   0.4928571   0.3013798   0.0000000), wk =   0.0094787
        k(   75) = (   0.4904762   0.3056137   0.0000000), wk =   0.0094787
        k(   76) = (   0.4880952   0.3098476   0.0000000), wk =   0.0094787
        k(   77) = (   0.4857143   0.3140816   0.0000000), wk =   0.0094787
        k(   78) = (   0.4833333   0.3183155   0.0000000), wk =   0.0094787
        k(   79) = (   0.4809524   0.3225495   0.0000000), wk =   0.0094787
        k(   80) = (   0.4785714   0.3267834   0.0000000), wk =   0.0094787
        k(   81) = (   0.4761905   0.3310174   0.0000000), wk =   0.0094787
        k(   82) = (   0.4738095   0.3352513   0.0000000), wk =   0.0094787
        k(   83) = (   0.4714286   0.3394852   0.0000000), wk =   0.0094787
        k(   84) = (   0.4690476   0.3437192   0.0000000), wk =   0.0094787
        k(   85) = (   0.4666667   0.3479531   0.0000000), wk =   0.0094787
        k(   86) = (   0.4642857   0.3521871   0.0000000), wk =   0.0094787
        k(   87) = (   0.4619048   0.3564210   0.0000000), wk =   0.0094787
        k(   88) = (   0.4595238   0.3606550   0.0000000), wk =   0.0094787
        k(   89) = (   0.4571429   0.3648889   0.0000000), wk =   0.0094787
        k(   90) = (   0.4547619   0.3691228   0.0000000), wk =   0.0094787
        k(   91) = (   0.4523810   0.3733568   0.0000000), wk =   0.0094787
        k(   92) = (   0.4500000   0.3775907   0.0000000), wk =   0.0094787
        k(   93) = (   0.4476190   0.3818247   0.0000000), wk =   0.0094787
        k(   94) = (   0.4452381   0.3860586   0.0000000), wk =   0.0094787
        k(   95) = (   0.4428571   0.3902926   0.0000000), wk =   0.0094787
        k(   96) = (   0.4404762   0.3945265   0.0000000), wk =   0.0094787
        k(   97) = (   0.4380952   0.3987604   0.0000000), wk =   0.0094787
        k(   98) = (   0.4357143   0.4029944   0.0000000), wk =   0.0094787
        k(   99) = (   0.4333333   0.4072283   0.0000000), wk =   0.0094787
        k(  100) = (   0.4309524   0.4114623   0.0000000), wk =   0.0094787
        k(  101) = (   0.4285714   0.4156962   0.0000000), wk =   0.0094787
        k(  102) = (   0.4261905   0.4199302   0.0000000), wk =   0.0094787
        k(  103) = (   0.4238095   0.4241641   0.0000000), wk =   0.0094787
        k(  104) = (   0.4214286   0.4283980   0.0000000), wk =   0.0094787
        k(  105) = (   0.4190476   0.4326320   0.0000000), wk =   0.0094787
        k(  106) = (   0.4166667   0.4368659   0.0000000), wk =   0.0094787
        k(  107) = (   0.4142857   0.4410999   0.0000000), wk =   0.0094787
        k(  108) = (   0.4119048   0.4453338   0.0000000), wk =   0.0094787
        k(  109) = (   0.4095238   0.4495678   0.0000000), wk =   0.0094787
        k(  110) = (   0.4071429   0.4538017   0.0000000), wk =   0.0094787
        k(  111) = (   0.4047619   0.4580356   0.0000000), wk =   0.0094787
        k(  112) = (   0.4023810   0.4622696   0.0000000), wk =   0.0094787
        k(  113) = (   0.4000000   0.4665035   0.0000000), wk =   0.0094787
        k(  114) = (   0.3976190   0.4707375   0.0000000), wk =   0.0094787
        k(  115) = (   0.3952381   0.4749714   0.0000000), wk =   0.0094787
        k(  116) = (   0.3928571   0.4792054   0.0000000), wk =   0.0094787
        k(  117) = (   0.3904762   0.4834393   0.0000000), wk =   0.0094787
        k(  118) = (   0.3880952   0.4876732   0.0000000), wk =   0.0094787
        k(  119) = (   0.3857143   0.4919072   0.0000000), wk =   0.0094787
        k(  120) = (   0.3833333   0.4961411   0.0000000), wk =   0.0094787
        k(  121) = (   0.3809524   0.5003751   0.0000000), wk =   0.0094787
        k(  122) = (   0.3785714   0.5046090   0.0000000), wk =   0.0094787
        k(  123) = (   0.3761905   0.5088430   0.0000000), wk =   0.0094787
        k(  124) = (   0.3738095   0.5130769   0.0000000), wk =   0.0094787
        k(  125) = (   0.3714286   0.5173108   0.0000000), wk =   0.0094787
        k(  126) = (   0.3690476   0.5215448   0.0000000), wk =   0.0094787
        k(  127) = (   0.3666667   0.5257787   0.0000000), wk =   0.0094787
        k(  128) = (   0.3642857   0.5300127   0.0000000), wk =   0.0094787
        k(  129) = (   0.3619048   0.5342466   0.0000000), wk =   0.0094787
        k(  130) = (   0.3595238   0.5384806   0.0000000), wk =   0.0094787
        k(  131) = (   0.3571429   0.5427145   0.0000000), wk =   0.0094787
        k(  132) = (   0.3547619   0.5469484   0.0000000), wk =   0.0094787
        k(  133) = (   0.3523810   0.5511824   0.0000000), wk =   0.0094787
        k(  134) = (   0.3500000   0.5554163   0.0000000), wk =   0.0094787
        k(  135) = (   0.3476190   0.5596503   0.0000000), wk =   0.0094787
        k(  136) = (   0.3452381   0.5638842   0.0000000), wk =   0.0094787
        k(  137) = (   0.3428571   0.5681182   0.0000000), wk =   0.0094787
        k(  138) = (   0.3404762   0.5723521   0.0000000), wk =   0.0094787
        k(  139) = (   0.3380952   0.5765860   0.0000000), wk =   0.0094787
        k(  140) = (   0.3357143   0.5808200   0.0000000), wk =   0.0094787
        k(  141) = (   0.3333333   0.5850539   0.0000000), wk =   0.0094787
        k(  142) = (   0.3285714   0.5766960   0.0000000), wk =   0.0094787
        k(  143) = (   0.3238095   0.5683381   0.0000000), wk =   0.0094787
        k(  144) = (   0.3190476   0.5599802   0.0000000), wk =   0.0094787
        k(  145) = (   0.3142857   0.5516223   0.0000000), wk =   0.0094787
        k(  146) = (   0.3095238   0.5432644   0.0000000), wk =   0.0094787
        k(  147) = (   0.3047619   0.5349065   0.0000000), wk =   0.0094787
        k(  148) = (   0.3000000   0.5265485   0.0000000), wk =   0.0094787
        k(  149) = (   0.2952381   0.5181906   0.0000000), wk =   0.0094787
        k(  150) = (   0.2904762   0.5098327   0.0000000), wk =   0.0094787
        k(  151) = (   0.2857143   0.5014748   0.0000000), wk =   0.0094787
        k(  152) = (   0.2809524   0.4931169   0.0000000), wk =   0.0094787
        k(  153) = (   0.2761905   0.4847590   0.0000000), wk =   0.0094787
        k(  154) = (   0.2714286   0.4764011   0.0000000), wk =   0.0094787
        k(  155) = (   0.2666667   0.4680431   0.0000000), wk =   0.0094787
        k(  156) = (   0.2619048   0.4596852   0.0000000), wk =   0.0094787
        k(  157) = (   0.2571429   0.4513273   0.0000000), wk =   0.0094787
        k(  158) = (   0.2523810   0.4429694   0.0000000), wk =   0.0094787
        k(  159) = (   0.2476190   0.4346115   0.0000000), wk =   0.0094787
        k(  160) = (   0.2428571   0.4262536   0.0000000), wk =   0.0094787
        k(  161) = (   0.2380952   0.4178957   0.0000000), wk =   0.0094787
        k(  162) = (   0.2333333   0.4095378   0.0000000), wk =   0.0094787
        k(  163) = (   0.2285714   0.4011798   0.0000000), wk =   0.0094787
        k(  164) = (   0.2238095   0.3928219   0.0000000), wk =   0.0094787
        k(  165) = (   0.2190476   0.3844640   0.0000000), wk =   0.0094787
        k(  166) = (   0.2142857   0.3761061   0.0000000), wk =   0.0094787
        k(  167) = (   0.2095238   0.3677482   0.0000000), wk =   0.0094787
        k(  168) = (   0.2047619   0.3593903   0.0000000), wk =   0.0094787
        k(  169) = (   0.2000000   0.3510324   0.0000000), wk =   0.0094787
        k(  170) = (   0.1952381   0.3426744   0.0000000), wk =   0.0094787
        k(  171) = (   0.1904762   0.3343165   0.0000000), wk =   0.0094787
        k(  172) = (   0.1857143   0.3259586   0.0000000), wk =   0.0094787
        k(  173) = (   0.1809524   0.3176007   0.0000000), wk =   0.0094787
        k(  174) = (   0.1761905   0.3092428   0.0000000), wk =   0.0094787
        k(  175) = (   0.1714286   0.3008849   0.0000000), wk =   0.0094787
        k(  176) = (   0.1666667   0.2925270   0.0000000), wk =   0.0094787
        k(  177) = (   0.1619048   0.2841691   0.0000000), wk =   0.0094787
        k(  178) = (   0.1571429   0.2758111   0.0000000), wk =   0.0094787
        k(  179) = (   0.1523810   0.2674532   0.0000000), wk =   0.0094787
        k(  180) = (   0.1476190   0.2590953   0.0000000), wk =   0.0094787
        k(  181) = (   0.1428571   0.2507374   0.0000000), wk =   0.0094787
        k(  182) = (   0.1380952   0.2423795   0.0000000), wk =   0.0094787
        k(  183) = (   0.1333333   0.2340216   0.0000000), wk =   0.0094787
        k(  184) = (   0.1285714   0.2256637   0.0000000), wk =   0.0094787
        k(  185) = (   0.1238095   0.2173057   0.0000000), wk =   0.0094787
        k(  186) = (   0.1190476   0.2089478   0.0000000), wk =   0.0094787
        k(  187) = (   0.1142857   0.2005899   0.0000000), wk =   0.0094787
        k(  188) = (   0.1095238   0.1922320   0.0000000), wk =   0.0094787
        k(  189) = (   0.1047619   0.1838741   0.0000000), wk =   0.0094787
        k(  190) = (   0.1000000   0.1755162   0.0000000), wk =   0.0094787
        k(  191) = (   0.0952381   0.1671583   0.0000000), wk =   0.0094787
        k(  192) = (   0.0904762   0.1588004   0.0000000), wk =   0.0094787
        k(  193) = (   0.0857143   0.1504424   0.0000000), wk =   0.0094787
        k(  194) = (   0.0809524   0.1420845   0.0000000), wk =   0.0094787
        k(  195) = (   0.0761905   0.1337266   0.0000000), wk =   0.0094787
        k(  196) = (   0.0714286   0.1253687   0.0000000), wk =   0.0094787
        k(  197) = (   0.0666667   0.1170108   0.0000000), wk =   0.0094787
        k(  198) = (   0.0619048   0.1086529   0.0000000), wk =   0.0094787
        k(  199) = (   0.0571429   0.1002950   0.0000000), wk =   0.0094787
        k(  200) = (   0.0523810   0.0919370   0.0000000), wk =   0.0094787
        k(  201) = (   0.0476190   0.0835791   0.0000000), wk =   0.0094787
        k(  202) = (   0.0428571   0.0752212   0.0000000), wk =   0.0094787
        k(  203) = (   0.0380952   0.0668633   0.0000000), wk =   0.0094787
        k(  204) = (   0.0333333   0.0585054   0.0000000), wk =   0.0094787
        k(  205) = (   0.0285714   0.0501475   0.0000000), wk =   0.0094787
        k(  206) = (   0.0238095   0.0417896   0.0000000), wk =   0.0094787
        k(  207) = (   0.0190476   0.0334317   0.0000000), wk =   0.0094787
        k(  208) = (   0.0142857   0.0250737   0.0000000), wk =   0.0094787
        k(  209) = (   0.0095238   0.0167158   0.0000000), wk =   0.0094787
        k(  210) = (   0.0047619   0.0083579   0.0000000), wk =   0.0094787
        k(  211) = (   0.0000000   0.0000000   0.0000000), wk =   0.0094787

                       cryst. coord.
        k(    1) = (   0.0000000   0.0000000   0.0000000), wk =   0.0094787
        k(    2) = (   0.0071429   0.0000000   0.0000000), wk =   0.0094787
        k(    3) = (   0.0142857   0.0000000   0.0000000), wk =   0.0094787
        k(    4) = (   0.0214286   0.0000000   0.0000000), wk =   0.0094787
        k(    5) = (   0.0285714   0.0000000   0.0000000), wk =   0.0094787
        k(    6) = (   0.0357143   0.0000000   0.0000000), wk =   0.0094787
        k(    7) = (   0.0428571   0.0000000   0.0000000), wk =   0.0094787
        k(    8) = (   0.0500000   0.0000000   0.0000000), wk =   0.0094787
        k(    9) = (   0.0571429   0.0000000   0.0000000), wk =   0.0094787
        k(   10) = (   0.0642857   0.0000000   0.0000000), wk =   0.0094787
        k(   11) = (   0.0714286   0.0000000   0.0000000), wk =   0.0094787
        k(   12) = (   0.0785714   0.0000000   0.0000000), wk =   0.0094787
        k(   13) = (   0.0857143   0.0000000   0.0000000), wk =   0.0094787
        k(   14) = (   0.0928571   0.0000000   0.0000000), wk =   0.0094787
        k(   15) = (   0.1000000   0.0000000   0.0000000), wk =   0.0094787
        k(   16) = (   0.1071429   0.0000000   0.0000000), wk =   0.0094787
        k(   17) = (   0.1142857   0.0000000   0.0000000), wk =   0.0094787
        k(   18) = (   0.1214286   0.0000000   0.0000000), wk =   0.0094787
        k(   19) = (   0.1285714   0.0000000   0.0000000), wk =   0.0094787
        k(   20) = (   0.1357143   0.0000000   0.0000000), wk =   0.0094787
        k(   21) = (   0.1428571   0.0000000   0.0000000), wk =   0.0094787
        k(   22) = (   0.1500000   0.0000000   0.0000000), wk =   0.0094787
        k(   23) = (   0.1571429   0.0000000   0.0000000), wk =   0.0094787
        k(   24) = (   0.1642857   0.0000000   0.0000000), wk =   0.0094787
        k(   25) = (   0.1714286   0.0000000   0.0000000), wk =   0.0094787
        k(   26) = (   0.1785714   0.0000000   0.0000000), wk =   0.0094787
        k(   27) = (   0.1857143   0.0000000   0.0000000), wk =   0.0094787
        k(   28) = (   0.1928571   0.0000000   0.0000000), wk =   0.0094787
        k(   29) = (   0.2000000   0.0000000   0.0000000), wk =   0.0094787
        k(   30) = (   0.2071429   0.0000000   0.0000000), wk =   0.0094787
        k(   31) = (   0.2142857   0.0000000   0.0000000), wk =   0.0094787
        k(   32) = (   0.2214286   0.0000000   0.0000000), wk =   0.0094787
        k(   33) = (   0.2285714   0.0000000   0.0000000), wk =   0.0094787
        k(   34) = (   0.2357143   0.0000000   0.0000000), wk =   0.0094787
        k(   35) = (   0.2428571   0.0000000   0.0000000), wk =   0.0094787
        k(   36) = (   0.2500000   0.0000000   0.0000000), wk =   0.0094787
        k(   37) = (   0.2571429   0.0000000   0.0000000), wk =   0.0094787
        k(   38) = (   0.2642857   0.0000000   0.0000000), wk =   0.0094787
        k(   39) = (   0.2714286   0.0000000   0.0000000), wk =   0.0094787
        k(   40) = (   0.2785714   0.0000000   0.0000000), wk =   0.0094787
        k(   41) = (   0.2857143   0.0000000   0.0000000), wk =   0.0094787
        k(   42) = (   0.2928571   0.0000000   0.0000000), wk =   0.0094787
        k(   43) = (   0.3000000   0.0000000   0.0000000), wk =   0.0094787
        k(   44) = (   0.3071429   0.0000000   0.0000000), wk =   0.0094787
        k(   45) = (   0.3142857   0.0000000   0.0000000), wk =   0.0094787
        k(   46) = (   0.3214286   0.0000000   0.0000000), wk =   0.0094787
        k(   47) = (   0.3285714   0.0000000   0.0000000), wk =   0.0094787
        k(   48) = (   0.3357143   0.0000000   0.0000000), wk =   0.0094787
        k(   49) = (   0.3428571   0.0000000   0.0000000), wk =   0.0094787
        k(   50) = (   0.3500000   0.0000000   0.0000000), wk =   0.0094787
        k(   51) = (   0.3571429   0.0000000   0.0000000), wk =   0.0094787
        k(   52) = (   0.3642857   0.0000000   0.0000000), wk =   0.0094787
        k(   53) = (   0.3714286   0.0000000   0.0000000), wk =   0.0094787
        k(   54) = (   0.3785714   0.0000000   0.0000000), wk =   0.0094787
        k(   55) = (   0.3857143   0.0000000   0.0000000), wk =   0.0094787
        k(   56) = (   0.3928571   0.0000000   0.0000000), wk =   0.0094787
        k(   57) = (   0.4000000   0.0000000   0.0000000), wk =   0.0094787
        k(   58) = (   0.4071429   0.0000000   0.0000000), wk =   0.0094787
        k(   59) = (   0.4142857   0.0000000   0.0000000), wk =   0.0094787
        k(   60) = (   0.4214286   0.0000000   0.0000000), wk =   0.0094787
        k(   61) = (   0.4285714   0.0000000   0.0000000), wk =   0.0094787
        k(   62) = (   0.4357143   0.0000000   0.0000000), wk =   0.0094787
        k(   63) = (   0.4428571   0.0000000   0.0000000), wk =   0.0094787
        k(   64) = (   0.4500000   0.0000000   0.0000000), wk =   0.0094787
        k(   65) = (   0.4571429   0.0000000   0.0000000), wk =   0.0094787
        k(   66) = (   0.4642857   0.0000000   0.0000000), wk =   0.0094787
        k(   67) = (   0.4714286   0.0000000   0.0000000), wk =   0.0094787
        k(   68) = (   0.4785714   0.0000000   0.0000000), wk =   0.0094787
        k(   69) = (   0.4857143   0.0000000   0.0000000), wk =   0.0094787
        k(   70) = (   0.4928571   0.0000000   0.0000000), wk =   0.0094787
        k(   71) = (   0.5000000   0.0000000   0.0000000), wk =   0.0094787
        k(   72) = (   0.4976190   0.0047619   0.0000000), wk =   0.0094787
        k(   73) = (   0.4952381   0.0095238   0.0000000), wk =   0.0094787
        k(   74) = (   0.4928571   0.0142857   0.0000000), wk =   0.0094787
        k(   75) = (   0.4904762   0.0190476   0.0000000), wk =   0.0094787
        k(   76) = (   0.4880952   0.0238095   0.0000000), wk =   0.0094787
        k(   77) = (   0.4857143   0.0285714   0.0000000), wk =   0.0094787
        k(   78) = (   0.4833333   0.0333333   0.0000000), wk =   0.0094787
        k(   79) = (   0.4809524   0.0380952   0.0000000), wk =   0.0094787
        k(   80) = (   0.4785714   0.0428571   0.0000000), wk =   0.0094787
        k(   81) = (   0.4761905   0.0476190   0.0000000), wk =   0.0094787
        k(   82) = (   0.4738095   0.0523810   0.0000000), wk =   0.0094787
        k(   83) = (   0.4714286   0.0571429   0.0000000), wk =   0.0094787
        k(   84) = (   0.4690476   0.0619048   0.0000000), wk =   0.0094787
        k(   85) = (   0.4666667   0.0666667   0.0000000), wk =   0.0094787
        k(   86) = (   0.4642857   0.0714286   0.0000000), wk =   0.0094787
        k(   87) = (   0.4619048   0.0761905   0.0000000), wk =   0.0094787
        k(   88) = (   0.4595238   0.0809524   0.0000000), wk =   0.0094787
        k(   89) = (   0.4571429   0.0857143   0.0000000), wk =   0.0094787
        k(   90) = (   0.4547619   0.0904762   0.0000000), wk =   0.0094787
        k(   91) = (   0.4523810   0.0952381   0.0000000), wk =   0.0094787
        k(   92) = (   0.4500000   0.1000000   0.0000000), wk =   0.0094787
        k(   93) = (   0.4476190   0.1047619   0.0000000), wk =   0.0094787
        k(   94) = (   0.4452381   0.1095238   0.0000000), wk =   0.0094787
        k(   95) = (   0.4428571   0.1142857   0.0000000), wk =   0.0094787
        k(   96) = (   0.4404762   0.1190476   0.0000000), wk =   0.0094787
        k(   97) = (   0.4380952   0.1238095   0.0000000), wk =   0.0094787
        k(   98) = (   0.4357143   0.1285714   0.0000000), wk =   0.0094787
        k(   99) = (   0.4333333   0.1333333   0.0000000), wk =   0.0094787
        k(  100) = (   0.4309524   0.1380952   0.0000000), wk =   0.0094787
        k(  101) = (   0.4285714   0.1428571   0.0000000), wk =   0.0094787
        k(  102) = (   0.4261905   0.1476190   0.0000000), wk =   0.0094787
        k(  103) = (   0.4238095   0.1523810   0.0000000), wk =   0.0094787
        k(  104) = (   0.4214286   0.1571429   0.0000000), wk =   0.0094787
        k(  105) = (   0.4190476   0.1619048   0.0000000), wk =   0.0094787
        k(  106) = (   0.4166667   0.1666667   0.0000000), wk =   0.0094787
        k(  107) = (   0.4142857   0.1714286   0.0000000), wk =   0.0094787
        k(  108) = (   0.4119048   0.1761905   0.0000000), wk =   0.0094787
        k(  109) = (   0.4095238   0.1809524   0.0000000), wk =   0.0094787
        k(  110) = (   0.4071429   0.1857143   0.0000000), wk =   0.0094787
        k(  111) = (   0.4047619   0.1904762   0.0000000), wk =   0.0094787
        k(  112) = (   0.4023810   0.1952381   0.0000000), wk =   0.0094787
        k(  113) = (   0.4000000   0.2000000   0.0000000), wk =   0.0094787
        k(  114) = (   0.3976190   0.2047619   0.0000000), wk =   0.0094787
        k(  115) = (   0.3952381   0.2095238   0.0000000), wk =   0.0094787
        k(  116) = (   0.3928571   0.2142857   0.0000000), wk =   0.0094787
        k(  117) = (   0.3904762   0.2190476   0.0000000), wk =   0.0094787
        k(  118) = (   0.3880952   0.2238095   0.0000000), wk =   0.0094787
        k(  119) = (   0.3857143   0.2285714   0.0000000), wk =   0.0094787
        k(  120) = (   0.3833333   0.2333333   0.0000000), wk =   0.0094787
        k(  121) = (   0.3809524   0.2380952   0.0000000), wk =   0.0094787
        k(  122) = (   0.3785714   0.2428571   0.0000000), wk =   0.0094787
        k(  123) = (   0.3761905   0.2476190   0.0000000), wk =   0.0094787
        k(  124) = (   0.3738095   0.2523810   0.0000000), wk =   0.0094787
        k(  125) = (   0.3714286   0.2571429   0.0000000), wk =   0.0094787
        k(  126) = (   0.3690476   0.2619048   0.0000000), wk =   0.0094787
        k(  127) = (   0.3666667   0.2666667   0.0000000), wk =   0.0094787
        k(  128) = (   0.3642857   0.2714286   0.0000000), wk =   0.0094787
        k(  129) = (   0.3619048   0.2761905   0.0000000), wk =   0.0094787
        k(  130) = (   0.3595238   0.2809524   0.0000000), wk =   0.0094787
        k(  131) = (   0.3571429   0.2857143   0.0000000), wk =   0.0094787
        k(  132) = (   0.3547619   0.2904762   0.0000000), wk =   0.0094787
        k(  133) = (   0.3523810   0.2952381   0.0000000), wk =   0.0094787
        k(  134) = (   0.3500000   0.3000000   0.0000000), wk =   0.0094787
        k(  135) = (   0.3476190   0.3047619   0.0000000), wk =   0.0094787
        k(  136) = (   0.3452381   0.3095238   0.0000000), wk =   0.0094787
        k(  137) = (   0.3428571   0.3142857   0.0000000), wk =   0.0094787
        k(  138) = (   0.3404762   0.3190476   0.0000000), wk =   0.0094787
        k(  139) = (   0.3380952   0.3238095   0.0000000), wk =   0.0094787
        k(  140) = (   0.3357143   0.3285714   0.0000000), wk =   0.0094787
        k(  141) = (   0.3333333   0.3333333   0.0000000), wk =   0.0094787
        k(  142) = (   0.3285714   0.3285714   0.0000000), wk =   0.0094787
        k(  143) = (   0.3238095   0.3238095   0.0000000), wk =   0.0094787
        k(  144) = (   0.3190476   0.3190476   0.0000000), wk =   0.0094787
        k(  145) = (   0.3142857   0.3142857   0.0000000), wk =   0.0094787
        k(  146) = (   0.3095238   0.3095238   0.0000000), wk =   0.0094787
        k(  147) = (   0.3047619   0.3047619   0.0000000), wk =   0.0094787
        k(  148) = (   0.3000000   0.3000000   0.0000000), wk =   0.0094787
        k(  149) = (   0.2952381   0.2952381   0.0000000), wk =   0.0094787
        k(  150) = (   0.2904762   0.2904762   0.0000000), wk =   0.0094787
        k(  151) = (   0.2857143   0.2857143   0.0000000), wk =   0.0094787
        k(  152) = (   0.2809524   0.2809524   0.0000000), wk =   0.0094787
        k(  153) = (   0.2761905   0.2761905   0.0000000), wk =   0.0094787
        k(  154) = (   0.2714286   0.2714286   0.0000000), wk =   0.0094787
        k(  155) = (   0.2666667   0.2666667   0.0000000), wk =   0.0094787
        k(  156) = (   0.2619048   0.2619048   0.0000000), wk =   0.0094787
        k(  157) = (   0.2571429   0.2571429   0.0000000), wk =   0.0094787
        k(  158) = (   0.2523810   0.2523810   0.0000000), wk =   0.0094787
        k(  159) = (   0.2476190   0.2476190   0.0000000), wk =   0.0094787
        k(  160) = (   0.2428571   0.2428571   0.0000000), wk =   0.0094787
        k(  161) = (   0.2380952   0.2380952   0.0000000), wk =   0.0094787
        k(  162) = (   0.2333333   0.2333333   0.0000000), wk =   0.0094787
        k(  163) = (   0.2285714   0.2285714   0.0000000), wk =   0.0094787
        k(  164) = (   0.2238095   0.2238095   0.0000000), wk =   0.0094787
        k(  165) = (   0.2190476   0.2190476   0.0000000), wk =   0.0094787
        k(  166) = (   0.2142857   0.2142857   0.0000000), wk =   0.0094787
        k(  167) = (   0.2095238   0.2095238   0.0000000), wk =   0.0094787
        k(  168) = (   0.2047619   0.2047619   0.0000000), wk =   0.0094787
        k(  169) = (   0.2000000   0.2000000   0.0000000), wk =   0.0094787
        k(  170) = (   0.1952381   0.1952381   0.0000000), wk =   0.0094787
        k(  171) = (   0.1904762   0.1904762   0.0000000), wk =   0.0094787
        k(  172) = (   0.1857143   0.1857143   0.0000000), wk =   0.0094787
        k(  173) = (   0.1809524   0.1809524   0.0000000), wk =   0.0094787
        k(  174) = (   0.1761905   0.1761905   0.0000000), wk =   0.0094787
        k(  175) = (   0.1714286   0.1714286   0.0000000), wk =   0.0094787
        k(  176) = (   0.1666667   0.1666667   0.0000000), wk =   0.0094787
        k(  177) = (   0.1619048   0.1619048   0.0000000), wk =   0.0094787
        k(  178) = (   0.1571429   0.1571429   0.0000000), wk =   0.0094787
        k(  179) = (   0.1523810   0.1523810   0.0000000), wk =   0.0094787
        k(  180) = (   0.1476190   0.1476190   0.0000000), wk =   0.0094787
        k(  181) = (   0.1428571   0.1428571   0.0000000), wk =   0.0094787
        k(  182) = (   0.1380952   0.1380952   0.0000000), wk =   0.0094787
        k(  183) = (   0.1333333   0.1333333   0.0000000), wk =   0.0094787
        k(  184) = (   0.1285714   0.1285714   0.0000000), wk =   0.0094787
        k(  185) = (   0.1238095   0.1238095   0.0000000), wk =   0.0094787
        k(  186) = (   0.1190476   0.1190476   0.0000000), wk =   0.0094787
        k(  187) = (   0.1142857   0.1142857   0.0000000), wk =   0.0094787
        k(  188) = (   0.1095238   0.1095238   0.0000000), wk =   0.0094787
        k(  189) = (   0.1047619   0.1047619   0.0000000), wk =   0.0094787
        k(  190) = (   0.1000000   0.1000000   0.0000000), wk =   0.0094787
        k(  191) = (   0.0952381   0.0952381   0.0000000), wk =   0.0094787
        k(  192) = (   0.0904762   0.0904762   0.0000000), wk =   0.0094787
        k(  193) = (   0.0857143   0.0857143   0.0000000), wk =   0.0094787
        k(  194) = (   0.0809524   0.0809524   0.0000000), wk =   0.0094787
        k(  195) = (   0.0761905   0.0761905   0.0000000), wk =   0.0094787
        k(  196) = (   0.0714286   0.0714286   0.0000000), wk =   0.0094787
        k(  197) = (   0.0666667   0.0666667   0.0000000), wk =   0.0094787
        k(  198) = (   0.0619048   0.0619048   0.0000000), wk =   0.0094787
        k(  199) = (   0.0571429   0.0571429   0.0000000), wk =   0.0094787
        k(  200) = (   0.0523810   0.0523810   0.0000000), wk =   0.0094787
        k(  201) = (   0.0476190   0.0476190   0.0000000), wk =   0.0094787
        k(  202) = (   0.0428571   0.0428571   0.0000000), wk =   0.0094787
        k(  203) = (   0.0380952   0.0380952   0.0000000), wk =   0.0094787
        k(  204) = (   0.0333333   0.0333333   0.0000000), wk =   0.0094787
        k(  205) = (   0.0285714   0.0285714   0.0000000), wk =   0.0094787
        k(  206) = (   0.0238095   0.0238095   0.0000000), wk =   0.0094787
        k(  207) = (   0.0190476   0.0190476   0.0000000), wk =   0.0094787
        k(  208) = (   0.0142857   0.0142857   0.0000000), wk =   0.0094787
        k(  209) = (   0.0095238   0.0095238   0.0000000), wk =   0.0094787
        k(  210) = (   0.0047619   0.0047619   0.0000000), wk =   0.0094787
        k(  211) = (   0.0000000   0.0000000   0.0000000), wk =   0.0094787

     Dense  grid:   463351 G-vectors     FFT dimensions: (  60,  60, 300)

     Smooth grid:   117389 G-vectors     FFT dimensions: (  40,  40, 192)

     Dynamical RAM for                 wfc:       0.93 MB

     Dynamical RAM for     wfc (w. buffer):       0.93 MB

     Dynamical RAM for           str. fact:       0.59 MB

     Dynamical RAM for           local pot:       0.00 MB

     Dynamical RAM for          nlocal pot:       0.84 MB

     Dynamical RAM for                qrad:       3.59 MB

     Dynamical RAM for          rho,v,vnew:       1.95 MB

     Dynamical RAM for           G-vectors:       1.14 MB

     Dynamical RAM for          h,s,v(r/c):       1.83 MB

     Dynamical RAM for          <psi|beta>:       0.14 MB

     Dynamical RAM for                 psi:       1.86 MB

     Dynamical RAM for                hpsi:       1.86 MB

     Dynamical RAM for      wfcinit/wfcrot:       2.09 MB

     Estimated static dynamical RAM per process >      11.71 MB

     Estimated max dynamical RAM per process >      17.40 MB

     Estimated total dynamical RAM >     417.70 MB

     The potential is recalculated from file :
     tmp/Sb2Te3-uatsx-c3-2.0.save/charge-density

     Starting wfcs are random

     Band Structure Calculation
     Davidson diagonalization with overlap

     Computing kpt #:     1  of   211
     c_bands:  1 eigenvalues not converged
     total cpu time spent up to now is        4.9 secs

     Computing kpt #:     2  of   211
     total cpu time spent up to now is        7.3 secs

     Computing kpt #:     3  of   211
     total cpu time spent up to now is        9.6 secs

     Computing kpt #:     4  of   211
     total cpu time spent up to now is       11.9 secs

     Computing kpt #:     5  of   211
     total cpu time spent up to now is       14.1 secs

     Computing kpt #:     6  of   211
     total cpu time spent up to now is       16.1 secs

     Computing kpt #:     7  of   211
     total cpu time spent up to now is       18.1 secs

     Computing kpt #:     8  of   211
     total cpu time spent up to now is       20.0 secs

     Computing kpt #:     9  of   211
     total cpu time spent up to now is       21.9 secs

     Computing kpt #:    10  of   211
     total cpu time spent up to now is       23.7 secs

     Computing kpt #:    11  of   211
     total cpu time spent up to now is       25.6 secs

     Computing kpt #:    12  of   211
     total cpu time spent up to now is       27.5 secs

     Computing kpt #:    13  of   211
     total cpu time spent up to now is       29.5 secs

     Computing kpt #:    14  of   211
     total cpu time spent up to now is       31.3 secs

     Computing kpt #:    15  of   211
     total cpu time spent up to now is       33.2 secs

     Computing kpt #:    16  of   211
     total cpu time spent up to now is       35.3 secs

     Computing kpt #:    17  of   211
     total cpu time spent up to now is       37.6 secs

     Computing kpt #:    18  of   211
     total cpu time spent up to now is       39.6 secs

     Computing kpt #:    19  of   211
     total cpu time spent up to now is       42.0 secs

     Computing kpt #:    20  of   211
     total cpu time spent up to now is       44.1 secs

     Computing kpt #:    21  of   211
     total cpu time spent up to now is       46.3 secs

     Computing kpt #:    22  of   211
     total cpu time spent up to now is       48.5 secs

     Computing kpt #:    23  of   211
     total cpu time spent up to now is       50.6 secs

     Computing kpt #:    24  of   211
     total cpu time spent up to now is       54.1 secs

     Computing kpt #:    25  of   211
     total cpu time spent up to now is       58.5 secs

     Computing kpt #:    26  of   211
     total cpu time spent up to now is       60.9 secs

     Computing kpt #:    27  of   211
     total cpu time spent up to now is       63.0 secs

     Computing kpt #:    28  of   211
     total cpu time spent up to now is       65.2 secs

     Computing kpt #:    29  of   211
     total cpu time spent up to now is       67.5 secs

     Computing kpt #:    30  of   211
     total cpu time spent up to now is       69.8 secs

     Computing kpt #:    31  of   211
     total cpu time spent up to now is       72.2 secs

     Computing kpt #:    32  of   211
     total cpu time spent up to now is       74.7 secs

     Computing kpt #:    33  of   211
     total cpu time spent up to now is       77.0 secs

     Computing kpt #:    34  of   211
     total cpu time spent up to now is       79.5 secs

     Computing kpt #:    35  of   211
     total cpu time spent up to now is       81.7 secs

     Computing kpt #:    36  of   211
     total cpu time spent up to now is       84.0 secs

     Computing kpt #:    37  of   211
     total cpu time spent up to now is       86.0 secs

     Computing kpt #:    38  of   211
     total cpu time spent up to now is       90.2 secs

     Computing kpt #:    39  of   211
     total cpu time spent up to now is       92.6 secs

     Computing kpt #:    40  of   211
     total cpu time spent up to now is       95.0 secs

     Computing kpt #:    41  of   211
     total cpu time spent up to now is       97.1 secs

     Computing kpt #:    42  of   211
     total cpu time spent up to now is       99.5 secs

     Computing kpt #:    43  of   211
     total cpu time spent up to now is      101.7 secs

     Computing kpt #:    44  of   211
     total cpu time spent up to now is      103.8 secs

     Computing kpt #:    45  of   211
     total cpu time spent up to now is      105.9 secs

     Computing kpt #:    46  of   211
     total cpu time spent up to now is      107.9 secs

     Computing kpt #:    47  of   211
     total cpu time spent up to now is      109.8 secs

     Computing kpt #:    48  of   211
     total cpu time spent up to now is      111.8 secs

     Computing kpt #:    49  of   211
     total cpu time spent up to now is      113.7 secs

     Computing kpt #:    50  of   211
     total cpu time spent up to now is      115.8 secs

     Computing kpt #:    51  of   211
     total cpu time spent up to now is      117.6 secs

     Computing kpt #:    52  of   211
     total cpu time spent up to now is      119.6 secs

     Computing kpt #:    53  of   211
     total cpu time spent up to now is      121.6 secs

     Computing kpt #:    54  of   211
     total cpu time spent up to now is      123.6 secs

     Computing kpt #:    55  of   211
     total cpu time spent up to now is      125.6 secs

     Computing kpt #:    56  of   211
     total cpu time spent up to now is      127.7 secs

     Computing kpt #:    57  of   211
     total cpu time spent up to now is      129.8 secs

     Computing kpt #:    58  of   211
     total cpu time spent up to now is      132.0 secs

     Computing kpt #:    59  of   211
     total cpu time spent up to now is      133.9 secs

     Computing kpt #:    60  of   211
     total cpu time spent up to now is      136.0 secs

     Computing kpt #:    61  of   211
     total cpu time spent up to now is      138.2 secs

     Computing kpt #:    62  of   211
     total cpu time spent up to now is      140.3 secs

     Computing kpt #:    63  of   211
     total cpu time spent up to now is      142.4 secs

     Computing kpt #:    64  of   211
     total cpu time spent up to now is      144.7 secs

     Computing kpt #:    65  of   211
     total cpu time spent up to now is      147.2 secs

     Computing kpt #:    66  of   211
     total cpu time spent up to now is      149.6 secs

     Computing kpt #:    67  of   211
     total cpu time spent up to now is      151.9 secs

     Computing kpt #:    68  of   211
     total cpu time spent up to now is      154.0 secs

     Computing kpt #:    69  of   211
     total cpu time spent up to now is      156.3 secs

     Computing kpt #:    70  of   211
     total cpu time spent up to now is      158.5 secs

     Computing kpt #:    71  of   211
     total cpu time spent up to now is      161.0 secs

     Computing kpt #:    72  of   211
     total cpu time spent up to now is      163.5 secs

     Computing kpt #:    73  of   211
     total cpu time spent up to now is      166.1 secs

     Computing kpt #:    74  of   211
     total cpu time spent up to now is      168.7 secs

     Computing kpt #:    75  of   211
     total cpu time spent up to now is      171.2 secs

     Computing kpt #:    76  of   211
     total cpu time spent up to now is      173.6 secs

     Computing kpt #:    77  of   211
     total cpu time spent up to now is      176.1 secs

     Computing kpt #:    78  of   211
     total cpu time spent up to now is      178.6 secs

     Computing kpt #:    79  of   211
     total cpu time spent up to now is      181.1 secs

     Computing kpt #:    80  of   211
     total cpu time spent up to now is      183.6 secs

     Computing kpt #:    81  of   211
     total cpu time spent up to now is      186.1 secs

     Computing kpt #:    82  of   211
     total cpu time spent up to now is      188.5 secs

     Computing kpt #:    83  of   211
     total cpu time spent up to now is      190.7 secs

     Computing kpt #:    84  of   211
     total cpu time spent up to now is      192.9 secs

     Computing kpt #:    85  of   211
     total cpu time spent up to now is      195.1 secs

     Computing kpt #:    86  of   211
     total cpu time spent up to now is      197.4 secs

     Computing kpt #:    87  of   211
     total cpu time spent up to now is      199.7 secs

     Computing kpt #:    88  of   211
     total cpu time spent up to now is      202.0 secs

     Computing kpt #:    89  of   211
     total cpu time spent up to now is      204.3 secs

     Computing kpt #:    90  of   211
     total cpu time spent up to now is      206.6 secs

     Computing kpt #:    91  of   211
     total cpu time spent up to now is      208.9 secs

     Computing kpt #:    92  of   211
     total cpu time spent up to now is      211.2 secs

     Computing kpt #:    93  of   211
     total cpu time spent up to now is      213.6 secs

     Computing kpt #:    94  of   211
     total cpu time spent up to now is      216.1 secs

     Computing kpt #:    95  of   211
     total cpu time spent up to now is      218.5 secs

     Computing kpt #:    96  of   211
     total cpu time spent up to now is      220.8 secs

     Computing kpt #:    97  of   211
     total cpu time spent up to now is      223.2 secs

     Computing kpt #:    98  of   211
     total cpu time spent up to now is      225.5 secs

     Computing kpt #:    99  of   211
     total cpu time spent up to now is      227.8 secs

     Computing kpt #:   100  of   211
     total cpu time spent up to now is      230.0 secs

     Computing kpt #:   101  of   211
     total cpu time spent up to now is      232.5 secs

     Computing kpt #:   102  of   211
     total cpu time spent up to now is      234.9 secs

     Computing kpt #:   103  of   211
     total cpu time spent up to now is      238.0 secs

     Computing kpt #:   104  of   211
     total cpu time spent up to now is      240.5 secs

     Computing kpt #:   105  of   211
     total cpu time spent up to now is      243.8 secs

     Computing kpt #:   106  of   211
     total cpu time spent up to now is      246.1 secs

     Computing kpt #:   107  of   211
     total cpu time spent up to now is      248.5 secs

     Computing kpt #:   108  of   211
     total cpu time spent up to now is      250.9 secs

     Computing kpt #:   109  of   211
     total cpu time spent up to now is      253.3 secs

     Computing kpt #:   110  of   211
     total cpu time spent up to now is      255.8 secs

     Computing kpt #:   111  of   211
     total cpu time spent up to now is      258.1 secs

     Computing kpt #:   112  of   211
     total cpu time spent up to now is      260.3 secs

     Computing kpt #:   113  of   211
     total cpu time spent up to now is      262.4 secs

     Computing kpt #:   114  of   211
     total cpu time spent up to now is      264.6 secs

     Computing kpt #:   115  of   211
     total cpu time spent up to now is      266.9 secs

     Computing kpt #:   116  of   211
     total cpu time spent up to now is      269.2 secs

     Computing kpt #:   117  of   211
     total cpu time spent up to now is      271.4 secs

     Computing kpt #:   118  of   211
     total cpu time spent up to now is      273.7 secs

     Computing kpt #:   119  of   211
     total cpu time spent up to now is      276.1 secs

     Computing kpt #:   120  of   211
     total cpu time spent up to now is      278.6 secs

     Computing kpt #:   121  of   211
     total cpu time spent up to now is      281.9 secs

     Computing kpt #:   122  of   211
     total cpu time spent up to now is      284.6 secs

     Computing kpt #:   123  of   211
     total cpu time spent up to now is      287.1 secs

     Computing kpt #:   124  of   211
     total cpu time spent up to now is      289.5 secs

     Computing kpt #:   125  of   211
     total cpu time spent up to now is      292.6 secs

     Computing kpt #:   126  of   211
     total cpu time spent up to now is      295.0 secs

     Computing kpt #:   127  of   211
     total cpu time spent up to now is      297.3 secs

     Computing kpt #:   128  of   211
     total cpu time spent up to now is      299.8 secs

     Computing kpt #:   129  of   211
     total cpu time spent up to now is      302.2 secs

     Computing kpt #:   130  of   211
     total cpu time spent up to now is      304.6 secs

     Computing kpt #:   131  of   211
     total cpu time spent up to now is      306.8 secs

     Computing kpt #:   132  of   211
     total cpu time spent up to now is      309.1 secs

     Computing kpt #:   133  of   211
     total cpu time spent up to now is      311.4 secs

     Computing kpt #:   134  of   211
     total cpu time spent up to now is      313.9 secs

     Computing kpt #:   135  of   211
     total cpu time spent up to now is      316.3 secs

     Computing kpt #:   136  of   211
     total cpu time spent up to now is      318.9 secs

     Computing kpt #:   137  of   211
     total cpu time spent up to now is      321.5 secs

     Computing kpt #:   138  of   211
     total cpu time spent up to now is      323.9 secs

     Computing kpt #:   139  of   211
     total cpu time spent up to now is      326.4 secs

     Computing kpt #:   140  of   211
     total cpu time spent up to now is      328.6 secs

     Computing kpt #:   141  of   211
     total cpu time spent up to now is      331.1 secs

     Computing kpt #:   142  of   211
     total cpu time spent up to now is      333.6 secs

     Computing kpt #:   143  of   211
     total cpu time spent up to now is      335.9 secs

     Computing kpt #:   144  of   211
     total cpu time spent up to now is      338.2 secs

     Computing kpt #:   145  of   211
     total cpu time spent up to now is      340.8 secs

     Computing kpt #:   146  of   211
     total cpu time spent up to now is      343.5 secs

     Computing kpt #:   147  of   211
     total cpu time spent up to now is      345.8 secs

     Computing kpt #:   148  of   211
     total cpu time spent up to now is      348.1 secs

     Computing kpt #:   149  of   211
     total cpu time spent up to now is      350.6 secs

     Computing kpt #:   150  of   211
     total cpu time spent up to now is      352.9 secs

     Computing kpt #:   151  of   211
     total cpu time spent up to now is      355.3 secs

     Computing kpt #:   152  of   211
     total cpu time spent up to now is      357.8 secs

     Computing kpt #:   153  of   211
     total cpu time spent up to now is      360.4 secs

     Computing kpt #:   154  of   211
     total cpu time spent up to now is      362.9 secs

     Computing kpt #:   155  of   211
     total cpu time spent up to now is      365.9 secs

     Computing kpt #:   156  of   211
     total cpu time spent up to now is      368.3 secs

     Computing kpt #:   157  of   211
     total cpu time spent up to now is      370.8 secs

     Computing kpt #:   158  of   211
     total cpu time spent up to now is      373.1 secs

     Computing kpt #:   159  of   211
     total cpu time spent up to now is      375.5 secs

     Computing kpt #:   160  of   211
     total cpu time spent up to now is      377.9 secs

     Computing kpt #:   161  of   211
     total cpu time spent up to now is      380.4 secs

     Computing kpt #:   162  of   211
     total cpu time spent up to now is      382.8 secs

     Computing kpt #:   163  of   211
     total cpu time spent up to now is      385.1 secs

     Computing kpt #:   164  of   211
     total cpu time spent up to now is      387.2 secs

     Computing kpt #:   165  of   211
     total cpu time spent up to now is      389.4 secs

     Computing kpt #:   166  of   211
     total cpu time spent up to now is      391.6 secs

     Computing kpt #:   167  of   211
     total cpu time spent up to now is      394.0 secs

     Computing kpt #:   168  of   211
     total cpu time spent up to now is      396.4 secs

     Computing kpt #:   169  of   211
     total cpu time spent up to now is      398.5 secs

     Computing kpt #:   170  of   211
     total cpu time spent up to now is      400.7 secs

     Computing kpt #:   171  of   211
     total cpu time spent up to now is      402.8 secs

     Computing kpt #:   172  of   211
     total cpu time spent up to now is      404.9 secs

     Computing kpt #:   173  of   211
     total cpu time spent up to now is      407.0 secs

     Computing kpt #:   174  of   211
     total cpu time spent up to now is      409.0 secs

     Computing kpt #:   175  of   211
     total cpu time spent up to now is      411.1 secs

     Computing kpt #:   176  of   211
     total cpu time spent up to now is      413.1 secs

     Computing kpt #:   177  of   211
     total cpu time spent up to now is      415.3 secs

     Computing kpt #:   178  of   211
     total cpu time spent up to now is      417.7 secs

     Computing kpt #:   179  of   211
     total cpu time spent up to now is      420.7 secs

     Computing kpt #:   180  of   211
     total cpu time spent up to now is      423.4 secs

     Computing kpt #:   181  of   211
     total cpu time spent up to now is      425.8 secs

     Computing kpt #:   182  of   211
     total cpu time spent up to now is      428.1 secs

     Computing kpt #:   183  of   211
     total cpu time spent up to now is      430.5 secs

     Computing kpt #:   184  of   211
     total cpu time spent up to now is      432.9 secs

     Computing kpt #:   185  of   211
     total cpu time spent up to now is      435.3 secs

     Computing kpt #:   186  of   211
     total cpu time spent up to now is      437.7 secs

     Computing kpt #:   187  of   211
     total cpu time spent up to now is      440.3 secs

     Computing kpt #:   188  of   211
     total cpu time spent up to now is      442.8 secs

     Computing kpt #:   189  of   211
     total cpu time spent up to now is      445.1 secs

     Computing kpt #:   190  of   211
     total cpu time spent up to now is      447.6 secs

     Computing kpt #:   191  of   211
     total cpu time spent up to now is      449.7 secs

     Computing kpt #:   192  of   211
     total cpu time spent up to now is      451.9 secs

     Computing kpt #:   193  of   211
     total cpu time spent up to now is      454.1 secs

     Computing kpt #:   194  of   211
     total cpu time spent up to now is      456.6 secs

     Computing kpt #:   195  of   211
     total cpu time spent up to now is      458.8 secs

     Computing kpt #:   196  of   211
     total cpu time spent up to now is      461.2 secs

     Computing kpt #:   197  of   211
     total cpu time spent up to now is      463.5 secs

     Computing kpt #:   198  of   211
     total cpu time spent up to now is      465.9 secs

     Computing kpt #:   199  of   211
     total cpu time spent up to now is      468.2 secs

     Computing kpt #:   200  of   211
     total cpu time spent up to now is      470.6 secs

     Computing kpt #:   201  of   211
     total cpu time spent up to now is      473.1 secs

     Computing kpt #:   202  of   211
     total cpu time spent up to now is      475.4 secs

     Computing kpt #:   203  of   211
     total cpu time spent up to now is      477.7 secs

     Computing kpt #:   204  of   211
     total cpu time spent up to now is      480.1 secs

     Computing kpt #:   205  of   211
     total cpu time spent up to now is      482.4 secs

     Computing kpt #:   206  of   211
     total cpu time spent up to now is      484.8 secs

     Computing kpt #:   207  of   211
     total cpu time spent up to now is      487.2 secs

     Computing kpt #:   208  of   211
     total cpu time spent up to now is      489.6 secs

     Computing kpt #:   209  of   211
     total cpu time spent up to now is      492.0 secs

     Computing kpt #:   210  of   211
     total cpu time spent up to now is      494.4 secs

     Computing kpt #:   211  of   211
     total cpu time spent up to now is      497.6 secs

     ethr =  1.28E-10,  avg # of iterations = 58.8

     total cpu time spent up to now is      497.6 secs

     End of band structure calculation

          k = 0.0000 0.0000 0.0000 ( 14667 PWs)   bands (ev):

   -34.7036 -34.7034 -34.6982 -34.6980 -34.6738 -34.6702 -34.6684 -34.6649
   -34.6608 -34.6554 -34.5954 -34.5874 -34.5805 -34.5485 -34.5480 -27.4701
   -27.4699 -27.4662 -27.4660 -27.4620 -27.4586 -27.4582 -27.4573 -27.4548
   -27.4535 -10.6627 -10.1291  -9.0482  -6.2982  -4.9093  -0.1737   0.1080
     0.2779   0.3377   0.4636   0.7835   0.9462   1.0444   1.2794   2.2866
     2.7714   2.8443   3.7322   3.8660   3.9112   6.2142   6.4073   6.9807
     7.5298   7.6133   7.8174   8.3973   8.6215   8.7707   8.8465   9.1425
     9.5919   9.6944  10.0259  10.1270  10.5292  11.0521  11.3391  11.4663
    11.5434  11.6790  12.8132  12.8703  13.8711  14.1340  14.1378  14.2493
    14.4035  15.0820  15.7467  16.0142  16.0466  16.0891  16.2504  16.3545
    16.6914  17.0872  17.1063  17.1423  17.3529  17.3574  17.4505  17.4819
    17.5514  17.6424  17.7045  17.8223  17.8913  18.1582  19.0098  19.0782
    19.1447  19.2580  19.3135  19.4127

          k = 0.0071 0.0041 0.0000 ( 14665 PWs)   bands (ev):

   -34.7036 -34.7034 -34.6982 -34.6980 -34.6738 -34.6702 -34.6684 -34.6649
   -34.6608 -34.6554 -34.5954 -34.5874 -34.5805 -34.5485 -34.5480 -27.4701
   -27.4699 -27.4662 -27.4660 -27.4620 -27.4586 -27.4582 -27.4573 -27.4548
   -27.4535 -10.6622 -10.1287  -9.0480  -6.2983  -4.9101  -0.1749   0.1026
     0.2735   0.3355   0.4626   0.7857   0.9446   1.0452   1.2839   2.2928
     2.7677   2.8445   3.7367   3.8662   3.9112   6.2150   6.4075   6.9809
     7.5268   7.6132   7.8178   8.4003   8.6204   8.7675   8.8479   9.1415
     9.5978   9.6967  10.0245  10.1294  10.5316  11.0514  11.3337  11.4354
    11.5776  11.6859  12.8124  12.8716  13.8582  14.1078  14.1573  14.2643
    14.4075  15.0850  15.7257  15.9879  16.0389  16.1273  16.2627  16.3557
    16.6941  16.9945  17.0927  17.2261  17.3133  17.3477  17.4116  17.5479
    17.5640  17.6417  17.7110  17.8412  17.9024  18.1695  18.9428  19.0388
    19.1975  19.2365  19.3313  19.3840

          k = 0.0143 0.0082 0.0000 ( 14659 PWs)   bands (ev):

   -34.7036 -34.7034 -34.6982 -34.6980 -34.6738 -34.6702 -34.6684 -34.6649
   -34.6608 -34.6554 -34.5954 -34.5874 -34.5805 -34.5485 -34.5480 -27.4701
   -27.4699 -27.4662 -27.4660 -27.4620 -27.4586 -27.4582 -27.4573 -27.4548
   -27.4535 -10.6609 -10.1275  -9.0473  -6.2985  -4.9124  -0.1786   0.0868
     0.2614   0.3283   0.4601   0.7906   0.9408   1.0475   1.2973   2.3111
     2.7565   2.8455   3.7498   3.8665   3.9114   6.2174   6.4080   6.9814
     7.5180   7.6132   7.8190   8.4091   8.6169   8.7578   8.8527   9.1386
     9.6144   9.7035  10.0205  10.1366  10.5388  11.0486  11.3182  11.3881
    11.6358  11.7057  12.8101  12.8756  13.8246  14.0696  14.1823  14.2966
    14.4205  15.0926  15.6735  15.9473  16.0222  16.1920  16.2914  16.3616
    16.7022  16.8796  17.0469  17.2424  17.2624  17.3736  17.4082  17.5277
    17.6150  17.6886  17.7363  17.8910  17.9365  18.2004  18.8330  18.9546
    19.1514  19.3121  19.3312  19.3756

          k = 0.0214 0.0124 0.0000 ( 14651 PWs)   bands (ev):

   -34.7036 -34.7034 -34.6982 -34.6980 -34.6738 -34.6702 -34.6684 -34.6649
   -34.6608 -34.6554 -34.5954 -34.5874 -34.5805 -34.5485 -34.5480 -27.4701
   -27.4699 -27.4662 -27.4660 -27.4620 -27.4586 -27.4582 -27.4573 -27.4548
   -27.4535 -10.6588 -10.1255  -9.0461  -6.2988  -4.9163  -0.1851   0.0613
     0.2440   0.3153   0.4565   0.7936   0.9380   1.0513   1.3195   2.3404
     2.7381   2.8482   3.7698   3.8662   3.9133   6.2214   6.4087   6.9821
     7.5034   7.6134   7.8213   8.4230   8.6104   8.7428   8.8620   9.1344
     9.6394   9.7146  10.0146  10.1486  10.5510  11.0425  11.2937  11.3465
    11.6979  11.7358  12.8067  12.8819  13.7790  14.0268  14.2073  14.3339
    14.4450  15.0997  15.6109  15.9048  16.0015  16.2533  16.3189  16.3818
    16.7059  16.7800  16.9638  17.1862  17.2334  17.3756  17.4609  17.5066
    17.6689  17.6887  17.8349  17.9625  17.9900  18.2443  18.7212  18.8495
    19.0861  19.2923  19.3493  19.3975

          k = 0.0286 0.0165 0.0000 ( 14645 PWs)   bands (ev):

   -34.7036 -34.7034 -34.6982 -34.6980 -34.6738 -34.6702 -34.6684 -34.6649
   -34.6608 -34.6554 -34.5954 -34.5874 -34.5805 -34.5484 -34.5480 -27.4701
   -27.4699 -27.4662 -27.4660 -27.4620 -27.4586 -27.4582 -27.4573 -27.4548
   -27.4535 -10.6558 -10.1227  -9.0444  -6.2993  -4.9217  -0.1951   0.0274
     0.2230   0.2971   0.4523   0.7869   0.9425   1.0562   1.3496   2.3791
     2.7138   2.8529   3.7938   3.8650   3.9190   6.2269   6.4098   6.9830
     7.4837   7.6139   7.8252   8.4410   8.5996   8.7255   8.8756   9.1294
     9.6696   9.7294  10.0085  10.1656  10.5683  11.0309  11.2625  11.3161
    11.7584  11.7762  12.8023  12.8903  13.7277  13.9828  14.2265  14.3739
    14.4806  15.0976  15.5561  15.8612  15.9771  16.2916  16.3392  16.4226
    16.6389  16.7634  16.8682  17.1276  17.2147  17.3392  17.4311  17.5920
    17.6696  17.7499  17.9345  18.0533  18.0555  18.2934  18.6189  18.7355
    19.0206  19.2448  19.3254  19.3930

          k = 0.0357 0.0206 0.0000 ( 14656 PWs)   bands (ev):

   -34.7036 -34.7034 -34.6982 -34.6980 -34.6738 -34.6702 -34.6684 -34.6649
   -34.6608 -34.6554 -34.5954 -34.5874 -34.5805 -34.5484 -34.5480 -27.4701
   -27.4699 -27.4662 -27.4660 -27.4620 -27.4586 -27.4581 -27.4573 -27.4548
   -27.4535 -10.6519 -10.1192  -9.0422  -6.2999  -4.9287  -0.2094  -0.0127
     0.1999   0.2749   0.4473   0.7656   0.9588   1.0623   1.3858   2.4255
     2.6857   2.8598   3.8157   3.8652   3.9311   6.2340   6.4111   6.9838
     7.4597   7.6148   7.8309   8.4618   8.5832   8.7100   8.8930   9.1243
     9.7007   9.7470  10.0045  10.1876  10.5910  11.0121  11.2302  11.2957
    11.8080  11.8324  12.7972  12.9006  13.6744  13.9391  14.2391  14.4168
    14.5236  15.0757  15.5236  15.8178  15.9479  16.2916  16.3608  16.4733
    16.5520  16.7237  16.8414  17.0734  17.1896  17.2995  17.3890  17.6649
    17.6852  17.8354  18.0203  18.1221  18.1602  18.3343  18.5469  18.6180
    18.9562  19.1942  19.2866  19.3542

          k = 0.0429 0.0247 0.0000 ( 14656 PWs)   bands (ev):

   -34.7036 -34.7034 -34.6982 -34.6980 -34.6738 -34.6702 -34.6684 -34.6649
   -34.6608 -34.6554 -34.5954 -34.5874 -34.5805 -34.5484 -34.5480 -27.4700
   -27.4699 -27.4662 -27.4660 -27.4620 -27.4587 -27.4581 -27.4573 -27.4548
   -27.4535 -10.6472 -10.1149  -9.0396  -6.3007  -4.9373  -0.2297  -0.0563
     0.1755   0.2501   0.4414   0.7311   0.9853   1.0693   1.4258   2.4766
     2.6569   2.8686   3.8247   3.8741   3.9519   6.2425   6.4126   6.9842
     7.4325   7.6160   7.8386   8.4838   8.5610   8.6989   8.9136   9.1195
     9.7281   9.7666  10.0066  10.2143  10.6191  10.9854  11.2010  11.2834
    11.8541  11.8948  12.7914  12.9127  13.6214  13.8962  14.2479  14.4614
    14.5694  15.0297  15.5191  15.7763  15.9125  16.2579  16.3703  16.4819
    16.5277  16.6364  16.8845  17.0296  17.1543  17.2589  17.3492  17.6752
    17.7711  17.9263  18.0886  18.1698  18.2709  18.3581  18.4991  18.5455
    18.8931  19.1432  19.2434  19.3057

          k = 0.0500 0.0289 0.0000 ( 14654 PWs)   bands (ev):

   -34.7036 -34.7034 -34.6982 -34.6980 -34.6738 -34.6702 -34.6684 -34.6649
   -34.6608 -34.6554 -34.5954 -34.5874 -34.5805 -34.5484 -34.5480 -27.4700
   -27.4699 -27.4662 -27.4660 -27.4619 -27.4587 -27.4581 -27.4573 -27.4549
   -27.4535 -10.6416 -10.1098  -9.0365  -6.3017  -4.9474  -0.2580  -0.1003
     0.1504   0.2237   0.4341   0.6873   1.0183   1.0775   1.4672   2.5265
     2.6342   2.8794   3.8198   3.8905   3.9826   6.2524   6.4143   6.9838
     7.4034   7.6175   7.8482   8.5015   8.5389   8.6928   8.9368   9.1156
     9.7457   9.7887  10.0189  10.2455  10.6530  10.9525  11.1755  11.2782
    11.9016  11.9566  12.7850  12.9265  13.5705  13.8546  14.2560  14.5055
    14.6123  14.9681  15.5352  15.7380  15.8700  16.1948  16.3703  16.4122
    16.5653  16.5934  16.9124  17.0195  17.1125  17.2204  17.3101  17.7003
    17.8500  18.0147  18.0948  18.2094  18.3647  18.3921  18.4180  18.6043
    18.8319  19.0935  19.2006  19.2552

          k = 0.0571 0.0330 0.0000 ( 14649 PWs)   bands (ev):

   -34.7036 -34.7034 -34.6982 -34.6980 -34.6739 -34.6702 -34.6684 -34.6649
   -34.6608 -34.6554 -34.5954 -34.5874 -34.5805 -34.5484 -34.5480 -27.4700
   -27.4699 -27.4661 -27.4660 -27.4619 -27.4587 -27.4581 -27.4573 -27.4549
   -27.4535 -10.6352 -10.1039  -9.0330  -6.3028  -4.9590  -0.2964  -0.1414
     0.1253   0.1965   0.4254   0.6376   1.0539   1.0879   1.5074   2.5521
     2.6412   2.8919   3.8089   3.9074   4.0215   6.2637   6.4162   6.9822
     7.3739   7.6191   7.8599   8.4898   8.5435   8.6906   8.9621   9.1133
     9.7497   9.8139  10.0437  10.2805  10.6924  10.9164  11.1533  11.2786
    11.9503  12.0165  12.7784  12.9418  13.5232  13.8147  14.2651  14.5467
    14.6415  14.9099  15.5568  15.7052  15.8205  16.1224  16.3096  16.3789
    16.5607  16.6255  16.8995  17.0459  17.0745  17.1928  17.2742  17.7314
    17.9169  18.0358  18.0976  18.2672  18.2876  18.4826  18.5000  18.6878
    18.7758  19.0465  19.1626  19.2061

          k = 0.0643 0.0371 0.0000 ( 14648 PWs)   bands (ev):

   -34.7036 -34.7033 -34.6982 -34.6980 -34.6739 -34.6702 -34.6684 -34.6649
   -34.6608 -34.6554 -34.5954 -34.5874 -34.5805 -34.5484 -34.5480 -27.4700
   -27.4699 -27.4661 -27.4660 -27.4619 -27.4587 -27.4581 -27.4573 -27.4549
   -27.4535 -10.6279 -10.0972  -9.0289  -6.3042  -4.9722  -0.3454  -0.1786
     0.1004   0.1689   0.4153   0.5844   1.0824   1.1082   1.5441   2.5422
     2.6900   2.9062   3.7958   3.9240   4.0654   6.2763   6.4180   6.9785
     7.3454   7.6209   7.8736   8.4599   8.5650   8.6908   8.9888   9.1132
     9.7421   9.8411  10.0799  10.3183  10.7370  10.8802  11.1343  11.2829
    11.9997  12.0733  12.7718  12.9581  13.4811  13.7767  14.2758  14.5801
    14.6379  14.8837  15.5634  15.6820  15.7664  16.0599  16.2051  16.3820
    16.5644  16.6486  16.8850  17.0163  17.0759  17.1802  17.2639  17.7426
    17.9418  18.0283  18.1000  18.2541  18.3520  18.5686  18.5999  18.7097
    18.7935  19.0041  19.1332  19.1664

          k = 0.0714 0.0412 0.0000 ( 14642 PWs)   bands (ev):

   -34.7036 -34.7033 -34.6982 -34.6979 -34.6739 -34.6702 -34.6684 -34.6649
   -34.6608 -34.6554 -34.5954 -34.5874 -34.5805 -34.5484 -34.5480 -27.4700
   -27.4699 -27.4661 -27.4660 -27.4619 -27.4587 -27.4581 -27.4573 -27.4549
   -27.4535 -10.6197 -10.0898  -9.0245  -6.3058  -4.9869  -0.4029  -0.2126
     0.0755   0.1411   0.4037   0.5294   1.0960   1.1452   1.5749   2.5260
     2.7521   2.9224   3.7821   3.9407   4.1120   6.2901   6.4199   6.9722
     7.3195   7.6227   7.8891   8.4285   8.5880   8.6920   9.0161   9.1165
     9.7271   9.8689  10.1244  10.3574  10.7841  10.8490  11.1190  11.2898
    12.0491  12.1261  12.7657  12.9749  13.4459  13.7411  14.2863  14.5682
    14.6311  14.9022  15.5347  15.6693  15.7128  16.0189  16.1049  16.3853
    16.5734  16.6467  16.8836  16.9764  17.0658  17.1525  17.3074  17.6999
    17.9642  17.9782  18.1164  18.3209  18.4238  18.6251  18.6581  18.7211
    18.8694  18.9706  19.1013  19.1692

          k = 0.0786 0.0454 0.0000 ( 14641 PWs)   bands (ev):

   -34.7036 -34.7033 -34.6982 -34.6979 -34.6739 -34.6702 -34.6684 -34.6649
   -34.6607 -34.6553 -34.5954 -34.5874 -34.5805 -34.5484 -34.5480 -27.4700
   -27.4698 -27.4661 -27.4660 -27.4619 -27.4588 -27.4581 -27.4573 -27.4549
   -27.4535 -10.6107 -10.0816  -9.0196  -6.3076  -5.0032  -0.4667  -0.2450
     0.0503   0.1130   0.3907   0.4743   1.1056   1.1870   1.5974   2.5148
     2.8165   2.9408   3.7688   3.9581   4.1598   6.3049   6.4215   6.9625
     7.2974   7.6247   7.9065   8.3984   8.6106   8.6932   9.0425   9.1249
     9.7081   9.8969  10.1745  10.3960  10.8006  10.8578  11.1077  11.2981
    12.0981  12.1741  12.7607  12.9914  13.4191  13.7082  14.2894  14.5075
    14.6521  14.9460  15.4705  15.6572  15.6602  15.9766  16.0462  16.3855
    16.5818  16.6279  16.8745  16.9521  17.0524  17.1246  17.3657  17.6293
    17.8676  18.0247  18.1832  18.4004  18.4851  18.6011  18.7001  18.7973
    18.9102  18.9702  19.0734  19.2337

          k = 0.0857 0.0495 0.0000 ( 14641 PWs)   bands (ev):

   -34.7036 -34.7033 -34.6982 -34.6979 -34.6739 -34.6702 -34.6684 -34.6649
   -34.6607 -34.6553 -34.5954 -34.5874 -34.5805 -34.5484 -34.5480 -27.4699
   -27.4698 -27.4661 -27.4659 -27.4619 -27.4588 -27.4581 -27.4573 -27.4550
   -27.4535 -10.6009 -10.0726  -9.0143  -6.3096  -5.0209  -0.5345  -0.2771
     0.0243   0.0844   0.3763   0.4209   1.1141   1.2299   1.6098   2.5122
     2.8788   2.9630   3.7573   3.9764   4.2079   6.3208   6.4228   6.9491
     7.2803   7.6269   7.9255   8.3708   8.6323   8.6934   9.0654   9.1410
     9.6876   9.9243  10.2281  10.4319  10.7814  10.9137  11.1013  11.3072
    12.1456  12.2165  12.7576  13.0067  13.4024  13.6785  14.2655  14.4642
    14.6698  14.9993  15.3840  15.5913  15.6528  15.8986  16.0622  16.3794
    16.5696  16.6226  16.8403  16.9440  17.0298  17.1286  17.3917  17.5868
    17.7548  18.0976  18.2518  18.4779  18.4973  18.6081  18.7344  18.8235
    18.9097  19.0191  19.0951  19.3404

          k = 0.0929 0.0536 0.0000 ( 14631 PWs)   bands (ev):

   -34.7035 -34.7033 -34.6981 -34.6979 -34.6739 -34.6702 -34.6684 -34.6649
   -34.6607 -34.6553 -34.5953 -34.5874 -34.5805 -34.5484 -34.5480 -27.4699
   -27.4698 -27.4661 -27.4659 -27.4619 -27.4588 -27.4581 -27.4573 -27.4550
   -27.4535 -10.5902 -10.0628  -9.0085  -6.3119  -5.0402  -0.6049  -0.3095
    -0.0028   0.0542   0.3604   0.3711   1.1220   1.2730   1.6111   2.5194
     2.9325   2.9930   3.7486   3.9957   4.2554   6.3374   6.4235   6.9319
     7.2687   7.6293   7.9463   8.3464   8.6530   8.6916   9.0837   9.1662
     9.6675   9.9507  10.2834  10.4623  10.7679  10.9773  11.1011  11.3169
    12.1906  12.2528  12.7569  13.0203  13.3967  13.6525  14.2011  14.4620
    14.6800  15.0545  15.2877  15.5084  15.6542  15.8233  16.1041  16.3651
    16.5336  16.6407  16.7954  16.9288  17.0005  17.1664  17.3516  17.6065
    17.6515  18.1741  18.3135  18.4625  18.5477  18.6540  18.7612  18.8134
    18.9026  19.0583  19.1987  19.4669

          k = 0.1000 0.0577 0.0000 ( 14634 PWs)   bands (ev):

   -34.7035 -34.7033 -34.6981 -34.6979 -34.6739 -34.6702 -34.6684 -34.6649
   -34.6607 -34.6553 -34.5953 -34.5874 -34.5805 -34.5484 -34.5480 -27.4699
   -27.4698 -27.4661 -27.4659 -27.4619 -27.4588 -27.4580 -27.4573 -27.4550
   -27.4535 -10.5787 -10.0524  -9.0023  -6.3146  -5.0610  -0.6770  -0.3422
    -0.0313   0.0209   0.3257   0.3443   1.1294   1.3157   1.6012   2.5365
     2.9708   3.0361   3.7445   4.0162   4.3019   6.3543   6.4237   6.9119
     7.2626   7.6322   7.9686   8.3255   8.6718   8.6881   9.0989   9.1989
     9.6490   9.9758  10.3380  10.4851  10.7673  11.0403  11.1113  11.3275
    12.2308  12.2840  12.7594  13.0327  13.4018  13.6308  14.1134  14.4872
    14.6823  15.0959  15.2000  15.4136  15.6633  15.7576  16.1549  16.3422
    16.4916  16.6666  16.7485  16.8973  16.9741  17.2171  17.2952  17.5252
    17.6868  18.2457  18.3503  18.4356  18.5991  18.6906  18.7902  18.8112
    18.9002  19.1162  19.3261  19.6009

          k = 0.1071 0.0619 0.0000 ( 14644 PWs)   bands (ev):

   -34.7035 -34.7033 -34.6981 -34.6979 -34.6739 -34.6702 -34.6684 -34.6649
   -34.6607 -34.6553 -34.5953 -34.5874 -34.5805 -34.5484 -34.5480 -27.4699
   -27.4697 -27.4661 -27.4658 -27.4618 -27.4589 -27.4580 -27.4573 -27.4550
   -27.4535 -10.5663 -10.0412  -8.9958  -6.3176  -5.0833  -0.7502  -0.3752
    -0.0610  -0.0170   0.2880   0.3265   1.1360   1.3577   1.5811   2.5624
     2.9984   3.0857   3.7466   4.0377   4.3470   6.3709   6.4235   6.8902
     7.2614   7.6356   7.9925   8.3086   8.6757   8.6954   9.1136   9.2363
     9.6333   9.9991  10.3880  10.5017  10.7823  11.0852  11.1479  11.3399
    12.2620  12.3130  12.7650  13.0452  13.4159  13.6142  14.0187  14.5257
    14.6769  15.0464  15.1949  15.3170  15.6691  15.7105  16.2074  16.3126
    16.4476  16.6867  16.7092  16.8571  16.9350  17.2377  17.2979  17.4205
    17.7588  18.2952  18.3431  18.4435  18.6311  18.7057  18.7998  18.8560
    18.9321  19.1871  19.4594  19.7302

          k = 0.1143 0.0660 0.0000 ( 14640 PWs)   bands (ev):

   -34.7035 -34.7033 -34.6981 -34.6979 -34.6739 -34.6702 -34.6684 -34.6649
   -34.6607 -34.6553 -34.5953 -34.5874 -34.5805 -34.5484 -34.5480 -27.4699
   -27.4697 -27.4661 -27.4658 -27.4618 -27.4589 -27.4580 -27.4573 -27.4551
   -27.4535 -10.5531 -10.0292  -8.9888  -6.3210  -5.1069  -0.8238  -0.4082
    -0.0919  -0.0604   0.2577   0.3079   1.1419   1.3987   1.5521   2.5953
     3.0227   3.1327   3.7566   4.0603   4.3904   6.3845   6.4248   6.8685
     7.2645   7.6398   8.0179   8.2958   8.6650   8.7133   9.1294   9.2762
     9.6212  10.0203  10.4246  10.5212  10.8117  11.1094  11.2114  11.3563
    12.2803  12.3435  12.7736  13.0598  13.4351  13.6034  13.9246  14.5720
    14.6645  14.9448  15.1733  15.2837  15.6300  15.7204  16.2495  16.2860
    16.4038  16.6498  16.7182  16.8221  16.8733  17.2303  17.3265  17.3635
    17.8323  18.2782  18.3554  18.4542  18.6399  18.7235  18.8177  18.9241
    18.9975  19.2640  19.5929  19.7519

          k = 0.1214 0.0701 0.0000 ( 14633 PWs)   bands (ev):

   -34.7035 -34.7033 -34.6981 -34.6979 -34.6739 -34.6702 -34.6684 -34.6649
   -34.6607 -34.6553 -34.5953 -34.5874 -34.5805 -34.5484 -34.5480 -27.4699
   -27.4696 -27.4661 -27.4658 -27.4618 -27.4589 -27.4580 -27.4574 -27.4551
   -27.4535 -10.5391 -10.0164  -8.9815  -6.3247  -5.1321  -0.8977  -0.4412
    -0.1240  -0.1089   0.2347   0.2887   1.1471   1.4380   1.5161   2.6332
     3.0460   3.1735   3.7761   4.0841   4.4320   6.3895   6.4324   6.8483
     7.2711   7.6450   8.0448   8.2872   8.6499   8.7314   9.1471   9.3171
     9.6134  10.0395  10.4399  10.5538  10.8525  11.1324  11.2772  11.3820
    12.2871  12.3743  12.7846  13.0784  13.4530  13.5992  13.8379  14.6229
    14.6469  14.8381  15.0724  15.3332  15.5792  15.7511  16.2283  16.3067
    16.3692  16.6045  16.6996  16.7769  16.8406  17.1756  17.3212  17.4253
    17.9036  18.2368  18.3604  18.4524  18.6213  18.7661  18.8612  19.0041
    19.0768  19.3421  19.6500  19.7304

          k = 0.1286 0.0742 0.0000 ( 14635 PWs)   bands (ev):

   -34.7035 -34.7033 -34.6981 -34.6979 -34.6739 -34.6702 -34.6684 -34.6649
   -34.6607 -34.6553 -34.5953 -34.5874 -34.5805 -34.5484 -34.5479 -27.4699
   -27.4696 -27.4661 -27.4657 -27.4618 -27.4590 -27.4580 -27.4574 -27.4551
   -27.4535 -10.5242 -10.0030  -8.9738  -6.3289  -5.1586  -0.9715  -0.4740
    -0.1650  -0.1535   0.2177   0.2692   1.1514   1.4664   1.4840   2.6738
     3.0691   3.2072   3.8054   4.1088   4.4717   6.3840   6.4477   6.8311
     7.2806   7.6514   8.0732   8.2829   8.6314   8.7492   9.1671   9.3575
     9.6107  10.0564  10.4412  10.5947  10.9011  11.1595  11.3305  11.4271
    12.2856  12.4025  12.7971  13.1023  13.4584  13.6018  13.7697  14.6215
    14.6782  14.7338  14.9622  15.3920  15.5295  15.7876  16.1872  16.2893
    16.3864  16.5598  16.6403  16.7044  16.8691  17.0861  17.3743  17.4897
    17.9698  18.1956  18.3463  18.4399  18.5909  18.8239  18.9286  19.0878
    19.1624  19.4094  19.5634  19.8028

          k = 0.1357 0.0784 0.0000 ( 14640 PWs)   bands (ev):

   -34.7035 -34.7033 -34.6981 -34.6979 -34.6739 -34.6702 -34.6684 -34.6649
   -34.6607 -34.6553 -34.5953 -34.5874 -34.5805 -34.5484 -34.5479 -27.4699
   -27.4695 -27.4661 -27.4657 -27.4618 -27.4590 -27.4579 -27.4574 -27.4552
   -27.4535 -10.5085  -9.9888  -8.9657  -6.3336  -5.1866  -1.0450  -0.5063
    -0.2210  -0.1870   0.2049   0.2499   1.1549   1.4257   1.5147   2.7149
     3.0920   3.2347   3.8440   4.1346   4.5096   6.3713   6.4667   6.8182
     7.2924   7.6592   8.1030   8.2827   8.6100   8.7664   9.1896   9.3959
     9.6136  10.0712  10.4384  10.6352  10.9550  11.1917  11.3701  11.4931
    12.2784  12.4265  12.8110  13.1318  13.4358  13.6099  13.7359  14.5934
    14.6251  14.7389  14.8542  15.4505  15.4829  15.8265  16.1433  16.2435
    16.4267  16.5111  16.5612  16.6456  16.9023  17.0052  17.4480  17.5509
    18.0255  18.1606  18.3213  18.4224  18.5574  18.8896  19.0084  19.1695
    19.2502  19.3993  19.5557  19.7340

          k = 0.1429 0.0825 0.0000 ( 14654 PWs)   bands (ev):

   -34.7035 -34.7033 -34.6981 -34.6979 -34.6739 -34.6702 -34.6684 -34.6649
   -34.6607 -34.6553 -34.5953 -34.5875 -34.5805 -34.5484 -34.5479 -27.4699
   -27.4695 -27.4661 -27.4656 -27.4617 -27.4591 -27.4579 -27.4574 -27.4552
[...]
     9.8184  10.0844  10.3491  10.7596  11.0156  11.0936  11.2952  11.6080
    12.4378  12.4936  12.8931  13.0978  13.4041  13.5727  13.8217  14.1912
    14.8378  14.9278  15.1186  15.1999  15.3152  15.4535  15.7383  16.4061
    16.5463  16.5684  16.8244  16.9717  17.0781  17.2645  17.3590  17.5946
    17.6503  17.7905  17.8567  17.9379  18.5591  19.1899  19.3543  19.4555
    19.4928  19.6280  19.6792  19.8174

          k = 0.0762 0.1337 0.0000 ( 14643 PWs)   bands (ev):

   -34.7036 -34.7032 -34.6982 -34.6978 -34.6739 -34.6703 -34.6684 -34.6649
   -34.6607 -34.6553 -34.5953 -34.5874 -34.5805 -34.5483 -34.5480 -27.4701
   -27.4694 -27.4662 -27.4655 -27.4617 -27.4589 -27.4579 -27.4575 -27.4550
   -27.4537 -10.5140  -9.9933  -8.9673  -6.3270  -5.1638  -0.9023  -0.5526
    -0.3241  -0.1282   0.1530   0.4606   0.8303   1.5272   1.5996   2.6904
     2.9403   3.2184   3.9441   4.0745   4.5143   6.4398   6.4572   6.8728
     7.1460   7.6506   8.1039   8.4178   8.5188   8.7202   8.9994   9.4712
     9.7925  10.0335  10.3629  10.7069  10.9569  11.1161  11.2306  11.5272
    12.4180  12.4544  12.8995  13.0447  13.3648  13.5870  13.9014  14.2711
    14.8042  15.0253  15.0909  15.2665  15.3885  15.5212  15.7502  16.3775
    16.5217  16.5378  16.8665  16.9741  17.1111  17.3361  17.3965  17.5677
    17.6681  17.7572  17.8563  17.9111  18.4404  19.0870  19.3509  19.4367
    19.5147  19.6090  19.7599  19.7831

          k = 0.0714 0.1254 0.0000 ( 14643 PWs)   bands (ev):

   -34.7036 -34.7032 -34.6982 -34.6978 -34.6739 -34.6703 -34.6684 -34.6649
   -34.6607 -34.6553 -34.5953 -34.5874 -34.5805 -34.5483 -34.5480 -27.4701
   -27.4695 -27.4662 -27.4656 -27.4617 -27.4588 -27.4579 -27.4575 -27.4550
   -27.4537 -10.5319 -10.0095  -8.9767  -6.3225  -5.1333  -0.8269  -0.4956
    -0.2573  -0.1022   0.1689   0.4823   0.8555   1.4963   1.6049   2.6910
     2.8722   3.1950   3.9328   4.0102   4.4734   6.4243   6.4459   6.8956
     7.1653   7.6365   8.0514   8.4273   8.5075   8.7452   8.9786   9.4315
     9.7705   9.9864  10.3819  10.6457  10.8987  11.1302  11.1832  11.4502
    12.3862  12.4134  12.9159  13.0041  13.3246  13.5956  13.9872  14.3545
    14.7645  15.0086  15.1439  15.3425  15.4865  15.5651  15.8067  16.3340
    16.4824  16.5218  16.8607  16.9665  17.1786  17.3937  17.4425  17.5446
    17.6835  17.7490  17.8780  17.9023  18.3218  18.9725  19.3012  19.4032
    19.5257  19.5798  19.6557  19.8271

          k = 0.0667 0.1170 0.0000 ( 14639 PWs)   bands (ev):

   -34.7036 -34.7032 -34.6982 -34.6978 -34.6739 -34.6703 -34.6684 -34.6649
   -34.6607 -34.6553 -34.5953 -34.5874 -34.5805 -34.5483 -34.5480 -27.4701
   -27.4695 -27.4662 -27.4656 -27.4618 -27.4588 -27.4580 -27.4575 -27.4550
   -27.4537 -10.5486 -10.0247  -8.9856  -6.3186  -5.1047  -0.7509  -0.4424
    -0.1879  -0.0762   0.1835   0.5039   0.8798   1.4542   1.6162   2.6894
     2.8079   3.1691   3.9136   3.9616   4.4299   6.4013   6.4422   6.9162
     7.1889   7.6253   8.0023   8.4371   8.5039   8.7550   8.9693   9.3887
     9.7531   9.9441  10.4035  10.5777  10.8428  11.1114  11.1704  11.3825
    12.3391  12.3772  12.9118  13.0010  13.2880  13.6011  14.0750  14.4345
    14.7326  14.9338  15.2557  15.3839  15.5728  15.6341  15.8931  16.2843
    16.4390  16.5114  16.8230  16.9549  17.2488  17.4343  17.5035  17.5295
    17.6876  17.7634  17.8735  17.9630  18.2089  18.8535  19.2038  19.3853
    19.5017  19.5260  19.5830  19.7399

          k = 0.0619 0.1087 0.0000 ( 14646 PWs)   bands (ev):

   -34.7036 -34.7032 -34.6982 -34.6979 -34.6739 -34.6703 -34.6684 -34.6649
   -34.6607 -34.6553 -34.5953 -34.5874 -34.5805 -34.5483 -34.5480 -27.4701
   -27.4696 -27.4662 -27.4657 -27.4618 -27.4588 -27.4580 -27.4575 -27.4550
   -27.4536 -10.5642 -10.0390  -8.9939  -6.3151  -5.0779  -0.6750  -0.3918
    -0.1213  -0.0463   0.1972   0.5257   0.9026   1.4067   1.6265   2.6829
     2.7518   3.1385   3.8802   3.9369   4.3838   6.3782   6.4389   6.9343
     7.2162   7.6169   7.9571   8.4471   8.5077   8.7492   8.9700   9.3444
     9.7410   9.9067  10.4236  10.5062  10.7927  11.0726  11.1680  11.3338
    12.2820  12.3431  12.8834  13.0307  13.2613  13.6063  14.1602  14.4987
    14.7200  14.8650  15.3633  15.3845  15.6615  15.7369  15.9841  16.2384
    16.3967  16.5036  16.7815  16.9219  17.3109  17.4596  17.5200  17.5758
    17.6943  17.7803  17.8783  18.0519  18.1147  18.7346  19.0823  19.3656
    19.4062  19.4530  19.5658  19.6589

          k = 0.0571 0.1003 0.0000 ( 14653 PWs)   bands (ev):

   -34.7036 -34.7033 -34.6982 -34.6979 -34.6739 -34.6702 -34.6684 -34.6649
   -34.6607 -34.6553 -34.5953 -34.5874 -34.5805 -34.5483 -34.5480 -27.4701
   -27.4696 -27.4662 -27.4657 -27.4618 -27.4588 -27.4580 -27.4574 -27.4549
   -27.4536 -10.5787 -10.0522  -9.0018  -6.3121  -5.0531  -0.5998  -0.3430
    -0.0687  -0.0028   0.2108   0.5481   0.9236   1.3561   1.6323   2.6644
     2.7130   3.1023   3.8462   3.9240   4.3349   6.3561   6.4355   6.9494
     7.2468   7.6114   7.9161   8.4581   8.5175   8.7320   8.9744   9.3009
     9.7349   9.8737  10.4197  10.4498  10.7547  11.0275  11.1529  11.3121
    12.2203  12.3068  12.8544  13.0559  13.2560  13.6136  14.2366  14.5303
    14.7380  14.8121  15.3466  15.4876  15.7610  15.8428  16.0470  16.2233
    16.3609  16.4986  16.7434  16.8767  17.3480  17.4553  17.5558  17.6133
    17.7222  17.7970  17.8715  18.0766  18.1537  18.6204  18.9492  19.2671
    19.3270  19.3931  19.5462  19.6020

          k = 0.0524 0.0919 0.0000 ( 14649 PWs)   bands (ev):

   -34.7036 -34.7033 -34.6982 -34.6979 -34.6739 -34.6702 -34.6684 -34.6649
   -34.6607 -34.6553 -34.5954 -34.5874 -34.5805 -34.5484 -34.5480 -27.4701
   -27.4697 -27.4662 -27.4658 -27.4618 -27.4587 -27.4580 -27.4574 -27.4549
   -27.4536 -10.5921 -10.0644  -9.0090  -6.3095  -5.0302  -0.5263  -0.2956
    -0.0342   0.0567   0.2249   0.5718   0.9423   1.3035   1.6307   2.6322
     2.6946   3.0610   3.8204   3.9142   4.2837   6.3352   6.4320   6.9616
     7.2799   7.6086   7.8795   8.4712   8.5318   8.7085   8.9763   9.2606
     9.7347   9.8440  10.3518  10.4424  10.7371  10.9743  11.1331  11.3105
    12.1562  12.2667  12.8311  13.0578  13.2826  13.6250  14.2954  14.5309
    14.7516  14.8108  15.3156  15.6020  15.8619  15.9266  16.0610  16.2606
    16.3498  16.4970  16.7108  16.8297  17.3555  17.4314  17.5999  17.6320
    17.7313  17.8233  17.8675  18.1171  18.2586  18.5189  18.8110  19.1264
    19.2251  19.3623  19.4952  19.5661

          k = 0.0476 0.0836 0.0000 ( 14653 PWs)   bands (ev):

   -34.7036 -34.7033 -34.6982 -34.6979 -34.6739 -34.6702 -34.6684 -34.6649
   -34.6607 -34.6553 -34.5954 -34.5874 -34.5805 -34.5484 -34.5480 -27.4701
   -27.4697 -27.4662 -27.4658 -27.4619 -27.4587 -27.4581 -27.4574 -27.4549
   -27.4536 -10.6043 -10.0755  -9.0157  -6.3072  -5.0092  -0.4559  -0.2490
    -0.0060   0.1184   0.2412   0.5976   0.9587   1.2498   1.6198   2.6009
     2.6830   3.0167   3.8038   3.9058   4.2306   6.3155   6.4284   6.9708
     7.3150   7.6079   7.8475   8.4865   8.5489   8.6821   8.9718   9.2255
     9.7400   9.8169  10.2798  10.4216  10.7436  10.9158  11.1186  11.3170
    12.0908  12.2219  12.8146  13.0407  13.3339  13.6427  14.3285  14.5135
    14.7519  14.8541  15.2973  15.7129  15.9273  15.9567  16.1182  16.2755
    16.4062  16.5006  16.6872  16.7888  17.3349  17.4070  17.5827  17.6763
    17.7004  17.8216  17.9660  18.1779  18.3531  18.4568  18.6729  18.9831
    19.0991  19.3206  19.4171  19.5318

          k = 0.0429 0.0752 0.0000 ( 14645 PWs)   bands (ev):

   -34.7036 -34.7033 -34.6982 -34.6979 -34.6739 -34.6702 -34.6684 -34.6649
   -34.6607 -34.6553 -34.5954 -34.5874 -34.5805 -34.5484 -34.5480 -27.4701
   -27.4697 -27.4662 -27.4659 -27.4619 -27.4587 -27.4581 -27.4574 -27.4549
   -27.4536 -10.6154 -10.0856  -9.0218  -6.3053  -4.9903  -0.3906  -0.2030
     0.0227   0.1720   0.2625   0.6264   0.9726   1.1960   1.5983   2.5744
     2.6734   2.9724   3.7949   3.8984   4.1763   6.2973   6.4249   6.9773
     7.3510   7.6089   7.8206   8.5035   8.5667   8.6565   8.9598   9.1968
     9.7490   9.7915  10.2111  10.3862  10.7652  10.8610  11.1118  11.3258
    12.0248  12.1718  12.8044  13.0158  13.3963  13.6686  14.3367  14.4834
    14.7702  14.8906  15.3061  15.8027  15.8952  16.0290  16.2107  16.2878
    16.4795  16.5135  16.6832  16.7618  17.2838  17.3924  17.5529  17.6423
    17.6941  17.8832  18.0708  18.2007  18.4010  18.4889  18.5588  18.8423
    18.9652  19.2222  19.3779  19.5068

          k = 0.0381 0.0669 0.0000 ( 14647 PWs)   bands (ev):

   -34.7036 -34.7033 -34.6982 -34.6979 -34.6739 -34.6702 -34.6684 -34.6649
   -34.6608 -34.6554 -34.5954 -34.5874 -34.5805 -34.5484 -34.5480 -27.4701
   -27.4698 -27.4662 -27.4659 -27.4619 -27.4587 -27.4581 -27.4574 -27.4549
   -27.4535 -10.6253 -10.0947  -9.0273  -6.3036  -4.9733  -0.3328  -0.1569
     0.0542   0.2107   0.2927   0.6587   0.9839   1.1433   1.5666   2.5489
     2.6684   2.9317   3.7914   3.8919   4.1220   6.2806   6.4215   6.9814
     7.3868   7.6108   7.7995   8.5198   8.5795   8.6389   8.9421   9.1745
     9.7578   9.7683  10.1487  10.3436  10.7629  10.8442  11.1128  11.3346
    11.9590  12.1168  12.7993  12.9894  13.4617  13.7044  14.3287  14.4467
    14.7757  14.9306  15.3454  15.7941  15.9411  16.0747  16.2915  16.3360
    16.5106  16.5407  16.7163  16.7654  17.2131  17.3838  17.5196  17.5964
    17.6879  17.9477  18.1393  18.2147  18.3946  18.4723  18.6196  18.7197
    18.8314  19.0952  19.3634  19.4866

          k = 0.0333 0.0585 0.0000 ( 14655 PWs)   bands (ev):

   -34.7036 -34.7033 -34.6982 -34.6979 -34.6738 -34.6702 -34.6684 -34.6649
   -34.6608 -34.6554 -34.5954 -34.5874 -34.5805 -34.5484 -34.5480 -27.4701
   -27.4698 -27.4662 -27.4659 -27.4619 -27.4587 -27.4581 -27.4573 -27.4548
   -27.4535 -10.6340 -10.1027  -9.0321  -6.3023  -4.9583  -0.2848  -0.1101
     0.0894   0.2357   0.3286   0.6944   0.9918   1.0938   1.5263   2.5180
     2.6721   2.8976   3.7908   3.8864   4.0692   6.2656   6.4184   6.9836
     7.4210   7.6128   7.7848   8.5285   8.5795   8.6430   8.9213   9.1580
     9.7405   9.7686  10.0958  10.2996  10.7184  10.8792  11.1218  11.3432
    11.8940  12.0573  12.7980  12.9640  13.5261  13.7511  14.3125  14.4089
    14.7456  14.9892  15.4028  15.7514  15.9970  16.1153  16.3553  16.3944
    16.5172  16.5739  16.7626  16.8261  17.1390  17.3776  17.4858  17.5550
    17.6793  17.9569  18.1511  18.2317  18.3804  18.4829  18.6310  18.6886
    18.7692  18.9664  19.3559  19.4690

          k = 0.0286 0.0501 0.0000 ( 14655 PWs)   bands (ev):

   -34.7036 -34.7033 -34.6982 -34.6979 -34.6738 -34.6702 -34.6684 -34.6649
   -34.6608 -34.6554 -34.5954 -34.5874 -34.5805 -34.5484 -34.5480 -27.4701
   -27.4698 -27.4662 -27.4659 -27.4619 -27.4587 -27.4581 -27.4573 -27.4548
   -27.4535 -10.6416 -10.1097  -9.0364  -6.3011  -4.9453  -0.2476  -0.0629
     0.1276   0.2543   0.3629   0.7317   0.9933   1.0524   1.4800   2.4793
     2.6856   2.8714   3.7902   3.8820   4.0201   6.2524   6.4156   6.9843
     7.4520   7.6143   7.7773   8.5173   8.5831   8.6633   8.9005   9.1466
     9.7153   9.7693  10.0560  10.2575  10.6704  10.9235  11.1401  11.3517
    11.8307  11.9942  12.7991  12.9408  13.5881  13.8079  14.2920  14.3731
    14.6924  15.0521  15.4598  15.7307  16.0134  16.1683  16.4005  16.4240
    16.5152  16.6466  16.8291  16.8905  17.0923  17.3733  17.4509  17.5185
    17.6709  17.9187  18.0603  18.2760  18.3780  18.4828  18.5582  18.7010
    18.8339  18.8966  19.3527  19.4521

          k = 0.0238 0.0418 0.0000 ( 14660 PWs)   bands (ev):

   -34.7036 -34.7033 -34.6982 -34.6980 -34.6738 -34.6702 -34.6684 -34.6649
   -34.6608 -34.6554 -34.5954 -34.5874 -34.5805 -34.5484 -34.5480 -27.4701
   -27.4698 -27.4662 -27.4660 -27.4619 -27.4586 -27.4581 -27.4573 -27.4548
   -27.4535 -10.6480 -10.1156  -9.0400  -6.3002  -4.9343  -0.2204  -0.0169
     0.1666   0.2716   0.3919   0.7665   0.9792   1.0316   1.4312   2.4351
     2.7059   2.8529   3.7868   3.8785   3.9777   6.2409   6.4132   6.9841
     7.4784   7.6148   7.7773   8.4922   8.5940   8.6885   8.8819   9.1397
     9.6888   9.7609  10.0318  10.2195  10.6277  10.9645  11.1694  11.3608
    11.7700  11.9285  12.8016  12.9205  13.6480  13.8721  14.2683  14.3410
    14.6297  15.1011  15.5046  15.7514  16.0113  16.2120  16.3743  16.4590
    16.5455  16.7479  16.8825  16.9206  17.1253  17.3714  17.4168  17.4876
    17.6632  17.8683  17.9357  18.2427  18.3097  18.4900  18.6014  18.6676
    18.8641  18.9959  19.3543  19.4332

          k = 0.0190 0.0334 0.0000 ( 14654 PWs)   bands (ev):

   -34.7036 -34.7034 -34.6982 -34.6980 -34.6738 -34.6702 -34.6684 -34.6649
   -34.6608 -34.6554 -34.5954 -34.5874 -34.5805 -34.5484 -34.5480 -27.4701
   -27.4699 -27.4662 -27.4660 -27.4620 -27.4586 -27.4581 -27.4573 -27.4548
   -27.4535 -10.6533 -10.1204  -9.0429  -6.2994  -4.9253  -0.2013   0.0250
     0.2031   0.2895   0.4153   0.7920   0.9565   1.0295   1.3836   2.3901
     2.7286   2.8416   3.7783   3.8755   3.9455   6.2314   6.4111   6.9834
     7.4992   7.6145   7.7837   8.4642   8.6047   8.7141   8.8670   9.1369
     9.6617   9.7447  10.0215  10.1871  10.5922  10.9977  11.2096  11.3717
    11.7129  11.8619  12.8047  12.9033  13.7065  13.9398  14.2409  14.3138
    14.5652  15.1235  15.5478  15.8089  16.0054  16.2372  16.3264  16.4461
    16.6330  16.8270  16.8662  17.0230  17.1958  17.3666  17.4054  17.4601
    17.6556  17.8032  17.8251  18.1243  18.2234  18.4649  18.6370  18.7270
    18.9589  19.1017  19.3632  19.4070

          k = 0.0143 0.0251 0.0000 ( 14654 PWs)   bands (ev):

   -34.7036 -34.7034 -34.6982 -34.6980 -34.6738 -34.6702 -34.6684 -34.6649
   -34.6608 -34.6554 -34.5954 -34.5874 -34.5805 -34.5484 -34.5480 -27.4701
   -27.4699 -27.4662 -27.4660 -27.4620 -27.4586 -27.4582 -27.4573 -27.4548
   -27.4535 -10.6574 -10.1242  -9.0453  -6.2989  -4.9183  -0.1882   0.0602
     0.2338   0.3081   0.4341   0.8011   0.9442   1.0329   1.3412   2.3488
     2.7487   2.8370   3.7644   3.8723   3.9255   6.2240   6.4095   6.9824
     7.5139   7.6139   7.7943   8.4380   8.6127   8.7374   8.8563   9.1372
     9.6354   9.7258  10.0200  10.1611  10.5645  11.0221  11.2564  11.3863
    11.6603  11.7969  12.8078  12.8893  13.7630  14.0068  14.2094  14.2915
    14.5047  15.1198  15.6041  15.8826  16.0008  16.2385  16.2761  16.4194
    16.7182  16.8057  16.9681  17.1287  17.2394  17.3521  17.4246  17.4583
    17.6442  17.7060  17.7553  18.0199  18.1080  18.3690  18.7197  18.8482
    19.0570  19.1910  19.3574  19.3916

          k = 0.0095 0.0167 0.0000 ( 14658 PWs)   bands (ev):

   -34.7036 -34.7034 -34.6982 -34.6980 -34.6738 -34.6702 -34.6684 -34.6649
   -34.6608 -34.6554 -34.5954 -34.5874 -34.5805 -34.5485 -34.5480 -27.4701
   -27.4699 -27.4662 -27.4660 -27.4620 -27.4586 -27.4582 -27.4573 -27.4548
   -27.4535 -10.6603 -10.1269  -9.0469  -6.2985  -4.9133  -0.1798   0.0865
     0.2571   0.3243   0.4491   0.7959   0.9432   1.0378   1.3079   2.3156
     2.7626   2.8384   3.7488   3.8691   3.9158   6.2186   6.4083   6.9815
     7.5233   7.6135   7.8056   8.4165   8.6179   8.7556   8.8500   9.1394
     9.6129   9.7093  10.0223  10.1423  10.5448  11.0389  11.3004  11.4088
    11.6124  11.7384  12.8105  12.8790  13.8149  14.0682  14.1759  14.2731
    14.4532  15.1035  15.6684  15.9562  16.0010  16.1861  16.2630  16.3891
    16.7174  16.8852  17.0523  17.2219  17.2628  17.3371  17.3945  17.5419
    17.6082  17.6589  17.6728  17.9380  17.9989  18.2661  18.8293  18.9618
    19.1446  19.2455  19.3009  19.4094

          k = 0.0048 0.0084 0.0000 ( 14665 PWs)   bands (ev):

   -34.7036 -34.7034 -34.6982 -34.6980 -34.6738 -34.6702 -34.6684 -34.6649
   -34.6608 -34.6554 -34.5954 -34.5874 -34.5805 -34.5485 -34.5480 -27.4701
   -27.4699 -27.4662 -27.4660 -27.4620 -27.4586 -27.4582 -27.4573 -27.4548
   -27.4535 -10.6621 -10.1285  -9.0479  -6.2983  -4.9103  -0.1752   0.1026
     0.2724   0.3345   0.4596   0.7872   0.9453   1.0424   1.2867   2.2940
     2.7695   2.8423   3.7367   3.8668   3.9121   6.2153   6.4076   6.9809
     7.5282   7.6133   7.8142   8.4023   8.6206   8.7670   8.8471   9.1416
     9.5974   9.6982  10.0249  10.1308  10.5331  11.0488  11.3296  11.4420
    11.5690  11.6952  12.8125  12.8725  13.8550  14.1166  14.1468  14.2574
    14.4169  15.0880  15.7237  16.0039  16.0207  16.1234  16.2559  16.3641
    16.6984  16.9988  17.0939  17.2155  17.3160  17.3505  17.3920  17.5574
    17.5750  17.6403  17.6555  17.8687  17.9191  18.1880  18.9393  19.0506
    19.1946  19.2195  19.3044  19.4070

          k = 0.0000 0.0000 0.0000 ( 14667 PWs)   bands (ev):

   -34.7036 -34.7034 -34.6982 -34.6980 -34.6738 -34.6702 -34.6684 -34.6649
   -34.6608 -34.6554 -34.5954 -34.5874 -34.5805 -34.5485 -34.5480 -27.4701
   -27.4699 -27.4662 -27.4660 -27.4620 -27.4586 -27.4582 -27.4573 -27.4548
   -27.4535 -10.6627 -10.1291  -9.0482  -6.2982  -4.9093  -0.1737   0.1080
     0.2779   0.3377   0.4636   0.7835   0.9462   1.0444   1.2794   2.2866
     2.7714   2.8443   3.7322   3.8660   3.9112   6.2142   6.4073   6.9807
     7.5298   7.6133   7.8174   8.3973   8.6215   8.7707   8.8465   9.1425
     9.5919   9.6944  10.0259  10.1270  10.5292  11.0521  11.3391  11.4663
    11.5434  11.6790  12.8132  12.8703  13.8711  14.1340  14.1378  14.2493
    14.4035  15.0820  15.7467  16.0142  16.0466  16.0891  16.2504  16.3545
    16.6914  17.0872  17.1063  17.1423  17.3529  17.3574  17.4505  17.4819
    17.5514  17.6424  17.7045  17.8223  17.8913  18.1582  19.0098  19.0782
    19.1447  19.2580  19.3135  19.4127

     Writing all to output data dir tmp/Sb2Te3-uatsx-c3-2.0.save/ :
     XML data file, pseudopotentials, collected wavefunctions

     init_run     :      1.14s CPU      1.14s WALL (       1 calls)
     electrons    :    869.99s CPU    496.01s WALL (       1 calls)

     Called by init_run:
     wfcinit      :      0.00s CPU      0.00s WALL (       1 calls)
     wfcinit:wfcr :     17.42s CPU      8.98s WALL (     211 calls)
     potinit      :      0.48s CPU      0.47s WALL (       1 calls)
     hinit0       :      0.55s CPU      0.56s WALL (       1 calls)

     Called by electrons:
     c_bands      :    869.98s CPU    495.99s WALL (       1 calls)
     v_of_rho     :      0.05s CPU      0.04s WALL (       1 calls)
     v_h          :      0.01s CPU      0.01s WALL (       1 calls)
     v_xc         :      0.04s CPU      0.03s WALL (       1 calls)

     Called by c_bands:
     init_us_2    :      0.20s CPU      0.11s WALL (     211 calls)
     cegterg      :    842.43s CPU    477.86s WALL (     725 calls)

     Called by sum_band:

     Called by *egterg:
     cdiaghg      :    276.97s CPU    189.80s WALL (   12616 calls)
     cegterg:over :     51.94s CPU     28.23s WALL (   12405 calls)
     cegterg:upda :     27.12s CPU     11.79s WALL (   12405 calls)
     cegterg:last :     41.31s CPU     20.68s WALL (    5885 calls)
     h_psi        :    432.36s CPU    218.44s WALL (   13341 calls)
     g_psi        :      2.84s CPU      2.01s WALL (   12405 calls)

     Called by h_psi:
     h_psi:calbec :     20.47s CPU      8.64s WALL (   13341 calls)
     vloc_psi     :    398.65s CPU    203.76s WALL (   13341 calls)
     add_vuspsi   :     11.73s CPU      5.21s WALL (   13341 calls)

     General routines
     calbec       :     20.41s CPU      8.61s WALL (   13341 calls)
     fft          :      0.56s CPU      0.57s WALL (      11 calls)
     ffts         :      0.42s CPU      0.42s WALL (       1 calls)
     fftw         :    333.06s CPU    170.46s WALL ( 1219498 calls)
     interpolate  :      0.42s CPU      0.42s WALL (       1 calls)
     davcio       :      0.11s CPU      0.18s WALL (     422 calls)

     Parallel routines

     PWSCF        :  14m38.96s CPU   9m15.85s WALL


   This run was terminated on:  20:31:44  14Aug2025            

=------------------------------------------------------------------------------=
   JOB DONE.
=------------------------------------------------------------------------------=
