
     Program PWSCF v.7.4.1 starts on 23Aug2025 at  0:21:16 

     This program is part of the open-source Quantum ESPRESSO suite
     for quantum simulation of materials; please cite
         "P. Giannozzi et al., J. Phys.:Condens. Matter 21 395502 (2009);
         "P. Giannozzi et al., J. Phys.:Condens. Matter 29 465901 (2017);
         "P. Giannozzi et al., J. Chem. Phys. 152 154105 (2020);
          URL http://www.quantum-espresso.org", 
     in publications or presentations arising from this work. More details at
     http://www.quantum-espresso.org/quote

     Parallel version (MPI & OpenMP), running on      48 processor cores
     Number of MPI processes:                24
     Threads/MPI process:                     2

     MPI processes distributed on     2 nodes
     11826 MiB available memory on the printing compute node when the environment starts

     Waiting for input...
     Reading input from standard input

     Current dimensions of program PWSCF are:
     Max number of different atomic species (ntypx) = 10
     Max number of k-points (npk) =  40000
     Max angular momentum in pseudopotentials (lmaxx) =  4
Error reading attribute index: expected integer, found *
Error reading attribute index: expected integer, found *

     IMPORTANT: XC functional enforced from input :
     Exchange-correlation= PBE
                           (   1   4   3   4   0   0   0)
     Any further DFT definition will be discarded
     Please, verify this is what you really want


     Atomic positions and unit cell read from directory:
     tmp/Sb2Te3-uatsx-c5-soc-4.0.save/

     Message from routine setup:
     no reason to have ecutrho>4*ecutwfc

     R & G space division:  proc/nbgrp/npool/nimage =      24
     Subspace diagonalization in iterative solution of the eigenvalue problem:
     one sub-group per band group will be used
     scalapack distributed-memory algorithm (size of sub-group:  2*  2 procs)


     Parallelization info
     --------------------
     sticks:   dense  smooth     PW     G-vecs:    dense   smooth      PW
     Min         138      55     15                32604     8247    1221
     Max         139      56     16                32629     8264    1240
     Sum        3327    1331    371               782755   198065   29505

     Using Slab Decomposition



     bravais-lattice index     =            0
     lattice parameter (alat)  =       8.4715  a.u.
     unit-cell volume          =    2502.8602 (a.u.)^3
     number of atoms/cell      =            5
     number of atomic types    =            2
     number of electrons       =        78.00
     number of Kohn-Sham states=          200
     kinetic-energy cutoff     =      70.0000  Ry
     charge density cutoff     =     700.0000  Ry
     Exchange-correlation= PBE
                           (   1   4   3   4   0   0   0)
     Non magnetic calculation with spin-orbit


     celldm(1)=   8.471459  celldm(2)=   0.000000  celldm(3)=   0.000000
     celldm(4)=   0.000000  celldm(5)=   0.000000  celldm(6)=   0.000000

     crystal axes: (cart. coord. in units of alat)
               a(1) = (   1.000000   0.000000   0.000000 )  
               a(2) = (  -0.480769   0.832709   0.000000 )  
               a(3) = (   0.000000   0.000000   4.943891 )  

     reciprocal axes: (cart. coord. in units 2 pi/alat)
               b(1) = (  1.000000  0.577356 -0.000000 )  
               b(2) = (  0.000000  1.200900  0.000000 )  
               b(3) = (  0.000000 -0.000000  0.202270 )  


     PseudoPot. # 1 for Sb read from file:
     /zfs-home/202401017n1/pseudos/Sb_ONCV_PBE_FR-1.1.upf
     MD5 check sum: 7dc1726f2158e3c51e4807d42b9c5c65
     Pseudo is Norm-conserving, Zval = 15.0
     Generated using ONCVPSP code by D. R. Hamann
     Using radial grid of  602 points, 10 beta functions with: 
                l(1) =   0
                l(2) =   0
                l(3) =   1
                l(4) =   1
                l(5) =   1
                l(6) =   1
                l(7) =   2
                l(8) =   2
                l(9) =   2
               l(10) =   2

     PseudoPot. # 2 for Te read from file:
     /zfs-home/202401017n1/pseudos/Te_ONCV_PBE_FR-1.1.upf
     MD5 check sum: c6e17480449037a9a9d16e6377b5c7c4
     Pseudo is Norm-conserving, Zval = 16.0
     Generated using ONCVPSP code by D. R. Hamann
     Using radial grid of  602 points, 10 beta functions with: 
                l(1) =   0
                l(2) =   0
                l(3) =   1
                l(4) =   1
                l(5) =   1
                l(6) =   1
                l(7) =   2
                l(8) =   2
                l(9) =   2
               l(10) =   2

     atomic species   valence    mass     pseudopotential
     Sb               15.00   121.76000     Sb( 1.00)
     Te               16.00   127.60000     Te( 1.00)

     No symmetry found


                                    s                        frac. trans.

      isym =  1     identity                                     

 cryst.   s( 1) = (     1          0          0      )
                  (     0          1          0      )
                  (     0          0          1      )

 cart.    s( 1) = (  1.0000000  0.0000000  0.0000000 )
                  (  0.0000000  1.0000000  0.0000000 )
                  (  0.0000000  0.0000000  1.0000000 )


   Cartesian axes

     site n.     atom                  positions (alat units)
         1        Sb     tau(   1) = (   0.5904646   0.4157527   2.9115514  )
         2        Te     tau(   2) = (   0.5755298   0.3904446   1.6605492  )
         3        Sb     tau(   3) = (   0.0721083   0.1184920   2.0322939  )
         4        Te     tau(   4) = (   0.0869606   0.1439524   3.2833161  )
         5        Te     tau(   5) = (   0.0908738   0.6835524   2.4719228  )

     -------------------------------------------------
     Parameters for Dispersion (Grimme-D2) Correction:
     -------------------------------------------------
       atom      VdW radius       C_6     

        Sb         3.555       1333.532
        Te         3.575       1101.101

   Crystallographic axes

     site n.     atom                  positions (cryst. coord.)
         1        Sb     tau(   1) = (  0.8305018  0.4992775  0.5889190  )
         2        Te     tau(   2) = (  0.8009552  0.4688850  0.3358790  )
         3        Sb     tau(   3) = (  0.1405204  0.1422971  0.4110717  )
         4        Te     tau(   4) = (  0.1700723  0.1728725  0.6641158  )
         5        Te     tau(   5) = (  0.4855268  0.8208782  0.4999954  )

     number of k points=   211
                       cart. coord. in units 2pi/alat
        k(    1) = (   0.0000000   0.0000000   0.0000000), wk =   0.0047393
        k(    2) = (   0.0071429   0.0041240   0.0000000), wk =   0.0047393
        k(    3) = (   0.0142857   0.0082479   0.0000000), wk =   0.0047393
        k(    4) = (   0.0214286   0.0123719   0.0000000), wk =   0.0047393
        k(    5) = (   0.0285714   0.0164959   0.0000000), wk =   0.0047393
        k(    6) = (   0.0357143   0.0206199   0.0000000), wk =   0.0047393
        k(    7) = (   0.0428571   0.0247438   0.0000000), wk =   0.0047393
        k(    8) = (   0.0500000   0.0288678   0.0000000), wk =   0.0047393
        k(    9) = (   0.0571429   0.0329918   0.0000000), wk =   0.0047393
        k(   10) = (   0.0642857   0.0371157   0.0000000), wk =   0.0047393
        k(   11) = (   0.0714286   0.0412397   0.0000000), wk =   0.0047393
        k(   12) = (   0.0785714   0.0453637   0.0000000), wk =   0.0047393
        k(   13) = (   0.0857143   0.0494876   0.0000000), wk =   0.0047393
        k(   14) = (   0.0928571   0.0536116   0.0000000), wk =   0.0047393
        k(   15) = (   0.1000000   0.0577356   0.0000000), wk =   0.0047393
        k(   16) = (   0.1071429   0.0618596   0.0000000), wk =   0.0047393
        k(   17) = (   0.1142857   0.0659835   0.0000000), wk =   0.0047393
        k(   18) = (   0.1214286   0.0701075   0.0000000), wk =   0.0047393
        k(   19) = (   0.1285714   0.0742315   0.0000000), wk =   0.0047393
        k(   20) = (   0.1357143   0.0783554   0.0000000), wk =   0.0047393
        k(   21) = (   0.1428571   0.0824794   0.0000000), wk =   0.0047393
        k(   22) = (   0.1500000   0.0866034   0.0000000), wk =   0.0047393
        k(   23) = (   0.1571429   0.0907273   0.0000000), wk =   0.0047393
        k(   24) = (   0.1642857   0.0948513   0.0000000), wk =   0.0047393
        k(   25) = (   0.1714286   0.0989753   0.0000000), wk =   0.0047393
        k(   26) = (   0.1785714   0.1030993   0.0000000), wk =   0.0047393
        k(   27) = (   0.1857143   0.1072232   0.0000000), wk =   0.0047393
        k(   28) = (   0.1928571   0.1113472   0.0000000), wk =   0.0047393
        k(   29) = (   0.2000000   0.1154712   0.0000000), wk =   0.0047393
        k(   30) = (   0.2071429   0.1195951   0.0000000), wk =   0.0047393
        k(   31) = (   0.2142857   0.1237191   0.0000000), wk =   0.0047393
        k(   32) = (   0.2214286   0.1278431   0.0000000), wk =   0.0047393
        k(   33) = (   0.2285714   0.1319671   0.0000000), wk =   0.0047393
        k(   34) = (   0.2357143   0.1360910   0.0000000), wk =   0.0047393
        k(   35) = (   0.2428571   0.1402150   0.0000000), wk =   0.0047393
        k(   36) = (   0.2500000   0.1443390   0.0000000), wk =   0.0047393
        k(   37) = (   0.2571429   0.1484629   0.0000000), wk =   0.0047393
        k(   38) = (   0.2642857   0.1525869   0.0000000), wk =   0.0047393
        k(   39) = (   0.2714286   0.1567109   0.0000000), wk =   0.0047393
        k(   40) = (   0.2785714   0.1608348   0.0000000), wk =   0.0047393
        k(   41) = (   0.2857143   0.1649588   0.0000000), wk =   0.0047393
        k(   42) = (   0.2928571   0.1690828   0.0000000), wk =   0.0047393
        k(   43) = (   0.3000000   0.1732068   0.0000000), wk =   0.0047393
        k(   44) = (   0.3071429   0.1773307   0.0000000), wk =   0.0047393
        k(   45) = (   0.3142857   0.1814547   0.0000000), wk =   0.0047393
        k(   46) = (   0.3214286   0.1855787   0.0000000), wk =   0.0047393
        k(   47) = (   0.3285714   0.1897026   0.0000000), wk =   0.0047393
        k(   48) = (   0.3357143   0.1938266   0.0000000), wk =   0.0047393
        k(   49) = (   0.3428571   0.1979506   0.0000000), wk =   0.0047393
        k(   50) = (   0.3500000   0.2020745   0.0000000), wk =   0.0047393
        k(   51) = (   0.3571429   0.2061985   0.0000000), wk =   0.0047393
        k(   52) = (   0.3642857   0.2103225   0.0000000), wk =   0.0047393
        k(   53) = (   0.3714286   0.2144465   0.0000000), wk =   0.0047393
        k(   54) = (   0.3785714   0.2185704   0.0000000), wk =   0.0047393
        k(   55) = (   0.3857143   0.2226944   0.0000000), wk =   0.0047393
        k(   56) = (   0.3928571   0.2268184   0.0000000), wk =   0.0047393
        k(   57) = (   0.4000000   0.2309423   0.0000000), wk =   0.0047393
        k(   58) = (   0.4071429   0.2350663   0.0000000), wk =   0.0047393
        k(   59) = (   0.4142857   0.2391903   0.0000000), wk =   0.0047393
        k(   60) = (   0.4214286   0.2433143   0.0000000), wk =   0.0047393
        k(   61) = (   0.4285714   0.2474382   0.0000000), wk =   0.0047393
        k(   62) = (   0.4357143   0.2515622   0.0000000), wk =   0.0047393
        k(   63) = (   0.4428571   0.2556862   0.0000000), wk =   0.0047393
        k(   64) = (   0.4500000   0.2598101   0.0000000), wk =   0.0047393
        k(   65) = (   0.4571429   0.2639341   0.0000000), wk =   0.0047393
        k(   66) = (   0.4642857   0.2680581   0.0000000), wk =   0.0047393
        k(   67) = (   0.4714286   0.2721820   0.0000000), wk =   0.0047393
        k(   68) = (   0.4785714   0.2763060   0.0000000), wk =   0.0047393
        k(   69) = (   0.4857143   0.2804300   0.0000000), wk =   0.0047393
        k(   70) = (   0.4928571   0.2845540   0.0000000), wk =   0.0047393
        k(   71) = (   0.5000000   0.2886779   0.0000000), wk =   0.0047393
        k(   72) = (   0.4976190   0.2930218   0.0000000), wk =   0.0047393
        k(   73) = (   0.4952381   0.2973658   0.0000000), wk =   0.0047393
        k(   74) = (   0.4928571   0.3017097   0.0000000), wk =   0.0047393
        k(   75) = (   0.4904762   0.3060536   0.0000000), wk =   0.0047393
        k(   76) = (   0.4880952   0.3103975   0.0000000), wk =   0.0047393
        k(   77) = (   0.4857143   0.3147414   0.0000000), wk =   0.0047393
        k(   78) = (   0.4833333   0.3190853   0.0000000), wk =   0.0047393
        k(   79) = (   0.4809524   0.3234293   0.0000000), wk =   0.0047393
        k(   80) = (   0.4785714   0.3277732   0.0000000), wk =   0.0047393
        k(   81) = (   0.4761905   0.3321171   0.0000000), wk =   0.0047393
        k(   82) = (   0.4738095   0.3364610   0.0000000), wk =   0.0047393
        k(   83) = (   0.4714286   0.3408049   0.0000000), wk =   0.0047393
        k(   84) = (   0.4690476   0.3451488   0.0000000), wk =   0.0047393
        k(   85) = (   0.4666667   0.3494927   0.0000000), wk =   0.0047393
        k(   86) = (   0.4642857   0.3538367   0.0000000), wk =   0.0047393
        k(   87) = (   0.4619048   0.3581806   0.0000000), wk =   0.0047393
        k(   88) = (   0.4595238   0.3625245   0.0000000), wk =   0.0047393
        k(   89) = (   0.4571429   0.3668684   0.0000000), wk =   0.0047393
        k(   90) = (   0.4547619   0.3712123   0.0000000), wk =   0.0047393
        k(   91) = (   0.4523810   0.3755562   0.0000000), wk =   0.0047393
        k(   92) = (   0.4500000   0.3799002   0.0000000), wk =   0.0047393
        k(   93) = (   0.4476190   0.3842441   0.0000000), wk =   0.0047393
        k(   94) = (   0.4452381   0.3885880   0.0000000), wk =   0.0047393
        k(   95) = (   0.4428571   0.3929319   0.0000000), wk =   0.0047393
        k(   96) = (   0.4404762   0.3972758   0.0000000), wk =   0.0047393
        k(   97) = (   0.4380952   0.4016197   0.0000000), wk =   0.0047393
        k(   98) = (   0.4357143   0.4059636   0.0000000), wk =   0.0047393
        k(   99) = (   0.4333333   0.4103076   0.0000000), wk =   0.0047393
        k(  100) = (   0.4309524   0.4146515   0.0000000), wk =   0.0047393
        k(  101) = (   0.4285714   0.4189954   0.0000000), wk =   0.0047393
        k(  102) = (   0.4261905   0.4233393   0.0000000), wk =   0.0047393
        k(  103) = (   0.4238095   0.4276832   0.0000000), wk =   0.0047393
        k(  104) = (   0.4214286   0.4320271   0.0000000), wk =   0.0047393
        k(  105) = (   0.4190476   0.4363711   0.0000000), wk =   0.0047393
        k(  106) = (   0.4166667   0.4407150   0.0000000), wk =   0.0047393
        k(  107) = (   0.4142857   0.4450589   0.0000000), wk =   0.0047393
        k(  108) = (   0.4119048   0.4494028   0.0000000), wk =   0.0047393
        k(  109) = (   0.4095238   0.4537467   0.0000000), wk =   0.0047393
        k(  110) = (   0.4071429   0.4580906   0.0000000), wk =   0.0047393
        k(  111) = (   0.4047619   0.4624345   0.0000000), wk =   0.0047393
        k(  112) = (   0.4023810   0.4667785   0.0000000), wk =   0.0047393
        k(  113) = (   0.4000000   0.4711224   0.0000000), wk =   0.0047393
        k(  114) = (   0.3976190   0.4754663   0.0000000), wk =   0.0047393
        k(  115) = (   0.3952381   0.4798102   0.0000000), wk =   0.0047393
        k(  116) = (   0.3928571   0.4841541   0.0000000), wk =   0.0047393
        k(  117) = (   0.3904762   0.4884980   0.0000000), wk =   0.0047393
        k(  118) = (   0.3880952   0.4928420   0.0000000), wk =   0.0047393
        k(  119) = (   0.3857143   0.4971859   0.0000000), wk =   0.0047393
        k(  120) = (   0.3833333   0.5015298   0.0000000), wk =   0.0047393
        k(  121) = (   0.3809524   0.5058737   0.0000000), wk =   0.0047393
        k(  122) = (   0.3785714   0.5102176   0.0000000), wk =   0.0047393
        k(  123) = (   0.3761905   0.5145615   0.0000000), wk =   0.0047393
        k(  124) = (   0.3738095   0.5189054   0.0000000), wk =   0.0047393
        k(  125) = (   0.3714286   0.5232494   0.0000000), wk =   0.0047393
        k(  126) = (   0.3690476   0.5275933   0.0000000), wk =   0.0047393
        k(  127) = (   0.3666667   0.5319372   0.0000000), wk =   0.0047393
        k(  128) = (   0.3642857   0.5362811   0.0000000), wk =   0.0047393
        k(  129) = (   0.3619048   0.5406250   0.0000000), wk =   0.0047393
        k(  130) = (   0.3595238   0.5449689   0.0000000), wk =   0.0047393
        k(  131) = (   0.3571429   0.5493129   0.0000000), wk =   0.0047393
        k(  132) = (   0.3547619   0.5536568   0.0000000), wk =   0.0047393
        k(  133) = (   0.3523810   0.5580007   0.0000000), wk =   0.0047393
        k(  134) = (   0.3500000   0.5623446   0.0000000), wk =   0.0047393
        k(  135) = (   0.3476190   0.5666885   0.0000000), wk =   0.0047393
        k(  136) = (   0.3452381   0.5710324   0.0000000), wk =   0.0047393
        k(  137) = (   0.3428571   0.5753763   0.0000000), wk =   0.0047393
        k(  138) = (   0.3404762   0.5797203   0.0000000), wk =   0.0047393
        k(  139) = (   0.3380952   0.5840642   0.0000000), wk =   0.0047393
        k(  140) = (   0.3357143   0.5884081   0.0000000), wk =   0.0047393
        k(  141) = (   0.3333333   0.5927520   0.0000000), wk =   0.0047393
        k(  142) = (   0.3285714   0.5842841   0.0000000), wk =   0.0047393
        k(  143) = (   0.3238095   0.5758162   0.0000000), wk =   0.0047393
        k(  144) = (   0.3190476   0.5673484   0.0000000), wk =   0.0047393
        k(  145) = (   0.3142857   0.5588805   0.0000000), wk =   0.0047393
        k(  146) = (   0.3095238   0.5504126   0.0000000), wk =   0.0047393
        k(  147) = (   0.3047619   0.5419447   0.0000000), wk =   0.0047393
        k(  148) = (   0.3000000   0.5334768   0.0000000), wk =   0.0047393
        k(  149) = (   0.2952381   0.5250089   0.0000000), wk =   0.0047393
        k(  150) = (   0.2904762   0.5165410   0.0000000), wk =   0.0047393
        k(  151) = (   0.2857143   0.5080732   0.0000000), wk =   0.0047393
        k(  152) = (   0.2809524   0.4996053   0.0000000), wk =   0.0047393
        k(  153) = (   0.2761905   0.4911374   0.0000000), wk =   0.0047393
        k(  154) = (   0.2714286   0.4826695   0.0000000), wk =   0.0047393
        k(  155) = (   0.2666667   0.4742016   0.0000000), wk =   0.0047393
        k(  156) = (   0.2619048   0.4657337   0.0000000), wk =   0.0047393
        k(  157) = (   0.2571429   0.4572658   0.0000000), wk =   0.0047393
        k(  158) = (   0.2523810   0.4487979   0.0000000), wk =   0.0047393
        k(  159) = (   0.2476190   0.4403301   0.0000000), wk =   0.0047393
        k(  160) = (   0.2428571   0.4318622   0.0000000), wk =   0.0047393
        k(  161) = (   0.2380952   0.4233943   0.0000000), wk =   0.0047393
        k(  162) = (   0.2333333   0.4149264   0.0000000), wk =   0.0047393
        k(  163) = (   0.2285714   0.4064585   0.0000000), wk =   0.0047393
        k(  164) = (   0.2238095   0.3979906   0.0000000), wk =   0.0047393
        k(  165) = (   0.2190476   0.3895227   0.0000000), wk =   0.0047393
        k(  166) = (   0.2142857   0.3810549   0.0000000), wk =   0.0047393
        k(  167) = (   0.2095238   0.3725870   0.0000000), wk =   0.0047393
        k(  168) = (   0.2047619   0.3641191   0.0000000), wk =   0.0047393
        k(  169) = (   0.2000000   0.3556512   0.0000000), wk =   0.0047393
        k(  170) = (   0.1952381   0.3471833   0.0000000), wk =   0.0047393
        k(  171) = (   0.1904762   0.3387154   0.0000000), wk =   0.0047393
        k(  172) = (   0.1857143   0.3302475   0.0000000), wk =   0.0047393
        k(  173) = (   0.1809524   0.3217797   0.0000000), wk =   0.0047393
        k(  174) = (   0.1761905   0.3133118   0.0000000), wk =   0.0047393
        k(  175) = (   0.1714286   0.3048439   0.0000000), wk =   0.0047393
        k(  176) = (   0.1666667   0.2963760   0.0000000), wk =   0.0047393
        k(  177) = (   0.1619048   0.2879081   0.0000000), wk =   0.0047393
        k(  178) = (   0.1571429   0.2794402   0.0000000), wk =   0.0047393
        k(  179) = (   0.1523810   0.2709723   0.0000000), wk =   0.0047393
        k(  180) = (   0.1476190   0.2625045   0.0000000), wk =   0.0047393
        k(  181) = (   0.1428571   0.2540366   0.0000000), wk =   0.0047393
        k(  182) = (   0.1380952   0.2455687   0.0000000), wk =   0.0047393
        k(  183) = (   0.1333333   0.2371008   0.0000000), wk =   0.0047393
        k(  184) = (   0.1285714   0.2286329   0.0000000), wk =   0.0047393
        k(  185) = (   0.1238095   0.2201650   0.0000000), wk =   0.0047393
        k(  186) = (   0.1190476   0.2116971   0.0000000), wk =   0.0047393
        k(  187) = (   0.1142857   0.2032293   0.0000000), wk =   0.0047393
        k(  188) = (   0.1095238   0.1947614   0.0000000), wk =   0.0047393
        k(  189) = (   0.1047619   0.1862935   0.0000000), wk =   0.0047393
        k(  190) = (   0.1000000   0.1778256   0.0000000), wk =   0.0047393
        k(  191) = (   0.0952381   0.1693577   0.0000000), wk =   0.0047393
        k(  192) = (   0.0904762   0.1608898   0.0000000), wk =   0.0047393
        k(  193) = (   0.0857143   0.1524219   0.0000000), wk =   0.0047393
        k(  194) = (   0.0809524   0.1439541   0.0000000), wk =   0.0047393
        k(  195) = (   0.0761905   0.1354862   0.0000000), wk =   0.0047393
        k(  196) = (   0.0714286   0.1270183   0.0000000), wk =   0.0047393
        k(  197) = (   0.0666667   0.1185504   0.0000000), wk =   0.0047393
        k(  198) = (   0.0619048   0.1100825   0.0000000), wk =   0.0047393
        k(  199) = (   0.0571429   0.1016146   0.0000000), wk =   0.0047393
        k(  200) = (   0.0523810   0.0931467   0.0000000), wk =   0.0047393
        k(  201) = (   0.0476190   0.0846789   0.0000000), wk =   0.0047393
        k(  202) = (   0.0428571   0.0762110   0.0000000), wk =   0.0047393
        k(  203) = (   0.0380952   0.0677431   0.0000000), wk =   0.0047393
        k(  204) = (   0.0333333   0.0592752   0.0000000), wk =   0.0047393
        k(  205) = (   0.0285714   0.0508073   0.0000000), wk =   0.0047393
        k(  206) = (   0.0238095   0.0423394   0.0000000), wk =   0.0047393
        k(  207) = (   0.0190476   0.0338715   0.0000000), wk =   0.0047393
        k(  208) = (   0.0142857   0.0254037   0.0000000), wk =   0.0047393
        k(  209) = (   0.0095238   0.0169358   0.0000000), wk =   0.0047393
        k(  210) = (   0.0047619   0.0084679   0.0000000), wk =   0.0047393
        k(  211) = (   0.0000000   0.0000000   0.0000000), wk =   0.0047393

                       cryst. coord.
        k(    1) = (   0.0000000   0.0000000   0.0000000), wk =   0.0047393
        k(    2) = (   0.0071429   0.0000000   0.0000000), wk =   0.0047393
        k(    3) = (   0.0142857   0.0000000   0.0000000), wk =   0.0047393
        k(    4) = (   0.0214286   0.0000000   0.0000000), wk =   0.0047393
        k(    5) = (   0.0285714   0.0000000   0.0000000), wk =   0.0047393
        k(    6) = (   0.0357143   0.0000000   0.0000000), wk =   0.0047393
        k(    7) = (   0.0428571   0.0000000   0.0000000), wk =   0.0047393
        k(    8) = (   0.0500000   0.0000000   0.0000000), wk =   0.0047393
        k(    9) = (   0.0571429   0.0000000   0.0000000), wk =   0.0047393
        k(   10) = (   0.0642857   0.0000000   0.0000000), wk =   0.0047393
        k(   11) = (   0.0714286   0.0000000   0.0000000), wk =   0.0047393
        k(   12) = (   0.0785714   0.0000000   0.0000000), wk =   0.0047393
        k(   13) = (   0.0857143   0.0000000   0.0000000), wk =   0.0047393
        k(   14) = (   0.0928571   0.0000000   0.0000000), wk =   0.0047393
        k(   15) = (   0.1000000   0.0000000   0.0000000), wk =   0.0047393
        k(   16) = (   0.1071429   0.0000000   0.0000000), wk =   0.0047393
        k(   17) = (   0.1142857   0.0000000   0.0000000), wk =   0.0047393
        k(   18) = (   0.1214286   0.0000000   0.0000000), wk =   0.0047393
        k(   19) = (   0.1285714   0.0000000   0.0000000), wk =   0.0047393
        k(   20) = (   0.1357143   0.0000000   0.0000000), wk =   0.0047393
        k(   21) = (   0.1428571   0.0000000   0.0000000), wk =   0.0047393
        k(   22) = (   0.1500000   0.0000000   0.0000000), wk =   0.0047393
        k(   23) = (   0.1571429   0.0000000   0.0000000), wk =   0.0047393
        k(   24) = (   0.1642857   0.0000000   0.0000000), wk =   0.0047393
        k(   25) = (   0.1714286   0.0000000   0.0000000), wk =   0.0047393
        k(   26) = (   0.1785714   0.0000000   0.0000000), wk =   0.0047393
        k(   27) = (   0.1857143   0.0000000   0.0000000), wk =   0.0047393
        k(   28) = (   0.1928571   0.0000000   0.0000000), wk =   0.0047393
        k(   29) = (   0.2000000   0.0000000   0.0000000), wk =   0.0047393
        k(   30) = (   0.2071429   0.0000000   0.0000000), wk =   0.0047393
        k(   31) = (   0.2142857   0.0000000   0.0000000), wk =   0.0047393
        k(   32) = (   0.2214286   0.0000000   0.0000000), wk =   0.0047393
        k(   33) = (   0.2285714   0.0000000   0.0000000), wk =   0.0047393
        k(   34) = (   0.2357143   0.0000000   0.0000000), wk =   0.0047393
        k(   35) = (   0.2428571   0.0000000   0.0000000), wk =   0.0047393
        k(   36) = (   0.2500000   0.0000000   0.0000000), wk =   0.0047393
        k(   37) = (   0.2571429   0.0000000   0.0000000), wk =   0.0047393
        k(   38) = (   0.2642857   0.0000000   0.0000000), wk =   0.0047393
        k(   39) = (   0.2714286   0.0000000   0.0000000), wk =   0.0047393
        k(   40) = (   0.2785714   0.0000000   0.0000000), wk =   0.0047393
        k(   41) = (   0.2857143   0.0000000   0.0000000), wk =   0.0047393
        k(   42) = (   0.2928571   0.0000000   0.0000000), wk =   0.0047393
        k(   43) = (   0.3000000   0.0000000   0.0000000), wk =   0.0047393
        k(   44) = (   0.3071429   0.0000000   0.0000000), wk =   0.0047393
        k(   45) = (   0.3142857   0.0000000   0.0000000), wk =   0.0047393
        k(   46) = (   0.3214286   0.0000000   0.0000000), wk =   0.0047393
        k(   47) = (   0.3285714   0.0000000   0.0000000), wk =   0.0047393
        k(   48) = (   0.3357143   0.0000000   0.0000000), wk =   0.0047393
        k(   49) = (   0.3428571   0.0000000   0.0000000), wk =   0.0047393
        k(   50) = (   0.3500000   0.0000000   0.0000000), wk =   0.0047393
        k(   51) = (   0.3571429   0.0000000   0.0000000), wk =   0.0047393
        k(   52) = (   0.3642857   0.0000000   0.0000000), wk =   0.0047393
        k(   53) = (   0.3714286   0.0000000   0.0000000), wk =   0.0047393
        k(   54) = (   0.3785714   0.0000000   0.0000000), wk =   0.0047393
        k(   55) = (   0.3857143   0.0000000   0.0000000), wk =   0.0047393
        k(   56) = (   0.3928571   0.0000000   0.0000000), wk =   0.0047393
        k(   57) = (   0.4000000   0.0000000   0.0000000), wk =   0.0047393
        k(   58) = (   0.4071429   0.0000000   0.0000000), wk =   0.0047393
        k(   59) = (   0.4142857   0.0000000   0.0000000), wk =   0.0047393
        k(   60) = (   0.4214286   0.0000000   0.0000000), wk =   0.0047393
        k(   61) = (   0.4285714   0.0000000   0.0000000), wk =   0.0047393
        k(   62) = (   0.4357143   0.0000000   0.0000000), wk =   0.0047393
        k(   63) = (   0.4428571   0.0000000   0.0000000), wk =   0.0047393
        k(   64) = (   0.4500000   0.0000000   0.0000000), wk =   0.0047393
        k(   65) = (   0.4571429   0.0000000   0.0000000), wk =   0.0047393
        k(   66) = (   0.4642857   0.0000000   0.0000000), wk =   0.0047393
        k(   67) = (   0.4714286   0.0000000   0.0000000), wk =   0.0047393
        k(   68) = (   0.4785714   0.0000000   0.0000000), wk =   0.0047393
        k(   69) = (   0.4857143   0.0000000   0.0000000), wk =   0.0047393
        k(   70) = (   0.4928571   0.0000000   0.0000000), wk =   0.0047393
        k(   71) = (   0.5000000   0.0000000   0.0000000), wk =   0.0047393
        k(   72) = (   0.4976190   0.0047619   0.0000000), wk =   0.0047393
        k(   73) = (   0.4952381   0.0095238   0.0000000), wk =   0.0047393
        k(   74) = (   0.4928571   0.0142857   0.0000000), wk =   0.0047393
        k(   75) = (   0.4904762   0.0190476   0.0000000), wk =   0.0047393
        k(   76) = (   0.4880952   0.0238095   0.0000000), wk =   0.0047393
        k(   77) = (   0.4857143   0.0285714   0.0000000), wk =   0.0047393
        k(   78) = (   0.4833333   0.0333333   0.0000000), wk =   0.0047393
        k(   79) = (   0.4809524   0.0380952   0.0000000), wk =   0.0047393
        k(   80) = (   0.4785714   0.0428571   0.0000000), wk =   0.0047393
        k(   81) = (   0.4761905   0.0476190   0.0000000), wk =   0.0047393
        k(   82) = (   0.4738095   0.0523810   0.0000000), wk =   0.0047393
        k(   83) = (   0.4714286   0.0571429   0.0000000), wk =   0.0047393
        k(   84) = (   0.4690476   0.0619048   0.0000000), wk =   0.0047393
        k(   85) = (   0.4666667   0.0666667   0.0000000), wk =   0.0047393
        k(   86) = (   0.4642857   0.0714286   0.0000000), wk =   0.0047393
        k(   87) = (   0.4619048   0.0761905   0.0000000), wk =   0.0047393
        k(   88) = (   0.4595238   0.0809524   0.0000000), wk =   0.0047393
        k(   89) = (   0.4571429   0.0857143   0.0000000), wk =   0.0047393
        k(   90) = (   0.4547619   0.0904762   0.0000000), wk =   0.0047393
        k(   91) = (   0.4523810   0.0952381   0.0000000), wk =   0.0047393
        k(   92) = (   0.4500000   0.1000000   0.0000000), wk =   0.0047393
        k(   93) = (   0.4476190   0.1047619   0.0000000), wk =   0.0047393
        k(   94) = (   0.4452381   0.1095238   0.0000000), wk =   0.0047393
        k(   95) = (   0.4428571   0.1142857   0.0000000), wk =   0.0047393
        k(   96) = (   0.4404762   0.1190476   0.0000000), wk =   0.0047393
        k(   97) = (   0.4380952   0.1238095   0.0000000), wk =   0.0047393
        k(   98) = (   0.4357143   0.1285714   0.0000000), wk =   0.0047393
        k(   99) = (   0.4333333   0.1333333   0.0000000), wk =   0.0047393
        k(  100) = (   0.4309524   0.1380952   0.0000000), wk =   0.0047393
        k(  101) = (   0.4285714   0.1428571   0.0000000), wk =   0.0047393
        k(  102) = (   0.4261905   0.1476190   0.0000000), wk =   0.0047393
        k(  103) = (   0.4238095   0.1523810   0.0000000), wk =   0.0047393
        k(  104) = (   0.4214286   0.1571429   0.0000000), wk =   0.0047393
        k(  105) = (   0.4190476   0.1619048   0.0000000), wk =   0.0047393
        k(  106) = (   0.4166667   0.1666667   0.0000000), wk =   0.0047393
        k(  107) = (   0.4142857   0.1714286   0.0000000), wk =   0.0047393
        k(  108) = (   0.4119048   0.1761905   0.0000000), wk =   0.0047393
        k(  109) = (   0.4095238   0.1809524   0.0000000), wk =   0.0047393
        k(  110) = (   0.4071429   0.1857143   0.0000000), wk =   0.0047393
        k(  111) = (   0.4047619   0.1904762   0.0000000), wk =   0.0047393
        k(  112) = (   0.4023810   0.1952381   0.0000000), wk =   0.0047393
        k(  113) = (   0.4000000   0.2000000   0.0000000), wk =   0.0047393
        k(  114) = (   0.3976190   0.2047619   0.0000000), wk =   0.0047393
        k(  115) = (   0.3952381   0.2095238   0.0000000), wk =   0.0047393
        k(  116) = (   0.3928571   0.2142857   0.0000000), wk =   0.0047393
        k(  117) = (   0.3904762   0.2190476   0.0000000), wk =   0.0047393
        k(  118) = (   0.3880952   0.2238095   0.0000000), wk =   0.0047393
        k(  119) = (   0.3857143   0.2285714   0.0000000), wk =   0.0047393
        k(  120) = (   0.3833333   0.2333333   0.0000000), wk =   0.0047393
        k(  121) = (   0.3809524   0.2380952   0.0000000), wk =   0.0047393
        k(  122) = (   0.3785714   0.2428571   0.0000000), wk =   0.0047393
        k(  123) = (   0.3761905   0.2476190   0.0000000), wk =   0.0047393
        k(  124) = (   0.3738095   0.2523810   0.0000000), wk =   0.0047393
        k(  125) = (   0.3714286   0.2571429   0.0000000), wk =   0.0047393
        k(  126) = (   0.3690476   0.2619048   0.0000000), wk =   0.0047393
        k(  127) = (   0.3666667   0.2666667   0.0000000), wk =   0.0047393
        k(  128) = (   0.3642857   0.2714286   0.0000000), wk =   0.0047393
        k(  129) = (   0.3619048   0.2761905   0.0000000), wk =   0.0047393
        k(  130) = (   0.3595238   0.2809524   0.0000000), wk =   0.0047393
        k(  131) = (   0.3571429   0.2857143   0.0000000), wk =   0.0047393
        k(  132) = (   0.3547619   0.2904762   0.0000000), wk =   0.0047393
        k(  133) = (   0.3523810   0.2952381   0.0000000), wk =   0.0047393
        k(  134) = (   0.3500000   0.3000000   0.0000000), wk =   0.0047393
        k(  135) = (   0.3476190   0.3047619   0.0000000), wk =   0.0047393
        k(  136) = (   0.3452381   0.3095238   0.0000000), wk =   0.0047393
        k(  137) = (   0.3428571   0.3142857   0.0000000), wk =   0.0047393
        k(  138) = (   0.3404762   0.3190476   0.0000000), wk =   0.0047393
        k(  139) = (   0.3380952   0.3238095   0.0000000), wk =   0.0047393
        k(  140) = (   0.3357143   0.3285714   0.0000000), wk =   0.0047393
        k(  141) = (   0.3333333   0.3333333   0.0000000), wk =   0.0047393
        k(  142) = (   0.3285714   0.3285714   0.0000000), wk =   0.0047393
        k(  143) = (   0.3238095   0.3238095   0.0000000), wk =   0.0047393
        k(  144) = (   0.3190476   0.3190476   0.0000000), wk =   0.0047393
        k(  145) = (   0.3142857   0.3142857   0.0000000), wk =   0.0047393
        k(  146) = (   0.3095238   0.3095238   0.0000000), wk =   0.0047393
        k(  147) = (   0.3047619   0.3047619   0.0000000), wk =   0.0047393
        k(  148) = (   0.3000000   0.3000000   0.0000000), wk =   0.0047393
        k(  149) = (   0.2952381   0.2952381   0.0000000), wk =   0.0047393
        k(  150) = (   0.2904762   0.2904762   0.0000000), wk =   0.0047393
        k(  151) = (   0.2857143   0.2857143   0.0000000), wk =   0.0047393
        k(  152) = (   0.2809524   0.2809524   0.0000000), wk =   0.0047393
        k(  153) = (   0.2761905   0.2761905   0.0000000), wk =   0.0047393
        k(  154) = (   0.2714286   0.2714286   0.0000000), wk =   0.0047393
        k(  155) = (   0.2666667   0.2666667   0.0000000), wk =   0.0047393
        k(  156) = (   0.2619048   0.2619048   0.0000000), wk =   0.0047393
        k(  157) = (   0.2571429   0.2571429   0.0000000), wk =   0.0047393
        k(  158) = (   0.2523810   0.2523810   0.0000000), wk =   0.0047393
        k(  159) = (   0.2476190   0.2476190   0.0000000), wk =   0.0047393
        k(  160) = (   0.2428571   0.2428571   0.0000000), wk =   0.0047393
        k(  161) = (   0.2380952   0.2380952   0.0000000), wk =   0.0047393
        k(  162) = (   0.2333333   0.2333333   0.0000000), wk =   0.0047393
        k(  163) = (   0.2285714   0.2285714   0.0000000), wk =   0.0047393
        k(  164) = (   0.2238095   0.2238095   0.0000000), wk =   0.0047393
        k(  165) = (   0.2190476   0.2190476   0.0000000), wk =   0.0047393
        k(  166) = (   0.2142857   0.2142857   0.0000000), wk =   0.0047393
        k(  167) = (   0.2095238   0.2095238   0.0000000), wk =   0.0047393
        k(  168) = (   0.2047619   0.2047619   0.0000000), wk =   0.0047393
        k(  169) = (   0.2000000   0.2000000   0.0000000), wk =   0.0047393
        k(  170) = (   0.1952381   0.1952381   0.0000000), wk =   0.0047393
        k(  171) = (   0.1904762   0.1904762   0.0000000), wk =   0.0047393
        k(  172) = (   0.1857143   0.1857143   0.0000000), wk =   0.0047393
        k(  173) = (   0.1809524   0.1809524   0.0000000), wk =   0.0047393
        k(  174) = (   0.1761905   0.1761905   0.0000000), wk =   0.0047393
        k(  175) = (   0.1714286   0.1714286   0.0000000), wk =   0.0047393
        k(  176) = (   0.1666667   0.1666667   0.0000000), wk =   0.0047393
        k(  177) = (   0.1619048   0.1619048   0.0000000), wk =   0.0047393
        k(  178) = (   0.1571429   0.1571429   0.0000000), wk =   0.0047393
        k(  179) = (   0.1523810   0.1523810   0.0000000), wk =   0.0047393
        k(  180) = (   0.1476190   0.1476190   0.0000000), wk =   0.0047393
        k(  181) = (   0.1428571   0.1428571   0.0000000), wk =   0.0047393
        k(  182) = (   0.1380952   0.1380952   0.0000000), wk =   0.0047393
        k(  183) = (   0.1333333   0.1333333   0.0000000), wk =   0.0047393
        k(  184) = (   0.1285714   0.1285714   0.0000000), wk =   0.0047393
        k(  185) = (   0.1238095   0.1238095   0.0000000), wk =   0.0047393
        k(  186) = (   0.1190476   0.1190476   0.0000000), wk =   0.0047393
        k(  187) = (   0.1142857   0.1142857   0.0000000), wk =   0.0047393
        k(  188) = (   0.1095238   0.1095238   0.0000000), wk =   0.0047393
        k(  189) = (   0.1047619   0.1047619   0.0000000), wk =   0.0047393
        k(  190) = (   0.1000000   0.1000000   0.0000000), wk =   0.0047393
        k(  191) = (   0.0952381   0.0952381   0.0000000), wk =   0.0047393
        k(  192) = (   0.0904762   0.0904762   0.0000000), wk =   0.0047393
        k(  193) = (   0.0857143   0.0857143   0.0000000), wk =   0.0047393
        k(  194) = (   0.0809524   0.0809524   0.0000000), wk =   0.0047393
        k(  195) = (   0.0761905   0.0761905   0.0000000), wk =   0.0047393
        k(  196) = (   0.0714286   0.0714286   0.0000000), wk =   0.0047393
        k(  197) = (   0.0666667   0.0666667   0.0000000), wk =   0.0047393
        k(  198) = (   0.0619048   0.0619048   0.0000000), wk =   0.0047393
        k(  199) = (   0.0571429   0.0571429   0.0000000), wk =   0.0047393
        k(  200) = (   0.0523810   0.0523810   0.0000000), wk =   0.0047393
        k(  201) = (   0.0476190   0.0476190   0.0000000), wk =   0.0047393
        k(  202) = (   0.0428571   0.0428571   0.0000000), wk =   0.0047393
        k(  203) = (   0.0380952   0.0380952   0.0000000), wk =   0.0047393
        k(  204) = (   0.0333333   0.0333333   0.0000000), wk =   0.0047393
        k(  205) = (   0.0285714   0.0285714   0.0000000), wk =   0.0047393
        k(  206) = (   0.0238095   0.0238095   0.0000000), wk =   0.0047393
        k(  207) = (   0.0190476   0.0190476   0.0000000), wk =   0.0047393
        k(  208) = (   0.0142857   0.0142857   0.0000000), wk =   0.0047393
        k(  209) = (   0.0095238   0.0095238   0.0000000), wk =   0.0047393
        k(  210) = (   0.0047619   0.0047619   0.0000000), wk =   0.0047393
        k(  211) = (   0.0000000   0.0000000   0.0000000), wk =   0.0047393

     Dense  grid:   782755 G-vectors     FFT dimensions: (  72,  72, 360)

     Smooth grid:   198065 G-vectors     FFT dimensions: (  45,  45, 225)

     Dynamical RAM for                 wfc:       6.29 MB

     Dynamical RAM for     wfc (w. buffer):       6.29 MB

     Dynamical RAM for           str. fact:       1.00 MB

     Dynamical RAM for           local pot:       0.00 MB

     Dynamical RAM for          nlocal pot:       2.67 MB

     Dynamical RAM for                qrad:      11.12 MB

     Dynamical RAM for          rho,v,vnew:      13.09 MB

     Dynamical RAM for           G-vectors:       1.93 MB

     Dynamical RAM for          h,s,v(r/c):       1.83 MB

     Dynamical RAM for          <psi|beta>:       1.04 MB

     Dynamical RAM for                 psi:      12.59 MB

     Dynamical RAM for                hpsi:      12.59 MB

     Dynamical RAM for      wfcinit/wfcrot:      10.36 MB

     Estimated static dynamical RAM per process >      42.33 MB

     Estimated max dynamical RAM per process >      70.37 MB

     Estimated total dynamical RAM >       1.65 GB

     The potential is recalculated from file :
     tmp/Sb2Te3-uatsx-c5-soc-4.0.save/charge-density

     Starting wfcs are random

     Band Structure Calculation
     Davidson diagonalization with overlap

     Computing kpt #:     1  of   211
     total cpu time spent up to now is       19.0 secs

     Computing kpt #:     2  of   211
     total cpu time spent up to now is       35.4 secs

     Computing kpt #:     3  of   211
     total cpu time spent up to now is       50.6 secs

     Computing kpt #:     4  of   211
     total cpu time spent up to now is       67.0 secs

     Computing kpt #:     5  of   211
     total cpu time spent up to now is       84.1 secs

     Computing kpt #:     6  of   211
     total cpu time spent up to now is      100.6 secs

     Computing kpt #:     7  of   211
     total cpu time spent up to now is      116.2 secs

     Computing kpt #:     8  of   211
     total cpu time spent up to now is      131.1 secs

     Computing kpt #:     9  of   211
     total cpu time spent up to now is      145.6 secs

     Computing kpt #:    10  of   211
     total cpu time spent up to now is      160.1 secs

     Computing kpt #:    11  of   211
     total cpu time spent up to now is      173.7 secs

     Computing kpt #:    12  of   211
     total cpu time spent up to now is      187.3 secs

     Computing kpt #:    13  of   211
     total cpu time spent up to now is      200.8 secs

     Computing kpt #:    14  of   211
     total cpu time spent up to now is      214.4 secs

     Computing kpt #:    15  of   211
     total cpu time spent up to now is      229.2 secs

     Computing kpt #:    16  of   211
     total cpu time spent up to now is      243.8 secs

     Computing kpt #:    17  of   211
     total cpu time spent up to now is      259.0 secs

     Computing kpt #:    18  of   211
     total cpu time spent up to now is      274.2 secs

     Computing kpt #:    19  of   211
     total cpu time spent up to now is      290.7 secs

     Computing kpt #:    20  of   211
     total cpu time spent up to now is      307.4 secs

     Computing kpt #:    21  of   211
     total cpu time spent up to now is      323.8 secs

     Computing kpt #:    22  of   211
     total cpu time spent up to now is      339.4 secs

     Computing kpt #:    23  of   211
     total cpu time spent up to now is      355.9 secs

     Computing kpt #:    24  of   211
     total cpu time spent up to now is      373.2 secs

     Computing kpt #:    25  of   211
     total cpu time spent up to now is      388.8 secs

     Computing kpt #:    26  of   211
     total cpu time spent up to now is      404.3 secs

     Computing kpt #:    27  of   211
     total cpu time spent up to now is      419.6 secs

     Computing kpt #:    28  of   211
     total cpu time spent up to now is      434.9 secs

     Computing kpt #:    29  of   211
     total cpu time spent up to now is      450.5 secs

     Computing kpt #:    30  of   211
     total cpu time spent up to now is      466.0 secs

     Computing kpt #:    31  of   211
     total cpu time spent up to now is      482.7 secs

     Computing kpt #:    32  of   211
     total cpu time spent up to now is      498.9 secs

     Computing kpt #:    33  of   211
     total cpu time spent up to now is      514.1 secs

     Computing kpt #:    34  of   211
     total cpu time spent up to now is      529.4 secs

     Computing kpt #:    35  of   211
     total cpu time spent up to now is      544.4 secs

     Computing kpt #:    36  of   211
     total cpu time spent up to now is      559.2 secs

     Computing kpt #:    37  of   211
     total cpu time spent up to now is      573.7 secs

     Computing kpt #:    38  of   211
     total cpu time spent up to now is      588.3 secs

     Computing kpt #:    39  of   211
     total cpu time spent up to now is      603.2 secs

     Computing kpt #:    40  of   211
     total cpu time spent up to now is      619.8 secs

     Computing kpt #:    41  of   211
     total cpu time spent up to now is      634.5 secs

     Computing kpt #:    42  of   211
     total cpu time spent up to now is      650.5 secs

     Computing kpt #:    43  of   211
     total cpu time spent up to now is      665.2 secs

     Computing kpt #:    44  of   211
     total cpu time spent up to now is      680.1 secs

     Computing kpt #:    45  of   211
     total cpu time spent up to now is      694.6 secs

     Computing kpt #:    46  of   211
     total cpu time spent up to now is      709.2 secs

     Computing kpt #:    47  of   211
     total cpu time spent up to now is      723.7 secs

     Computing kpt #:    48  of   211
     total cpu time spent up to now is      737.5 secs

     Computing kpt #:    49  of   211
     total cpu time spent up to now is      752.0 secs

     Computing kpt #:    50  of   211
     total cpu time spent up to now is      765.8 secs

     Computing kpt #:    51  of   211
     total cpu time spent up to now is      779.4 secs

     Computing kpt #:    52  of   211
     total cpu time spent up to now is      793.0 secs

     Computing kpt #:    53  of   211
     total cpu time spent up to now is      806.7 secs

     Computing kpt #:    54  of   211
     total cpu time spent up to now is      821.5 secs

     Computing kpt #:    55  of   211
     total cpu time spent up to now is      836.2 secs

     Computing kpt #:    56  of   211
     total cpu time spent up to now is      850.9 secs

     Computing kpt #:    57  of   211
     total cpu time spent up to now is      865.6 secs

     Computing kpt #:    58  of   211
     total cpu time spent up to now is      880.3 secs

     Computing kpt #:    59  of   211
     total cpu time spent up to now is      895.1 secs

     Computing kpt #:    60  of   211
     total cpu time spent up to now is      910.0 secs

     Computing kpt #:    61  of   211
     total cpu time spent up to now is      924.7 secs

     Computing kpt #:    62  of   211
     total cpu time spent up to now is      939.7 secs

     Computing kpt #:    63  of   211
     total cpu time spent up to now is      954.8 secs

     Computing kpt #:    64  of   211
     total cpu time spent up to now is      969.5 secs

     Computing kpt #:    65  of   211
     total cpu time spent up to now is      984.5 secs

     Computing kpt #:    66  of   211
     total cpu time spent up to now is      999.7 secs

     Computing kpt #:    67  of   211
     total cpu time spent up to now is     1015.0 secs

     Computing kpt #:    68  of   211
     total cpu time spent up to now is     1030.5 secs

     Computing kpt #:    69  of   211
     total cpu time spent up to now is     1045.9 secs

     Computing kpt #:    70  of   211
     total cpu time spent up to now is     1061.5 secs

     Computing kpt #:    71  of   211
     total cpu time spent up to now is     1076.7 secs

     Computing kpt #:    72  of   211
     total cpu time spent up to now is     1092.2 secs

     Computing kpt #:    73  of   211
     total cpu time spent up to now is     1107.4 secs

     Computing kpt #:    74  of   211
     total cpu time spent up to now is     1123.2 secs

     Computing kpt #:    75  of   211
     total cpu time spent up to now is     1138.8 secs

     Computing kpt #:    76  of   211
     total cpu time spent up to now is     1154.7 secs

     Computing kpt #:    77  of   211
     total cpu time spent up to now is     1171.1 secs

     Computing kpt #:    78  of   211
     total cpu time spent up to now is     1186.8 secs

     Computing kpt #:    79  of   211
     total cpu time spent up to now is     1202.3 secs

     Computing kpt #:    80  of   211
     total cpu time spent up to now is     1218.0 secs

     Computing kpt #:    81  of   211
     total cpu time spent up to now is     1233.0 secs

     Computing kpt #:    82  of   211
     total cpu time spent up to now is     1248.4 secs

     Computing kpt #:    83  of   211
     total cpu time spent up to now is     1263.8 secs

     Computing kpt #:    84  of   211
     total cpu time spent up to now is     1279.1 secs

     Computing kpt #:    85  of   211
     total cpu time spent up to now is     1294.5 secs

     Computing kpt #:    86  of   211
     total cpu time spent up to now is     1309.6 secs

     Computing kpt #:    87  of   211
     total cpu time spent up to now is     1325.0 secs

     Computing kpt #:    88  of   211
     total cpu time spent up to now is     1342.7 secs

     Computing kpt #:    89  of   211
     total cpu time spent up to now is     1358.3 secs

     Computing kpt #:    90  of   211
     total cpu time spent up to now is     1374.8 secs

     Computing kpt #:    91  of   211
     total cpu time spent up to now is     1391.5 secs

     Computing kpt #:    92  of   211
     total cpu time spent up to now is     1410.1 secs

     Computing kpt #:    93  of   211
     total cpu time spent up to now is     1427.0 secs

     Computing kpt #:    94  of   211
     total cpu time spent up to now is     1443.8 secs

     Computing kpt #:    95  of   211
     total cpu time spent up to now is     1459.7 secs

     Computing kpt #:    96  of   211
     total cpu time spent up to now is     1476.5 secs

     Computing kpt #:    97  of   211
     total cpu time spent up to now is     1493.1 secs

     Computing kpt #:    98  of   211
     total cpu time spent up to now is     1509.0 secs

     Computing kpt #:    99  of   211
     total cpu time spent up to now is     1525.5 secs

     Computing kpt #:   100  of   211
     total cpu time spent up to now is     1542.1 secs

     Computing kpt #:   101  of   211
     total cpu time spent up to now is     1558.5 secs

     Computing kpt #:   102  of   211
     total cpu time spent up to now is     1574.8 secs

     Computing kpt #:   103  of   211
     total cpu time spent up to now is     1589.9 secs

     Computing kpt #:   104  of   211
     total cpu time spent up to now is     1606.2 secs

     Computing kpt #:   105  of   211
     total cpu time spent up to now is     1622.4 secs

     Computing kpt #:   106  of   211
     total cpu time spent up to now is     1638.4 secs

     Computing kpt #:   107  of   211
     total cpu time spent up to now is     1654.7 secs

     Computing kpt #:   108  of   211
     total cpu time spent up to now is     1670.6 secs

     Computing kpt #:   109  of   211
     total cpu time spent up to now is     1686.7 secs

     Computing kpt #:   110  of   211
     total cpu time spent up to now is     1701.9 secs

     Computing kpt #:   111  of   211
     total cpu time spent up to now is     1717.2 secs

     Computing kpt #:   112  of   211
     total cpu time spent up to now is     1732.3 secs

     Computing kpt #:   113  of   211
     total cpu time spent up to now is     1747.4 secs

     Computing kpt #:   114  of   211
     total cpu time spent up to now is     1762.5 secs

     Computing kpt #:   115  of   211
     total cpu time spent up to now is     1777.6 secs

     Computing kpt #:   116  of   211
     total cpu time spent up to now is     1792.7 secs

     Computing kpt #:   117  of   211
     total cpu time spent up to now is     1809.0 secs

     Computing kpt #:   118  of   211
     total cpu time spent up to now is     1825.5 secs

     Computing kpt #:   119  of   211
     total cpu time spent up to now is     1842.0 secs

     Computing kpt #:   120  of   211
     total cpu time spent up to now is     1858.4 secs

     Computing kpt #:   121  of   211
     total cpu time spent up to now is     1874.0 secs

     Computing kpt #:   122  of   211
     total cpu time spent up to now is     1890.4 secs

     Computing kpt #:   123  of   211
     total cpu time spent up to now is     1908.0 secs

     Computing kpt #:   124  of   211
     total cpu time spent up to now is     1928.0 secs

     Computing kpt #:   125  of   211
     total cpu time spent up to now is     1946.3 secs

     Computing kpt #:   126  of   211
     total cpu time spent up to now is     1962.9 secs

     Computing kpt #:   127  of   211
     total cpu time spent up to now is     1979.4 secs

     Computing kpt #:   128  of   211
     total cpu time spent up to now is     1995.9 secs

     Computing kpt #:   129  of   211
     total cpu time spent up to now is     2012.6 secs

     Computing kpt #:   130  of   211
     total cpu time spent up to now is     2029.6 secs

     Computing kpt #:   131  of   211
     total cpu time spent up to now is     2047.8 secs

     Computing kpt #:   132  of   211
     total cpu time spent up to now is     2065.0 secs

     Computing kpt #:   133  of   211
     total cpu time spent up to now is     2083.1 secs

     Computing kpt #:   134  of   211
     total cpu time spent up to now is     2101.4 secs

     Computing kpt #:   135  of   211
     total cpu time spent up to now is     2119.7 secs

     Computing kpt #:   136  of   211
     total cpu time spent up to now is     2136.9 secs

     Computing kpt #:   137  of   211
     total cpu time spent up to now is     2154.1 secs

     Computing kpt #:   138  of   211
     total cpu time spent up to now is     2171.4 secs

     Computing kpt #:   139  of   211
     total cpu time spent up to now is     2188.6 secs

     Computing kpt #:   140  of   211
     total cpu time spent up to now is     2205.8 secs

     Computing kpt #:   141  of   211
     total cpu time spent up to now is     2223.8 secs

     Computing kpt #:   142  of   211
     total cpu time spent up to now is     2241.9 secs

     Computing kpt #:   143  of   211
     total cpu time spent up to now is     2259.0 secs

     Computing kpt #:   144  of   211
     total cpu time spent up to now is     2275.8 secs

     Computing kpt #:   145  of   211
     total cpu time spent up to now is     2292.6 secs

     Computing kpt #:   146  of   211
     total cpu time spent up to now is     2308.3 secs

     Computing kpt #:   147  of   211
     total cpu time spent up to now is     2324.2 secs

     Computing kpt #:   148  of   211
     total cpu time spent up to now is     2341.0 secs

     Computing kpt #:   149  of   211
     total cpu time spent up to now is     2358.2 secs

     Computing kpt #:   150  of   211
     total cpu time spent up to now is     2374.9 secs

     Computing kpt #:   151  of   211
     total cpu time spent up to now is     2390.6 secs

     Computing kpt #:   152  of   211
     total cpu time spent up to now is     2406.3 secs

     Computing kpt #:   153  of   211
     total cpu time spent up to now is     2421.9 secs

     Computing kpt #:   154  of   211
     total cpu time spent up to now is     2437.4 secs

     Computing kpt #:   155  of   211
     total cpu time spent up to now is     2452.8 secs

     Computing kpt #:   156  of   211
     total cpu time spent up to now is     2468.4 secs

     Computing kpt #:   157  of   211
     total cpu time spent up to now is     2484.0 secs

     Computing kpt #:   158  of   211
     total cpu time spent up to now is     2499.6 secs

     Computing kpt #:   159  of   211
     total cpu time spent up to now is     2515.0 secs

     Computing kpt #:   160  of   211
     total cpu time spent up to now is     2530.6 secs

     Computing kpt #:   161  of   211
     total cpu time spent up to now is     2547.2 secs

     Computing kpt #:   162  of   211
     total cpu time spent up to now is     2563.9 secs

     Computing kpt #:   163  of   211
     total cpu time spent up to now is     2579.0 secs

     Computing kpt #:   164  of   211
     total cpu time spent up to now is     2594.0 secs

     Computing kpt #:   165  of   211
     total cpu time spent up to now is     2608.9 secs

     Computing kpt #:   166  of   211
     total cpu time spent up to now is     2624.0 secs

     Computing kpt #:   167  of   211
     total cpu time spent up to now is     2640.4 secs

     Computing kpt #:   168  of   211
     total cpu time spent up to now is     2656.6 secs

     Computing kpt #:   169  of   211
     total cpu time spent up to now is     2671.5 secs

     Computing kpt #:   170  of   211
     total cpu time spent up to now is     2686.3 secs

     Computing kpt #:   171  of   211
     total cpu time spent up to now is     2701.1 secs

     Computing kpt #:   172  of   211
     total cpu time spent up to now is     2715.8 secs

     Computing kpt #:   173  of   211
     total cpu time spent up to now is     2730.4 secs

     Computing kpt #:   174  of   211
     total cpu time spent up to now is     2745.3 secs

     Computing kpt #:   175  of   211
     total cpu time spent up to now is     2760.1 secs

     Computing kpt #:   176  of   211
     total cpu time spent up to now is     2775.0 secs

     Computing kpt #:   177  of   211
     total cpu time spent up to now is     2790.0 secs

     Computing kpt #:   178  of   211
     total cpu time spent up to now is     2806.0 secs

     Computing kpt #:   179  of   211
     total cpu time spent up to now is     2821.1 secs

     Computing kpt #:   180  of   211
     total cpu time spent up to now is     2836.2 secs

     Computing kpt #:   181  of   211
     total cpu time spent up to now is     2851.5 secs

     Computing kpt #:   182  of   211
     total cpu time spent up to now is     2868.0 secs

     Computing kpt #:   183  of   211
     total cpu time spent up to now is     2884.6 secs

     Computing kpt #:   184  of   211
     total cpu time spent up to now is     2900.9 secs

     Computing kpt #:   185  of   211
     total cpu time spent up to now is     2917.4 secs

     Computing kpt #:   186  of   211
     total cpu time spent up to now is     2933.0 secs

     Computing kpt #:   187  of   211
     total cpu time spent up to now is     2949.2 secs

     Computing kpt #:   188  of   211
     total cpu time spent up to now is     2964.2 secs

     Computing kpt #:   189  of   211
     total cpu time spent up to now is     2979.2 secs

     Computing kpt #:   190  of   211
     total cpu time spent up to now is     2994.4 secs

     Computing kpt #:   191  of   211
     total cpu time spent up to now is     3009.9 secs

     Computing kpt #:   192  of   211
     total cpu time spent up to now is     3026.4 secs

     Computing kpt #:   193  of   211
     total cpu time spent up to now is     3043.1 secs

     Computing kpt #:   194  of   211
     total cpu time spent up to now is     3058.3 secs

     Computing kpt #:   195  of   211
     total cpu time spent up to now is     3073.5 secs

     Computing kpt #:   196  of   211
     total cpu time spent up to now is     3088.7 secs

     Computing kpt #:   197  of   211
     total cpu time spent up to now is     3103.6 secs

     Computing kpt #:   198  of   211
     total cpu time spent up to now is     3118.7 secs

     Computing kpt #:   199  of   211
     total cpu time spent up to now is     3133.8 secs

     Computing kpt #:   200  of   211
     total cpu time spent up to now is     3149.2 secs

     Computing kpt #:   201  of   211
     total cpu time spent up to now is     3164.8 secs

     Computing kpt #:   202  of   211
     total cpu time spent up to now is     3180.2 secs

     Computing kpt #:   203  of   211
     total cpu time spent up to now is     3196.6 secs

     Computing kpt #:   204  of   211
     total cpu time spent up to now is     3212.8 secs

     Computing kpt #:   205  of   211
     total cpu time spent up to now is     3229.3 secs

     Computing kpt #:   206  of   211
     total cpu time spent up to now is     3245.7 secs

     Computing kpt #:   207  of   211
     total cpu time spent up to now is     3261.8 secs

     Computing kpt #:   208  of   211
     total cpu time spent up to now is     3278.4 secs

     Computing kpt #:   209  of   211
     total cpu time spent up to now is     3295.3 secs

     Computing kpt #:   210  of   211
     total cpu time spent up to now is     3312.1 secs

     Computing kpt #:   211  of   211
     total cpu time spent up to now is     3328.9 secs

     ethr =  1.28E-10,  avg # of iterations = 58.9

     total cpu time spent up to now is     3328.9 secs

     End of band structure calculation

          k = 0.0000 0.0000 0.0000 ( 24691 PWs)   bands (ev):

   -35.6376 -35.6376 -35.6333 -35.6333 -35.6039 -35.6039 -35.5996 -35.5996
   -35.5342 -35.5342 -35.5034 -35.5034 -34.1793 -34.1793 -34.1750 -34.1750
   -34.1510 -34.1510 -34.1466 -34.1466 -34.1354 -34.1354 -34.1311 -34.1311
   -34.0727 -34.0727 -34.0555 -34.0555 -34.0322 -34.0322 -28.2872 -28.2872
   -28.2842 -28.2842 -28.2787 -28.2787 -28.2757 -28.2757 -27.0477 -27.0477
   -27.0447 -27.0447 -27.0393 -27.0393 -27.0363 -27.0363 -27.0360 -27.0360
   -27.0330 -27.0330 -10.7126 -10.7126 -10.1728 -10.1728  -9.1020  -9.1020
    -6.3663  -6.3663  -5.0231  -5.0231  -0.6472  -0.6472  -0.2273  -0.2273
     0.0682   0.0682   0.3169   0.3169   0.3950   0.3950   0.4842   0.4842
     0.7818   0.7818   1.0404   1.0404   1.2388   1.2388   1.8446   1.8446
     2.5279   2.5279   2.9101   2.9101   3.0836   3.0836   3.8074   3.8074
     4.0434   4.0434   6.1006   6.1006   6.2832   6.2832   6.9248   6.9248
     7.2237   7.2237   7.4652   7.4652   7.7766   7.7766   8.2545   8.2545
     8.4643   8.4643   8.5440   8.5440   8.6240   8.6240   9.1265   9.1265
     9.3953   9.3953   9.5907   9.5907   9.9278   9.9278   9.9764   9.9764
    10.4212  10.4212  10.7875  10.7875  11.2518  11.2518  11.3396  11.3396
    11.4096  11.4096  11.6104  11.6104  12.7307  12.7307  12.7425  12.7425
    13.5964  13.5964  13.8788  13.8788  14.1043  14.1043  14.1060  14.1060
    14.3415  14.3415  14.9272  14.9272  15.3918  15.3918  15.7299  15.7299
    15.8504  15.8504  15.9560  15.9560  16.0423  16.0423  16.2331  16.2331
    16.5351  16.5351  16.6728  16.6728  16.7387  16.7387  16.8008  16.8008
    16.9865  16.9865  17.0701  17.0701  17.1384  17.1384  17.1898  17.1898
    17.3700  17.3700  17.4421  17.4421  17.5101  17.5101  17.6708  17.6708
    17.7383  17.7383  17.9715  17.9715  18.6197  18.6197  18.6696  18.6696
    18.7695  18.7695  18.9748  18.9748  19.0758  19.0758  19.1449  19.1449

          k = 0.0071 0.0041 0.0000 ( 24700 PWs)   bands (ev):

   -35.6376 -35.6376 -35.6333 -35.6333 -35.6039 -35.6039 -35.5996 -35.5996
   -35.5342 -35.5342 -35.5034 -35.5034 -34.1793 -34.1793 -34.1750 -34.1750
   -34.1510 -34.1510 -34.1466 -34.1466 -34.1354 -34.1354 -34.1311 -34.1311
   -34.0727 -34.0727 -34.0555 -34.0555 -34.0322 -34.0322 -28.2872 -28.2872
   -28.2842 -28.2842 -28.2787 -28.2787 -28.2757 -28.2757 -27.0477 -27.0477
   -27.0447 -27.0447 -27.0393 -27.0393 -27.0363 -27.0363 -27.0360 -27.0360
   -27.0330 -27.0330 -10.7122 -10.7122 -10.1725 -10.1724  -9.1018  -9.1018
    -6.3664  -6.3664  -5.0240  -5.0240  -0.6481  -0.6481  -0.2338  -0.2335
     0.0692   0.0695   0.3092   0.3098   0.3875   0.3879   0.4940   0.4947
     0.7838   0.7840   1.0382   1.0384   1.2403   1.2404   1.8513   1.8514
     2.5266   2.5267   2.9033   2.9036   3.0917   3.0921   3.8092   3.8093
     4.0431   4.0431   6.1013   6.1013   6.2832   6.2833   6.9249   6.9249
     7.2216   7.2216   7.4650   7.4650   7.7766   7.7766   8.2572   8.2572
     8.4611   8.4614   8.5458   8.5464   8.6227   8.6230   9.1246   9.1246
     9.4022   9.4022   9.5928   9.5928   9.9252   9.9252   9.9785   9.9786
    10.4226  10.4226  10.7890  10.7890  11.2365  11.2368  11.3260  11.3264
    11.4346  11.4348  11.6176  11.6177  12.7270  12.7270  12.7459  12.7460
    13.5861  13.5862  13.8847  13.8848  14.0717  14.0718  14.1400  14.1400
    14.3446  14.3447  14.9282  14.9282  15.3701  15.3702  15.7334  15.7335
    15.8633  15.8634  15.9441  15.9442  16.0559  16.0559  16.2330  16.2330
    16.5248  16.5249  16.6090  16.6091  16.7471  16.7471  16.8237  16.8238
    16.9928  16.9928  17.0648  17.0649  17.1535  17.1535  17.2128  17.2129
    17.3573  17.3574  17.4494  17.4494  17.5104  17.5104  17.6866  17.6867
    17.7362  17.7362  17.9830  17.9830  18.5468  18.5468  18.6587  18.6587
    18.8035  18.8036  19.0117  19.0118  19.0459  19.0460  19.1649  19.1649

          k = 0.0143 0.0082 0.0000 ( 24698 PWs)   bands (ev):

   -35.6376 -35.6376 -35.6333 -35.6333 -35.6039 -35.6039 -35.5996 -35.5996
   -35.5342 -35.5342 -35.5034 -35.5034 -34.1793 -34.1793 -34.1750 -34.1750
   -34.1510 -34.1510 -34.1466 -34.1466 -34.1354 -34.1354 -34.1311 -34.1311
   -34.0727 -34.0727 -34.0555 -34.0555 -34.0322 -34.0322 -28.2872 -28.2872
   -28.2842 -28.2842 -28.2787 -28.2787 -28.2757 -28.2757 -27.0477 -27.0477
   -27.0447 -27.0447 -27.0393 -27.0393 -27.0363 -27.0363 -27.0360 -27.0360
   -27.0330 -27.0330 -10.7110 -10.7110 -10.1713 -10.1713  -9.1012  -9.1012
    -6.3668  -6.3668  -5.0265  -5.0265  -0.6506  -0.6506  -0.2525  -0.2519
     0.0721   0.0726   0.2866   0.2876   0.3755   0.3759   0.5146   0.5157
     0.7898   0.7903   1.0318   1.0323   1.2456   1.2457   1.8707   1.8709
     2.5226   2.5228   2.8872   2.8877   3.1130   3.1135   3.8147   3.8148
     4.0423   4.0424   6.1035   6.1036   6.2835   6.2835   6.9253   6.9253
     7.2154   7.2154   7.4644   7.4644   7.7768   7.7768   8.2649   8.2649
     8.4527   8.4533   8.5495   8.5507   8.6210   8.6216   9.1194   9.1194
     9.4217   9.4218   9.5990   9.5990   9.9179   9.9179   9.9847   9.9848
    10.4269  10.4269  10.7930  10.7930  11.2009  11.2012  11.3038  11.3042
    11.4840  11.4842  11.6380  11.6381  12.7197  12.7197  12.7522  12.7522
    13.5590  13.5591  13.8963  13.8964  14.0451  14.0452  14.1728  14.1729
    14.3549  14.3549  14.9287  14.9288  15.3207  15.3207  15.7278  15.7279
    15.8978  15.8979  15.9283  15.9284  16.0803  16.0804  16.2341  16.2341
    16.4713  16.4714  16.5693  16.5694  16.6558  16.6558  16.9166  16.9166
    16.9879  16.9880  17.0531  17.0532  17.1988  17.1988  17.2466  17.2466
    17.3527  17.3527  17.4567  17.4568  17.5190  17.5191  17.7182  17.7185
    17.7445  17.7448  18.0118  18.0118  18.4463  18.4463  18.5729  18.5729
    18.8653  18.8654  19.0152  19.0152  19.0872  19.0873  19.1386  19.1387

          k = 0.0214 0.0124 0.0000 ( 24708 PWs)   bands (ev):

   -35.6376 -35.6376 -35.6333 -35.6333 -35.6039 -35.6039 -35.5996 -35.5996
   -35.5342 -35.5342 -35.5034 -35.5034 -34.1793 -34.1792 -34.1750 -34.1750
   -34.1510 -34.1510 -34.1466 -34.1466 -34.1354 -34.1354 -34.1311 -34.1311
   -34.0727 -34.0727 -34.0555 -34.0555 -34.0322 -34.0322 -28.2872 -28.2872
   -28.2842 -28.2842 -28.2787 -28.2787 -28.2757 -28.2757 -27.0477 -27.0477
   -27.0447 -27.0447 -27.0393 -27.0393 -27.0364 -27.0363 -27.0360 -27.0360
   -27.0330 -27.0330 -10.7089 -10.7089 -10.1695 -10.1695  -9.1001  -9.1001
    -6.3673  -6.3673  -5.0307  -5.0307  -0.6548  -0.6548  -0.2815  -0.2806
     0.0750   0.0757   0.2522   0.2535   0.3665   0.3668   0.5351   0.5363
     0.7992   0.7999   1.0221   1.0227   1.2562   1.2564   1.9007   1.9010
     2.5159   2.5161   2.8683   2.8689   3.1412   3.1419   3.8235   3.8237
     4.0413   4.0414   6.1072   6.1073   6.2839   6.2839   6.9259   6.9259
     7.2052   7.2052   7.4635   7.4635   7.7774   7.7775   8.2769   8.2770
     8.4406   8.4413   8.5504   8.5519   8.6238   8.6245   9.1121   9.1121
     9.4514   9.4514   9.6089   9.6090   9.9069   9.9070   9.9946   9.9947
    10.4346  10.4346  10.7982  10.7983  11.1591  11.1594  11.2794  11.2797
    11.5405  11.5407  11.6683  11.6685  12.7109  12.7109  12.7594  12.7594
    13.5219  13.5220  13.8986  13.8987  14.0341  14.0341  14.2023  14.2023
    14.3735  14.3736  14.9207  14.9208  15.2702  15.2703  15.7047  15.7047
    15.8823  15.8823  15.9757  15.9758  16.0945  16.0945  16.2416  16.2417
    16.4005  16.4005  16.5403  16.5403  16.5747  16.5747  16.9475  16.9476
    16.9762  16.9762  17.0982  17.0982  17.2150  17.2150  17.2486  17.2486
    17.4078  17.4078  17.4772  17.4772  17.5287  17.5287  17.7445  17.7447
    17.7866  17.7867  18.0454  18.0454  18.3541  18.3542  18.4662  18.4662
    18.8593  18.8593  19.0535  19.0535  19.0863  19.0864  19.1687  19.1688

          k = 0.0286 0.0165 0.0000 ( 24710 PWs)   bands (ev):

   -35.6376 -35.6376 -35.6333 -35.6333 -35.6039 -35.6039 -35.5996 -35.5996
   -35.5342 -35.5342 -35.5034 -35.5034 -34.1792 -34.1792 -34.1750 -34.1749
   -34.1510 -34.1510 -34.1466 -34.1466 -34.1354 -34.1354 -34.1311 -34.1311
   -34.0727 -34.0727 -34.0555 -34.0555 -34.0322 -34.0322 -28.2872 -28.2872
   -28.2842 -28.2842 -28.2787 -28.2787 -28.2757 -28.2757 -27.0477 -27.0477
   -27.0447 -27.0447 -27.0393 -27.0393 -27.0364 -27.0363 -27.0360 -27.0360
   -27.0330 -27.0330 -10.7061 -10.7061 -10.1669 -10.1669  -9.0986  -9.0986
    -6.3681  -6.3681  -5.0366  -5.0366  -0.6608  -0.6607  -0.3188  -0.3177
     0.0762   0.0770   0.2116   0.2130   0.3594   0.3597   0.5508   0.5520
     0.8103   0.8112   1.0116   1.0124   1.2732   1.2735   1.9388   1.9392
     2.5064   2.5066   2.8513   2.8519   3.1722   3.1730   3.8354   3.8357
     4.0404   4.0407   6.1123   6.1124   6.2844   6.2844   6.9263   6.9264
     7.1914   7.1914   7.4626   7.4626   7.7790   7.7791   8.2919   8.2919
     8.4259   8.4266   8.5458   8.5472   8.6349   8.6356   9.1039   9.1039
     9.4877   9.4878   9.6222   9.6222   9.8937   9.8937  10.0083  10.0084
    10.4459  10.4459  10.8025  10.8026  11.1189  11.1192  11.2536  11.2538
    11.5994  11.5997  11.7057  11.7060  12.7006  12.7006  12.7673  12.7674
    13.4801  13.4802  13.8829  13.8829  14.0414  14.0415  14.2295  14.2296
    14.4003  14.4004  14.8925  14.8926  15.2406  15.2407  15.6706  15.6707
    15.8460  15.8460  16.0181  16.0182  16.1009  16.1010  16.2585  16.2586
    16.3505  16.3505  16.4416  16.4416  16.5778  16.5779  16.9032  16.9032
    16.9800  16.9801  17.1783  17.1783  17.1994  17.1994  17.2460  17.2460
    17.4651  17.4651  17.5218  17.5218  17.5629  17.5629  17.7858  17.7859
    17.8360  17.8361  18.0666  18.0666  18.2896  18.2896  18.3561  18.3561
    18.8119  18.8119  19.0381  19.0382  19.1036  19.1036  19.2261  19.2261

          k = 0.0357 0.0206 0.0000 ( 24712 PWs)   bands (ev):

   -35.6376 -35.6376 -35.6333 -35.6333 -35.6039 -35.6039 -35.5996 -35.5996
   -35.5342 -35.5342 -35.5034 -35.5034 -34.1792 -34.1792 -34.1749 -34.1749
   -34.1510 -34.1510 -34.1466 -34.1466 -34.1354 -34.1354 -34.1311 -34.1311
   -34.0727 -34.0727 -34.0555 -34.0555 -34.0322 -34.0322 -28.2872 -28.2871
   -28.2842 -28.2842 -28.2787 -28.2787 -28.2757 -28.2757 -27.0477 -27.0477
   -27.0447 -27.0447 -27.0393 -27.0392 -27.0364 -27.0363 -27.0360 -27.0360
   -27.0330 -27.0330 -10.7024 -10.7024 -10.1635 -10.1635  -9.0966  -9.0966
    -6.3691  -6.3691  -5.0442  -5.0442  -0.6684  -0.6684  -0.3626  -0.3615
     0.0739   0.0747   0.1687   0.1702   0.3526   0.3528   0.5600   0.5613
     0.8202   0.8212   1.0048   1.0057   1.2963   1.2966   1.9820   1.9825
     2.4948   2.4951   2.8389   2.8395   3.2037   3.2046   3.8498   3.8501
     4.0405   4.0407   6.1189   6.1189   6.2850   6.2850   6.9264   6.9265
     7.1745   7.1746   7.4618   7.4618   7.7820   7.7820   8.3073   8.3074
     8.4099   8.4106   8.5381   8.5394   8.6533   8.6538   9.0955   9.0955
     9.5271   9.5272   9.6382   9.6383   9.8801   9.8802  10.0259  10.0260
    10.4613  10.4614  10.8031  10.8032  11.0849  11.0852  11.2276  11.2278
    11.6587  11.6591  11.7484  11.7488  12.6887  12.6887  12.7763  12.7763
    13.4372  13.4372  13.8552  13.8552  14.0567  14.0568  14.2580  14.2581
    14.4324  14.4325  14.8400  14.8400  15.2408  15.2409  15.6305  15.6305
    15.7983  15.7983  15.9915  15.9915  16.1406  16.1407  16.2515  16.2515
    16.3339  16.3340  16.3725  16.3725  16.5952  16.5952  16.8582  16.8582
    16.9626  16.9627  17.1583  17.1584  17.2067  17.2067  17.3153  17.3153
    17.4689  17.4689  17.5822  17.5823  17.6542  17.6542  17.8343  17.8344
    17.8785  17.8786  18.0676  18.0676  18.2280  18.2281  18.2958  18.2958
    18.7563  18.7563  18.9906  18.9906  19.1056  19.1056  19.2409  19.2409

          k = 0.0429 0.0247 0.0000 ( 24712 PWs)   bands (ev):

   -35.6376 -35.6376 -35.6333 -35.6333 -35.6039 -35.6039 -35.5996 -35.5996
   -35.5342 -35.5342 -35.5034 -35.5034 -34.1792 -34.1792 -34.1749 -34.1749
   -34.1510 -34.1510 -34.1466 -34.1466 -34.1354 -34.1354 -34.1311 -34.1311
   -34.0727 -34.0727 -34.0555 -34.0555 -34.0322 -34.0322 -28.2872 -28.2871
   -28.2842 -28.2842 -28.2787 -28.2787 -28.2757 -28.2757 -27.0477 -27.0476
   -27.0447 -27.0447 -27.0393 -27.0392 -27.0364 -27.0363 -27.0360 -27.0360
   -27.0331 -27.0330 -10.6978 -10.6978 -10.1594 -10.1594  -9.0942  -9.0942
    -6.3703  -6.3703  -5.0534  -5.0534  -0.6780  -0.6779  -0.4116  -0.4103
     0.0661   0.0667   0.1266   0.1282   0.3448   0.3450   0.5621   0.5634
     0.8261   0.8271   1.0064   1.0073   1.3241   1.3245   2.0275   2.0281
     2.4826   2.4829   2.8323   2.8329   3.2345   3.2354   3.8656   3.8659
     4.0423   4.0426   6.1268   6.1269   6.2856   6.2857   6.9256   6.9257
     7.1555   7.1556   7.4612   7.4613   7.7867   7.7867   8.3179   8.3181
     8.3972   8.3978   8.5309   8.5319   8.6765   8.6769   9.0877   9.0877
     9.5650   9.5650   9.6567   9.6568   9.8693   9.8694  10.0477  10.0478
    10.4811  10.4812  10.7967  10.7969  11.0604  11.0606  11.2028  11.2030
    11.7171  11.7175  11.7953  11.7958  12.6753  12.6753  12.7864  12.7864
    13.3951  13.3951  13.8228  13.8228  14.0708  14.0709  14.2901  14.2902
    14.4641  14.4642  14.7734  14.7735  15.2645  15.2646  15.5853  15.5853
    15.7384  15.7384  15.9357  15.9357  16.1541  16.1541  16.2031  16.2031
    16.3446  16.3447  16.3774  16.3775  16.6226  16.6226  16.8199  16.8199
    16.9323  16.9324  17.1154  17.1154  17.1984  17.1985  17.4121  17.4122
    17.4663  17.4664  17.6456  17.6457  17.7500  17.7501  17.8458  17.8458
    17.9403  17.9404  18.0844  18.0844  18.1217  18.1218  18.3262  18.3263
    18.6994  18.6994  18.9434  18.9434  19.0777  19.0777  19.2058  19.2059

          k = 0.0500 0.0289 0.0000 ( 24716 PWs)   bands (ev):

   -35.6376 -35.6376 -35.6333 -35.6333 -35.6039 -35.6039 -35.5996 -35.5996
   -35.5342 -35.5342 -35.5034 -35.5034 -34.1792 -34.1792 -34.1749 -34.1749
   -34.1510 -34.1510 -34.1466 -34.1466 -34.1354 -34.1354 -34.1311 -34.1311
   -34.0727 -34.0727 -34.0555 -34.0555 -34.0322 -34.0322 -28.2872 -28.2871
   -28.2842 -28.2842 -28.2787 -28.2787 -28.2757 -28.2757 -27.0476 -27.0476
   -27.0447 -27.0447 -27.0393 -27.0392 -27.0364 -27.0363 -27.0360 -27.0360
   -27.0331 -27.0330 -10.6925 -10.6925 -10.1546 -10.1546  -9.0915  -9.0915
    -6.3718  -6.3718  -5.0643  -5.0643  -0.6896  -0.6895  -0.4645  -0.4631
     0.0476   0.0477   0.0916   0.0930   0.3351   0.3354   0.5572   0.5584
     0.8275   0.8285   1.0185   1.0193   1.3549   1.3553   2.0722   2.0729
     2.4724   2.4727   2.8320   2.8325   3.2638   3.2647   3.8816   3.8819
     4.0474   4.0477   6.1360   6.1361   6.2863   6.2864   6.9230   6.9231
     7.1357   7.1358   7.4610   7.4611   7.7932   7.7932   8.3147   8.3149
     8.3970   8.3973   8.5258   8.5267   8.7031   8.7033   9.0809   9.0809
     9.5951   9.5951   9.6781   9.6782   9.8657   9.8659  10.0739  10.0740
    10.5054  10.5054  10.7817  10.7819  11.0468  11.0470  11.1802  11.1804
    11.7733  11.7738  11.8457  11.8462  12.6604  12.6604  12.7978  12.7978
    13.3554  13.3554  13.7891  13.7892  14.0805  14.0806  14.3251  14.3252
    14.4853  14.4855  14.7121  14.7122  15.3004  15.3004  15.5323  15.5324
    15.6719  15.6719  15.8759  15.8759  16.0705  16.0705  16.2179  16.2180
    16.3593  16.3594  16.4169  16.4170  16.6521  16.6522  16.7982  16.7982
    16.8964  16.8965  17.0716  17.0716  17.1792  17.1792  17.4659  17.4659
    17.5095  17.5095  17.6760  17.6760  17.8072  17.8072  17.8811  17.8811
    17.9967  17.9967  18.0446  18.0446  18.1404  18.1405  18.3777  18.3777
    18.6433  18.6433  18.8985  18.8985  19.0376  19.0376  19.1597  19.1597

          k = 0.0571 0.0330 0.0000 ( 24715 PWs)   bands (ev):

   -35.6376 -35.6376 -35.6333 -35.6333 -35.6039 -35.6039 -35.5996 -35.5996
   -35.5342 -35.5342 -35.5034 -35.5034 -34.1792 -34.1792 -34.1749 -34.1749
   -34.1510 -34.1510 -34.1466 -34.1466 -34.1354 -34.1354 -34.1311 -34.1311
   -34.0727 -34.0727 -34.0555 -34.0555 -34.0322 -34.0322 -28.2872 -28.2871
   -28.2842 -28.2842 -28.2787 -28.2786 -28.2757 -28.2757 -27.0476 -27.0476
   -27.0447 -27.0447 -27.0393 -27.0392 -27.0364 -27.0363 -27.0360 -27.0360
   -27.0331 -27.0330 -10.6863 -10.6863 -10.1490 -10.1490  -9.0883  -9.0882
    -6.3735  -6.3735  -5.0769  -5.0768  -0.7036  -0.7034  -0.5200  -0.5184
     0.0126   0.0134   0.0691   0.0702   0.3227   0.3232   0.5457   0.5468
     0.8270   0.8278   1.0396   1.0403   1.3868   1.3873   2.1127   2.1135
     2.4679   2.4682   2.8376   2.8381   3.2913   3.2923   3.8962   3.8965
     4.0570   4.0574   6.1465   6.1467   6.2869   6.2870   6.9177   6.9178
     7.1167   7.1168   7.4613   7.4613   7.8017   7.8018   8.2967   8.2970
     8.4103   8.4105   8.5231   8.5238   8.7321   8.7323   9.0754   9.0754
     9.6108   9.6108   9.7034   9.7035   9.8740   9.8742  10.1043  10.1044
    10.5341  10.5342  10.7590  10.7592  11.0428  11.0429  11.1610  11.1612
    11.8268  11.8273  11.8986  11.8991  12.6444  12.6444  12.8105  12.8105
    13.3191  13.3192  13.7556  13.7556  14.0850  14.0851  14.3574  14.3575
    14.4800  14.4801  14.6824  14.6825  15.3368  15.3369  15.4662  15.4663
    15.6121  15.6121  15.8146  15.8146  15.9853  15.9853  16.2294  16.2295
    16.3745  16.3746  16.4585  16.4586  16.6655  16.6656  16.8016  16.8016
    16.8692  16.8692  17.0304  17.0305  17.1501  17.1502  17.4661  17.4661
    17.5840  17.5840  17.6616  17.6617  17.8396  17.8396  17.9309  17.9310
    17.9650  17.9651  18.1420  18.1421  18.2102  18.2102  18.4349  18.4349
    18.5896  18.5896  18.8577  18.8578  18.9934  18.9934  19.1114  19.1114

          k = 0.0643 0.0371 0.0000 ( 24709 PWs)   bands (ev):

   -35.6376 -35.6376 -35.6333 -35.6333 -35.6039 -35.6039 -35.5996 -35.5996
   -35.5342 -35.5342 -35.5034 -35.5034 -34.1792 -34.1792 -34.1749 -34.1749
   -34.1510 -34.1510 -34.1466 -34.1466 -34.1354 -34.1354 -34.1311 -34.1311
   -34.0727 -34.0727 -34.0555 -34.0555 -34.0322 -34.0322 -28.2872 -28.2871
   -28.2842 -28.2842 -28.2787 -28.2786 -28.2757 -28.2757 -27.0476 -27.0476
   -27.0447 -27.0446 -27.0393 -27.0392 -27.0364 -27.0363 -27.0360 -27.0360
   -27.0331 -27.0330 -10.6794 -10.6794 -10.1427 -10.1427  -9.0846  -9.0846
    -6.3755  -6.3755  -5.0910  -5.0910  -0.7209  -0.7205  -0.5766  -0.5747
    -0.0305  -0.0293   0.0520   0.0529   0.3069   0.3076   0.5289   0.5299
     0.8274   0.8281   1.0665   1.0671   1.4176   1.4181   2.1460   2.1469
     2.4730   2.4735   2.8488   2.8491   3.3170   3.3179   3.9081   3.9085
     4.0726   4.0729   6.1583   6.1584   6.2873   6.2874   6.9083   6.9084
     7.1004   7.1005   7.4620   7.4620   7.8123   7.8123   8.2722   8.2725
     8.4296   8.4298   8.5225   8.5231   8.7633   8.7634   9.0717   9.0717
     9.6107   9.6108   9.7315   9.7316   9.8962   9.8964  10.1385  10.1386
    10.5670  10.5671  10.7317  10.7319  11.0451  11.0452  11.1465  11.1466
    11.8776  11.8781  11.9526  11.9531  12.6278  12.6278  12.8246  12.8247
    13.2872  13.2873  13.7230  13.7230  14.0820  14.0821  14.3673  14.3674
    14.4622  14.4623  14.6936  14.6937  15.3445  15.3448  15.4002  15.4006
    15.5698  15.5699  15.7532  15.7532  15.9160  15.9161  16.2341  16.2342
    16.3861  16.3862  16.4887  16.4887  16.6658  16.6658  16.7878  16.7878
    16.8896  16.8897  16.9961  16.9962  17.1165  17.1166  17.4283  17.4283
    17.6242  17.6242  17.6799  17.6800  17.7837  17.7837  17.9933  17.9933
    18.0431  18.0432  18.2505  18.2505  18.2924  18.2924  18.4904  18.4904
    18.5415  18.5415  18.8239  18.8239  18.9492  18.9492  19.0646  19.0646

          k = 0.0714 0.0412 0.0000 ( 24716 PWs)   bands (ev):

   -35.6376 -35.6376 -35.6333 -35.6333 -35.6039 -35.6039 -35.5996 -35.5996
   -35.5342 -35.5342 -35.5034 -35.5034 -34.1792 -34.1792 -34.1749 -34.1749
   -34.1510 -34.1510 -34.1466 -34.1466 -34.1354 -34.1354 -34.1311 -34.1311
   -34.0727 -34.0727 -34.0555 -34.0555 -34.0322 -34.0322 -28.2872 -28.2871
   -28.2842 -28.2842 -28.2787 -28.2786 -28.2758 -28.2757 -27.0476 -27.0476
   -27.0446 -27.0446 -27.0393 -27.0392 -27.0364 -27.0363 -27.0360 -27.0360
[...]
   -35.5342 -35.5342 -35.5034 -35.5034 -34.1792 -34.1792 -34.1749 -34.1749
   -34.1510 -34.1510 -34.1466 -34.1466 -34.1354 -34.1354 -34.1311 -34.1311
   -34.0727 -34.0727 -34.0555 -34.0555 -34.0322 -34.0322 -28.2872 -28.2871
   -28.2842 -28.2842 -28.2787 -28.2786 -28.2758 -28.2757 -27.0476 -27.0476
   -27.0446 -27.0446 -27.0393 -27.0392 -27.0364 -27.0363 -27.0360 -27.0360
   -27.0331 -27.0330 -10.6762 -10.6762 -10.1397 -10.1397  -9.0825  -9.0825
    -6.3743  -6.3743  -5.0904  -5.0904  -0.7177  -0.7174  -0.5505  -0.5488
    -0.0837  -0.0821   0.0935   0.0942   0.2672   0.2677   0.4810   0.4821
     0.8230   0.8232   1.0458   1.0464   1.4294   1.4298   2.1122   2.1127
     2.5346   2.5349   2.8265   2.8269   3.3117   3.3128   3.9115   3.9120
     4.1073   4.1074   6.1635   6.1637   6.2932   6.2934   6.9170   6.9171
     7.1480   7.1481   7.4636   7.4637   7.6802   7.6802   8.3196   8.3201
     8.4381   8.4382   8.5313   8.5319   8.7105   8.7108   9.1359   9.1359
     9.5985   9.5987   9.6249   9.6251  10.0113  10.0114  10.1800  10.1800
    10.5834  10.5835  10.7188  10.7190  10.9499  10.9501  11.2901  11.2903
    11.7955  11.7957  12.0056  12.0058  12.6709  12.6709  12.8782  12.8783
    13.2612  13.2612  13.6304  13.6305  14.0944  14.0945  14.2559  14.2561
    14.5824  14.5825  14.7745  14.7745  15.1806  15.1806  15.5200  15.5200
    15.6987  15.6987  15.7828  15.7828  16.0386  16.0386  16.1193  16.1193
    16.3320  16.3320  16.3712  16.3713  16.5524  16.5524  16.6443  16.6443
    16.9503  16.9504  17.0962  17.0962  17.2511  17.2511  17.3236  17.3236
    17.4175  17.4176  17.5912  17.5913  17.8240  17.8241  17.9003  17.9003
    18.0157  18.0157  18.2012  18.2012  18.3926  18.3926  18.5463  18.5463
    18.7035  18.7035  18.9432  18.9433  19.1214  19.1214  19.2179  19.2179

          k = 0.0333 0.0593 0.0000 ( 24700 PWs)   bands (ev):

   -35.6376 -35.6376 -35.6333 -35.6333 -35.6039 -35.6039 -35.5996 -35.5996
   -35.5342 -35.5342 -35.5034 -35.5034 -34.1792 -34.1792 -34.1749 -34.1749
   -34.1510 -34.1510 -34.1466 -34.1466 -34.1354 -34.1354 -34.1311 -34.1311
   -34.0727 -34.0727 -34.0555 -34.0555 -34.0322 -34.0322 -28.2872 -28.2871
   -28.2842 -28.2842 -28.2787 -28.2786 -28.2758 -28.2757 -27.0476 -27.0476
   -27.0447 -27.0446 -27.0393 -27.0392 -27.0364 -27.0363 -27.0360 -27.0360
   -27.0331 -27.0330 -10.6847 -10.6847 -10.1474 -10.1474  -9.0870  -9.0870
    -6.3723  -6.3723  -5.0747  -5.0747  -0.6996  -0.6995  -0.4909  -0.4895
    -0.0245  -0.0228   0.1105   0.1110   0.2838   0.2843   0.5041   0.5052
     0.8358   0.8360   1.0139   1.0146   1.3968   1.3973   2.0738   2.0743
     2.5326   2.5329   2.8092   2.8096   3.2819   3.2831   3.9010   3.9016
     4.0804   4.0805   6.1493   6.1495   6.2910   6.2912   6.9223   6.9223
     7.1665   7.1665   7.4639   7.4639   7.6829   7.6830   8.3340   8.3344
     8.4416   8.4420   8.5162   8.5172   8.6852   8.6856   9.1258   9.1259
     9.5750   9.5750   9.6310   9.6311   9.9652   9.9653  10.1371  10.1372
    10.5717  10.5718  10.7142  10.7144  10.9664  10.9666  11.2974  11.2976
    11.7299  11.7301  11.9506  11.9507  12.6763  12.6763  12.8518  12.8518
    13.3085  13.3086  13.6891  13.6891  14.0839  14.0841  14.2302  14.2303
    14.5959  14.5961  14.7761  14.7762  15.2246  15.2247  15.5597  15.5598
    15.7352  15.7353  15.8272  15.8273  16.0836  16.0836  16.1433  16.1433
    16.3169  16.3169  16.3877  16.3877  16.6087  16.6087  16.6806  16.6807
    16.9167  16.9167  17.0917  17.0918  17.2291  17.2291  17.2901  17.2901
    17.4069  17.4070  17.6352  17.6352  17.7446  17.7447  17.9176  17.9176
    18.0013  18.0014  18.1171  18.1172  18.4721  18.4721  18.5470  18.5470
    18.6826  18.6827  18.8250  18.8250  19.1021  19.1021  19.2003  19.2004

          k = 0.0286 0.0508 0.0000 ( 24716 PWs)   bands (ev):

   -35.6376 -35.6376 -35.6333 -35.6333 -35.6039 -35.6039 -35.5996 -35.5996
   -35.5342 -35.5342 -35.5034 -35.5034 -34.1792 -34.1792 -34.1749 -34.1749
   -34.1510 -34.1510 -34.1466 -34.1466 -34.1354 -34.1354 -34.1311 -34.1311
   -34.0727 -34.0727 -34.0555 -34.0555 -34.0322 -34.0322 -28.2872 -28.2871
   -28.2842 -28.2842 -28.2787 -28.2786 -28.2758 -28.2757 -27.0476 -27.0476
   -27.0447 -27.0447 -27.0393 -27.0392 -27.0364 -27.0363 -27.0360 -27.0360
   -27.0331 -27.0330 -10.6921 -10.6921 -10.1541 -10.1541  -9.0910  -9.0910
    -6.3707  -6.3707  -5.0610  -5.0610  -0.6850  -0.6850  -0.4334  -0.4321
     0.0281   0.0295   0.1263   0.1267   0.3008   0.3013   0.5229   0.5239
     0.8415   0.8419   0.9939   0.9945   1.3604   1.3608   2.0338   2.0341
     2.5315   2.5318   2.8030   2.8033   3.2519   3.2531   3.8860   3.8866
     4.0618   4.0619   6.1368   6.1369   6.2890   6.2891   6.9251   6.9252
     7.1827   7.1828   7.4640   7.4640   7.6924   7.6925   8.3427   8.3430
     8.4343   8.4349   8.5175   8.5188   8.6615   8.6620   9.1193   9.1193
     9.5435   9.5436   9.6365   9.6367   9.9331   9.9332  10.0976  10.0977
    10.5407  10.5408  10.7300  10.7302  10.9936  10.9938  11.3052  11.3054
    11.6663  11.6665  11.8922  11.8923  12.6840  12.6840  12.8278  12.8279
    13.3557  13.3557  13.7548  13.7549  14.0641  14.0642  14.2026  14.2028
    14.5734  14.5735  14.8157  14.8158  15.2486  15.2486  15.5842  15.5842
    15.8000  15.8003  15.8559  15.8561  16.1172  16.1173  16.1849  16.1849
    16.2932  16.2932  16.3956  16.3957  16.6521  16.6522  16.7262  16.7262
    16.9385  16.9386  17.0906  17.0907  17.2055  17.2056  17.2507  17.2507
    17.3942  17.3942  17.6138  17.6140  17.6512  17.6513  17.8921  17.8921
    18.0271  18.0272  18.1255  18.1256  18.4099  18.4099  18.5695  18.5695
    18.7123  18.7123  18.7887  18.7887  19.0948  19.0949  19.1766  19.1766

          k = 0.0238 0.0423 0.0000 ( 24715 PWs)   bands (ev):

   -35.6376 -35.6376 -35.6333 -35.6333 -35.6039 -35.6039 -35.5996 -35.5996
   -35.5342 -35.5342 -35.5034 -35.5034 -34.1792 -34.1792 -34.1749 -34.1749
   -34.1510 -34.1510 -34.1466 -34.1466 -34.1354 -34.1354 -34.1311 -34.1311
   -34.0727 -34.0727 -34.0555 -34.0555 -34.0322 -34.0322 -28.2872 -28.2871
   -28.2842 -28.2842 -28.2787 -28.2786 -28.2757 -28.2757 -27.0477 -27.0476
   -27.0447 -27.0447 -27.0393 -27.0392 -27.0364 -27.0363 -27.0360 -27.0360
   -27.0331 -27.0330 -10.6984 -10.6984 -10.1598 -10.1598  -9.0943  -9.0943
    -6.3693  -6.3693  -5.0495  -5.0494  -0.6732  -0.6731  -0.3795  -0.3784
     0.0643   0.0654   0.1512   0.1521   0.3174   0.3179   0.5349   0.5359
     0.8363   0.8368   0.9904   0.9910   1.3237   1.3240   1.9918   1.9921
     2.5307   2.5310   2.8084   2.8088   3.2206   3.2218   3.8677   3.8683
     4.0509   4.0510   6.1259   6.1260   6.2873   6.2874   6.9263   6.9264
     7.1963   7.1963   7.4639   7.4640   7.7071   7.7072   8.3384   8.3386
     8.4294   8.4302   8.5280   8.5294   8.6413   8.6419   9.1163   9.1163
     9.5098   9.5098   9.6344   9.6345   9.9162   9.9163  10.0626  10.0627
    10.5065  10.5066  10.7486  10.7488  11.0315  11.0317  11.3137  11.3139
    11.6054  11.6056  11.8319  11.8320  12.6926  12.6926  12.8066  12.8067
    13.4038  13.4038  13.8240  13.8240  14.0379  14.0381  14.1769  14.1770
    14.5276  14.5277  14.8753  14.8754  15.2475  15.2475  15.6322  15.6322
    15.8219  15.8221  15.9159  15.9160  16.0997  16.0998  16.2247  16.2248
    16.3279  16.3279  16.3940  16.3940  16.6448  16.6448  16.8084  16.8084
    16.9936  16.9937  17.0975  17.0976  17.1854  17.1855  17.2067  17.2068
    17.3822  17.3822  17.5396  17.5398  17.5625  17.5627  17.8471  17.8471
    18.0395  18.0395  18.2313  18.2314  18.2918  18.2918  18.5317  18.5317
    18.7281  18.7281  18.8919  18.8919  19.0929  19.0929  19.1461  19.1462

          k = 0.0190 0.0339 0.0000 ( 24703 PWs)   bands (ev):

   -35.6376 -35.6376 -35.6333 -35.6333 -35.6039 -35.6039 -35.5996 -35.5996
   -35.5342 -35.5342 -35.5034 -35.5034 -34.1792 -34.1792 -34.1749 -34.1749
   -34.1510 -34.1510 -34.1466 -34.1466 -34.1354 -34.1354 -34.1311 -34.1311
   -34.0727 -34.0727 -34.0555 -34.0555 -34.0322 -34.0322 -28.2872 -28.2871
   -28.2842 -28.2842 -28.2787 -28.2787 -28.2757 -28.2757 -27.0477 -27.0477
   -27.0447 -27.0447 -27.0393 -27.0392 -27.0364 -27.0363 -27.0360 -27.0360
   -27.0331 -27.0330 -10.7035 -10.7035 -10.1645 -10.1645  -9.0971  -9.0971
    -6.3682  -6.3682  -5.0400  -5.0400  -0.6637  -0.6637  -0.3308  -0.3298
     0.0778   0.0786   0.1921   0.1934   0.3330   0.3335   0.5381   0.5391
     0.8223   0.8228   1.0007   1.0013   1.2906   1.2908   1.9493   1.9495
     2.5299   2.5303   2.8243   2.8248   3.1877   3.1888   3.8488   3.8492
     4.0455   4.0456   6.1169   6.1170   6.2858   6.2859   6.9264   6.9265
     7.2069   7.2069   7.4641   7.4641   7.7251   7.7252   8.3202   8.3202
     8.4346   8.4354   8.5392   8.5406   8.6265   8.6272   9.1165   9.1165
     9.4758   9.4758   9.6254   9.6254   9.9119   9.9119  10.0330  10.0331
    10.4762  10.4762  10.7638  10.7639  11.0781  11.0784  11.3235  11.3238
    11.5481  11.5483  11.7714  11.7715  12.7014  12.7014  12.7882  12.7882
    13.4529  13.4530  13.8915  13.8916  14.0082  14.0084  14.1554  14.1555
    14.4763  14.4765  14.9265  14.9266  15.2445  15.2446  15.6975  15.6975
    15.8229  15.8231  15.9758  15.9759  16.0451  16.0452  16.2523  16.2523
    16.3756  16.3756  16.4383  16.4383  16.6208  16.6209  16.9073  16.9073
    17.0147  17.0147  17.1010  17.1011  17.1564  17.1565  17.2152  17.2152
    17.3699  17.3700  17.4517  17.4518  17.4861  17.4862  17.7854  17.7854
    18.0455  18.0456  18.2132  18.2132  18.3509  18.3509  18.4285  18.4286
    18.8230  18.8230  18.9705  18.9706  19.0654  19.0654  19.1458  19.1458

          k = 0.0143 0.0254 0.0000 ( 24697 PWs)   bands (ev):

   -35.6376 -35.6376 -35.6333 -35.6333 -35.6039 -35.6039 -35.5996 -35.5996
   -35.5342 -35.5342 -35.5034 -35.5034 -34.1792 -34.1792 -34.1750 -34.1750
   -34.1510 -34.1510 -34.1466 -34.1466 -34.1354 -34.1354 -34.1311 -34.1311
   -34.0727 -34.0727 -34.0555 -34.0555 -34.0322 -34.0322 -28.2872 -28.2872
   -28.2842 -28.2842 -28.2787 -28.2787 -28.2757 -28.2757 -27.0477 -27.0477
   -27.0447 -27.0447 -27.0393 -27.0393 -27.0364 -27.0363 -27.0360 -27.0360
   -27.0331 -27.0330 -10.7075 -10.7075 -10.1681 -10.1681  -9.0993  -9.0993
    -6.3674  -6.3674  -5.0326  -5.0326  -0.6565  -0.6564  -0.2889  -0.2882
     0.0782   0.0790   0.2390   0.2403   0.3480   0.3485   0.5314   0.5323
     0.8063   0.8067   1.0163   1.0168   1.2647   1.2649   1.9092   1.9093
     2.5292   2.5294   2.8481   2.8487   3.1537   3.1548   3.8317   3.8321
     4.0435   4.0436   6.1098   6.1099   6.2847   6.2847   6.9260   6.9260
     7.2147   7.2147   7.4643   7.4644   7.7439   7.7440   8.2966   8.2966
     8.4446   8.4454   8.5459   8.5473   8.6192   8.6199   9.1189   9.1189
     9.4442   9.4443   9.6132   9.6132   9.9150   9.9150  10.0092  10.0093
    10.4520  10.4520  10.7748  10.7748  11.1300  11.1303  11.3343  11.3346
    11.4955  11.4957  11.7134  11.7135  12.7099  12.7100  12.7724  12.7725
    13.5020  13.5020  13.9366  13.9368  13.9939  13.9941  14.1388  14.1389
    14.4274  14.4275  14.9491  14.9492  15.2667  15.2668  15.7544  15.7545
    15.8325  15.8326  15.9703  15.9705  16.0195  16.0196  16.2708  16.2708
    16.4064  16.4064  16.5347  16.5347  16.6069  16.6069  16.9656  16.9656
    17.0175  17.0175  17.0808  17.0808  17.1205  17.1205  17.2981  17.2981
    17.3437  17.3438  17.3706  17.3707  17.4391  17.4391  17.7391  17.7391
    17.9551  17.9552  18.1923  18.1923  18.3780  18.3780  18.4726  18.4727
    18.9116  18.9117  18.9920  18.9921  19.0140  19.0141  19.1836  19.1836

          k = 0.0095 0.0169 0.0000 ( 24697 PWs)   bands (ev):

   -35.6376 -35.6376 -35.6333 -35.6333 -35.6039 -35.6039 -35.5996 -35.5996
   -35.5342 -35.5342 -35.5034 -35.5034 -34.1793 -34.1792 -34.1750 -34.1750
   -34.1510 -34.1510 -34.1466 -34.1466 -34.1354 -34.1354 -34.1311 -34.1311
   -34.0727 -34.0727 -34.0555 -34.0555 -34.0322 -34.0322 -28.2872 -28.2872
   -28.2842 -28.2842 -28.2787 -28.2787 -28.2757 -28.2757 -27.0477 -27.0477
   -27.0447 -27.0447 -27.0393 -27.0393 -27.0363 -27.0363 -27.0360 -27.0360
   -27.0331 -27.0330 -10.7104 -10.7104 -10.1707 -10.1707  -9.1008  -9.1008
    -6.3668  -6.3668  -5.0273  -5.0273  -0.6513  -0.6513  -0.2561  -0.2556
     0.0741   0.0747   0.2807   0.2818   0.3642   0.3645   0.5156   0.5164
     0.7930   0.7933   1.0299   1.0302   1.2483   1.2484   1.8755   1.8756
     2.5285   2.5287   2.8755   2.8760   3.1209   3.1218   3.8185   3.8187
     4.0431   4.0431   6.1047   6.1047   6.2838   6.2839   6.9254   6.9254
     7.2198   7.2199   7.4647   7.4648   7.7607   7.7607   8.2749   8.2749
     8.4545   8.4551   8.5468   8.5479   8.6193   8.6198   9.1224   9.1224
     9.4184   9.4184   9.6017   9.6017   9.9208   9.9208   9.9914   9.9915
    10.4348  10.4348  10.7820  10.7821  11.1826  11.1829  11.3440  11.3444
    11.4500  11.4502  11.6621  11.6622  12.7181  12.7182  12.7592  12.7592
    13.5475  13.5475  13.9182  13.9183  14.0352  14.0353  14.1267  14.1268
    14.3850  14.3850  14.9448  14.9449  15.3158  15.3159  15.7653  15.7654
    15.8719  15.8721  15.9125  15.9126  16.0370  16.0370  16.2615  16.2615
    16.4736  16.4737  16.5741  16.5742  16.6642  16.6642  16.9051  16.9051
    17.0209  17.0209  17.0926  17.0926  17.1278  17.1279  17.2513  17.2514
    17.3559  17.3560  17.3927  17.3928  17.4257  17.4258  17.7165  17.7166
    17.8389  17.8389  18.1065  18.1066  18.4453  18.4454  18.5808  18.5809
    18.8909  18.8910  18.9998  18.9999  19.0206  19.0208  19.1880  19.1880

          k = 0.0048 0.0085 0.0000 ( 24696 PWs)   bands (ev):

   -35.6376 -35.6376 -35.6333 -35.6333 -35.6039 -35.6039 -35.5996 -35.5996
   -35.5342 -35.5342 -35.5034 -35.5034 -34.1793 -34.1793 -34.1750 -34.1750
   -34.1510 -34.1510 -34.1466 -34.1466 -34.1354 -34.1354 -34.1311 -34.1311
   -34.0727 -34.0727 -34.0555 -34.0555 -34.0322 -34.0322 -28.2872 -28.2872
   -28.2842 -28.2842 -28.2787 -28.2787 -28.2757 -28.2757 -27.0477 -27.0477
   -27.0447 -27.0447 -27.0393 -27.0393 -27.0363 -27.0363 -27.0360 -27.0360
   -27.0330 -27.0330 -10.7121 -10.7121 -10.1723 -10.1723  -9.1017  -9.1017
    -6.3665  -6.3665  -5.0242  -5.0242  -0.6483  -0.6482  -0.2348  -0.2345
     0.0698   0.0701   0.3080   0.3086   0.3834   0.3835   0.4954   0.4959
     0.7846   0.7848   1.0379   1.0381   1.2407   1.2408   1.8527   1.8528
     2.5280   2.5281   2.8996   2.9000   3.0944   3.0949   3.8102   3.8103
     4.0432   4.0433   6.1016   6.1016   6.2833   6.2833   6.9249   6.9249
     7.2228   7.2228   7.4651   7.4651   7.7724   7.7724   8.2599   8.2599
     8.4616   8.4620   8.5449   8.5455   8.6224   8.6226   9.1254   9.1254
     9.4013   9.4013   9.5936   9.5936   9.9258   9.9258   9.9803   9.9803
    10.4245  10.4246  10.7862  10.7862  11.2291  11.2293  11.3455  11.3459
    11.4187  11.4189  11.6246  11.6247  12.7259  12.7259  12.7484  12.7484
    13.5825  13.5826  13.8906  13.8906  14.0788  14.0789  14.1174  14.1175
    14.3537  14.3537  14.9327  14.9328  15.3681  15.3681  15.7448  15.7449
    15.8610  15.8611  15.9344  15.9345  16.0426  16.0427  16.2425  16.2425
    16.5272  16.5273  16.6091  16.6092  16.7517  16.7517  16.8174  16.8174
    16.9966  16.9966  17.0823  17.0824  17.1680  17.1681  17.1760  17.1760
    17.3654  17.3654  17.4271  17.4271  17.4748  17.4749  17.7113  17.7115
    17.7411  17.7413  18.0147  18.0147  18.5436  18.5436  18.6666  18.6666
    18.8037  18.8037  18.9922  18.9922  19.0604  19.0605  19.1621  19.1621

          k = 0.0000 0.0000 0.0000 ( 24691 PWs)   bands (ev):

   -35.6376 -35.6376 -35.6333 -35.6333 -35.6039 -35.6039 -35.5996 -35.5996
   -35.5342 -35.5342 -35.5034 -35.5034 -34.1793 -34.1793 -34.1750 -34.1750
   -34.1510 -34.1510 -34.1466 -34.1466 -34.1354 -34.1354 -34.1311 -34.1311
   -34.0727 -34.0727 -34.0555 -34.0555 -34.0322 -34.0322 -28.2872 -28.2872
   -28.2842 -28.2842 -28.2787 -28.2787 -28.2757 -28.2757 -27.0477 -27.0477
   -27.0447 -27.0447 -27.0393 -27.0393 -27.0363 -27.0363 -27.0360 -27.0360
   -27.0330 -27.0330 -10.7126 -10.7126 -10.1728 -10.1728  -9.1020  -9.1020
    -6.3663  -6.3663  -5.0231  -5.0231  -0.6472  -0.6472  -0.2273  -0.2273
     0.0682   0.0682   0.3169   0.3169   0.3950   0.3950   0.4842   0.4842
     0.7818   0.7818   1.0404   1.0404   1.2388   1.2388   1.8446   1.8446
     2.5279   2.5279   2.9101   2.9101   3.0836   3.0836   3.8074   3.8074
     4.0434   4.0434   6.1006   6.1006   6.2832   6.2832   6.9248   6.9248
     7.2237   7.2237   7.4652   7.4652   7.7766   7.7766   8.2545   8.2545
     8.4643   8.4643   8.5440   8.5440   8.6240   8.6240   9.1265   9.1265
     9.3953   9.3953   9.5907   9.5907   9.9278   9.9278   9.9764   9.9764
    10.4212  10.4212  10.7875  10.7875  11.2518  11.2518  11.3396  11.3396
    11.4096  11.4096  11.6104  11.6104  12.7307  12.7307  12.7425  12.7425
    13.5964  13.5964  13.8788  13.8788  14.1043  14.1043  14.1060  14.1060
    14.3415  14.3415  14.9272  14.9272  15.3918  15.3918  15.7299  15.7299
    15.8504  15.8504  15.9560  15.9560  16.0423  16.0423  16.2331  16.2331
    16.5351  16.5351  16.6728  16.6728  16.7387  16.7387  16.8008  16.8008
    16.9865  16.9865  17.0701  17.0701  17.1384  17.1384  17.1898  17.1898
    17.3700  17.3700  17.4421  17.4421  17.5101  17.5101  17.6708  17.6708
    17.7383  17.7383  17.9715  17.9715  18.6197  18.6197  18.6696  18.6696
    18.7695  18.7695  18.9748  18.9748  19.0758  19.0758  19.1449  19.1449

     Writing all to output data dir tmp/Sb2Te3-uatsx-c5-soc-4.0.save/ :
     XML data file, pseudopotentials, collected wavefunctions

     init_run     :      1.31s CPU      1.30s WALL (       1 calls)
     electrons    :   6134.69s CPU   3327.07s WALL (       1 calls)

     Called by init_run:
     wfcinit      :      0.00s CPU      0.01s WALL (       1 calls)
     wfcinit:wfcr :    145.63s CPU     76.41s WALL (     211 calls)
     potinit      :      0.27s CPU      0.24s WALL (       1 calls)
     hinit0       :      0.84s CPU      0.85s WALL (       1 calls)

     Called by electrons:
     c_bands      :   6134.66s CPU   3327.04s WALL (       1 calls)
     v_of_rho     :      0.07s CPU      0.05s WALL (       1 calls)
     v_h          :      0.01s CPU      0.01s WALL (       1 calls)
     v_xc         :      0.07s CPU      0.05s WALL (       1 calls)

     Called by c_bands:
     init_us_2    :      0.39s CPU      0.30s WALL (     211 calls)
     cegterg      :   5971.44s CPU   3233.20s WALL (     718 calls)

     Called by sum_band:

     Called by *egterg:
     cdiaghg      :    885.00s CPU    560.99s WALL (   12647 calls)
     cegterg:over :    544.48s CPU    289.97s WALL (   12436 calls)
     cegterg:upda :    377.26s CPU    207.79s WALL (   12436 calls)
     cegterg:last :    603.32s CPU    336.06s WALL (    5831 calls)
     cdiaghg:chol :     58.95s CPU     34.34s WALL (   12647 calls)
     cdiaghg:inve :     11.95s CPU      8.78s WALL (   12647 calls)
     cdiaghg:para :    149.54s CPU     77.92s WALL (   25294 calls)
     h_psi        :   3581.77s CPU   1842.49s WALL (   13365 calls)
     g_psi        :     21.65s CPU     11.38s WALL (   12436 calls)

     Called by h_psi:
     h_psi:calbec :    165.75s CPU     92.41s WALL (   13365 calls)
     vloc_psi     :   3251.63s CPU   1650.80s WALL (   13365 calls)
     add_vuspsi   :    139.83s CPU     86.66s WALL (   13365 calls)

     General routines
     calbec       :    165.66s CPU     92.38s WALL (   13365 calls)
     fft          :      0.90s CPU      0.89s WALL (      17 calls)
     ffts         :      0.15s CPU      0.14s WALL (       4 calls)
     fftw         :   2517.77s CPU   1254.55s WALL ( 4819584 calls)
     interpolate  :      0.16s CPU      0.15s WALL (       4 calls)
     davcio       :      0.75s CPU      2.32s WALL (     422 calls)

     Parallel routines

     PWSCF        :      1h43m CPU  59m37.27s WALL


   This run was terminated on:   1:20:53  23Aug2025            

=------------------------------------------------------------------------------=
   JOB DONE.
=------------------------------------------------------------------------------=
