
     Program PWSCF v.7.4.1 starts on 22Aug2025 at 16:17:59 

     This program is part of the open-source Quantum ESPRESSO suite
     for quantum simulation of materials; please cite
         "P. Giannozzi et al., J. Phys.:Condens. Matter 21 395502 (2009);
         "P. Giannozzi et al., J. Phys.:Condens. Matter 29 465901 (2017);
         "P. Giannozzi et al., J. Chem. Phys. 152 154105 (2020);
          URL http://www.quantum-espresso.org", 
     in publications or presentations arising from this work. More details at
     http://www.quantum-espresso.org/quote

     Parallel version (MPI & OpenMP), running on      48 processor cores
     Number of MPI processes:                24
     Threads/MPI process:                     2

     MPI processes distributed on     2 nodes
     80074 MiB available memory on the printing compute node when the environment starts

     Waiting for input...
     Reading input from standard input

     Current dimensions of program PWSCF are:
     Max number of different atomic species (ntypx) = 10
     Max number of k-points (npk) =  40000
     Max angular momentum in pseudopotentials (lmaxx) =  4
Error reading attribute index: expected integer, found *
Error reading attribute index: expected integer, found *

     IMPORTANT: XC functional enforced from input :
     Exchange-correlation= PBE
                           (   1   4   3   4   0   0   0)
     Any further DFT definition will be discarded
     Please, verify this is what you really want


     Atomic positions and unit cell read from directory:
     tmp/Sb2Te3-uatsx-c5-soc-1.0.save/

     Message from routine setup:
     no reason to have ecutrho>4*ecutwfc

     R & G space division:  proc/nbgrp/npool/nimage =      24
     Subspace diagonalization in iterative solution of the eigenvalue problem:
     one sub-group per band group will be used
     scalapack distributed-memory algorithm (size of sub-group:  2*  2 procs)


     Parallelization info
     --------------------
     sticks:   dense  smooth     PW     G-vecs:    dense   smooth      PW
     Min         134      53     15                31668     8003    1193
     Max         135      54     16                31693     8032    1208
     Sum        3235    1285    365               760395   192371   28807

     Using Slab Decomposition



     bravais-lattice index     =            0
     lattice parameter (alat)  =       8.2271  a.u.
     unit-cell volume          =    2430.6623 (a.u.)^3
     number of atoms/cell      =            5
     number of atomic types    =            2
     number of electrons       =        78.00
     number of Kohn-Sham states=          200
     kinetic-energy cutoff     =      70.0000  Ry
     charge density cutoff     =     700.0000  Ry
     Exchange-correlation= PBE
                           (   1   4   3   4   0   0   0)
     Non magnetic calculation with spin-orbit


     celldm(1)=   8.227090  celldm(2)=   0.000000  celldm(3)=   0.000000
     celldm(4)=   0.000000  celldm(5)=   0.000000  celldm(6)=   0.000000

     crystal axes: (cart. coord. in units of alat)
               a(1) = (   1.000000   0.000000   0.000000 )  
               a(2) = (  -0.495050   0.857443   0.000000 )  
               a(3) = (   0.000000   0.000000   5.090739 )  

     reciprocal axes: (cart. coord. in units 2 pi/alat)
               b(1) = (  1.000000  0.577356 -0.000000 )  
               b(2) = (  0.000000  1.166259  0.000000 )  
               b(3) = (  0.000000 -0.000000  0.196435 )  


     PseudoPot. # 1 for Sb read from file:
     /zfs-home/202401017n1/pseudos/Sb_ONCV_PBE_FR-1.1.upf
     MD5 check sum: 7dc1726f2158e3c51e4807d42b9c5c65
     Pseudo is Norm-conserving, Zval = 15.0
     Generated using ONCVPSP code by D. R. Hamann
     Using radial grid of  602 points, 10 beta functions with: 
                l(1) =   0
                l(2) =   0
                l(3) =   1
                l(4) =   1
                l(5) =   1
                l(6) =   1
                l(7) =   2
                l(8) =   2
                l(9) =   2
               l(10) =   2

     PseudoPot. # 2 for Te read from file:
     /zfs-home/202401017n1/pseudos/Te_ONCV_PBE_FR-1.1.upf
     MD5 check sum: c6e17480449037a9a9d16e6377b5c7c4
     Pseudo is Norm-conserving, Zval = 16.0
     Generated using ONCVPSP code by D. R. Hamann
     Using radial grid of  602 points, 10 beta functions with: 
                l(1) =   0
                l(2) =   0
                l(3) =   1
                l(4) =   1
                l(5) =   1
                l(6) =   1
                l(7) =   2
                l(8) =   2
                l(9) =   2
               l(10) =   2

     atomic species   valence    mass     pseudopotential
     Sb               15.00   121.76000     Sb( 1.00)
     Te               16.00   127.60000     Te( 1.00)

     No symmetry found


                                    s                        frac. trans.

      isym =  1     identity                                     

 cryst.   s( 1) = (     1          0          0      )
                  (     0          1          0      )
                  (     0          0          1      )

 cart.    s( 1) = (  1.0000000  0.0000000  0.0000000 )
                  (  0.0000000  1.0000000  0.0000000 )
                  (  0.0000000  0.0000000  1.0000000 )


   Cartesian axes

     site n.     atom                  positions (alat units)
         1        Sb     tau(   1) = (   0.5788554   0.4207610   3.0040749  )
         2        Te     tau(   2) = (   0.5752577   0.4138624   1.6972962  )
         3        Sb     tau(   3) = (   0.0743102   0.1298379   2.0866212  )
         4        Te     tau(   4) = (   0.0782247   0.1361538   3.3933943  )
         5        Te     tau(   5) = (   0.0792404   0.7036244   2.5453648  )

     -------------------------------------------------
     Parameters for Dispersion (Grimme-D2) Correction:
     -------------------------------------------------
       atom      VdW radius       C_6     

        Sb         3.555       1333.532
        Te         3.575       1101.101

   Crystallographic axes

     site n.     atom                  positions (cryst. coord.)
         1        Sb     tau(   1) = (  0.8217842  0.4907162  0.5901058  )
         2        Te     tau(   2) = (  0.8142035  0.4826706  0.3334086  )
         3        Sb     tau(   3) = (  0.1492728  0.1514246  0.4098857  )
         4        Te     tau(   4) = (  0.1568340  0.1587906  0.6665818  )
         5        Te     tau(   5) = (  0.4854821  0.8206082  0.4999990  )

     number of k points=   211
                       cart. coord. in units 2pi/alat
        k(    1) = (   0.0000000   0.0000000   0.0000000), wk =   0.0047393
        k(    2) = (   0.0071429   0.0041240   0.0000000), wk =   0.0047393
        k(    3) = (   0.0142857   0.0082479   0.0000000), wk =   0.0047393
        k(    4) = (   0.0214286   0.0123719   0.0000000), wk =   0.0047393
        k(    5) = (   0.0285714   0.0164959   0.0000000), wk =   0.0047393
        k(    6) = (   0.0357143   0.0206199   0.0000000), wk =   0.0047393
        k(    7) = (   0.0428571   0.0247438   0.0000000), wk =   0.0047393
        k(    8) = (   0.0500000   0.0288678   0.0000000), wk =   0.0047393
        k(    9) = (   0.0571429   0.0329918   0.0000000), wk =   0.0047393
        k(   10) = (   0.0642857   0.0371157   0.0000000), wk =   0.0047393
        k(   11) = (   0.0714286   0.0412397   0.0000000), wk =   0.0047393
        k(   12) = (   0.0785714   0.0453637   0.0000000), wk =   0.0047393
        k(   13) = (   0.0857143   0.0494876   0.0000000), wk =   0.0047393
        k(   14) = (   0.0928571   0.0536116   0.0000000), wk =   0.0047393
        k(   15) = (   0.1000000   0.0577356   0.0000000), wk =   0.0047393
        k(   16) = (   0.1071429   0.0618596   0.0000000), wk =   0.0047393
        k(   17) = (   0.1142857   0.0659835   0.0000000), wk =   0.0047393
        k(   18) = (   0.1214286   0.0701075   0.0000000), wk =   0.0047393
        k(   19) = (   0.1285714   0.0742315   0.0000000), wk =   0.0047393
        k(   20) = (   0.1357143   0.0783554   0.0000000), wk =   0.0047393
        k(   21) = (   0.1428571   0.0824794   0.0000000), wk =   0.0047393
        k(   22) = (   0.1500000   0.0866034   0.0000000), wk =   0.0047393
        k(   23) = (   0.1571429   0.0907273   0.0000000), wk =   0.0047393
        k(   24) = (   0.1642857   0.0948513   0.0000000), wk =   0.0047393
        k(   25) = (   0.1714286   0.0989753   0.0000000), wk =   0.0047393
        k(   26) = (   0.1785714   0.1030993   0.0000000), wk =   0.0047393
        k(   27) = (   0.1857143   0.1072232   0.0000000), wk =   0.0047393
        k(   28) = (   0.1928571   0.1113472   0.0000000), wk =   0.0047393
        k(   29) = (   0.2000000   0.1154712   0.0000000), wk =   0.0047393
        k(   30) = (   0.2071429   0.1195951   0.0000000), wk =   0.0047393
        k(   31) = (   0.2142857   0.1237191   0.0000000), wk =   0.0047393
        k(   32) = (   0.2214286   0.1278431   0.0000000), wk =   0.0047393
        k(   33) = (   0.2285714   0.1319671   0.0000000), wk =   0.0047393
        k(   34) = (   0.2357143   0.1360910   0.0000000), wk =   0.0047393
        k(   35) = (   0.2428571   0.1402150   0.0000000), wk =   0.0047393
        k(   36) = (   0.2500000   0.1443390   0.0000000), wk =   0.0047393
        k(   37) = (   0.2571429   0.1484629   0.0000000), wk =   0.0047393
        k(   38) = (   0.2642857   0.1525869   0.0000000), wk =   0.0047393
        k(   39) = (   0.2714286   0.1567109   0.0000000), wk =   0.0047393
        k(   40) = (   0.2785714   0.1608348   0.0000000), wk =   0.0047393
        k(   41) = (   0.2857143   0.1649588   0.0000000), wk =   0.0047393
        k(   42) = (   0.2928571   0.1690828   0.0000000), wk =   0.0047393
        k(   43) = (   0.3000000   0.1732068   0.0000000), wk =   0.0047393
        k(   44) = (   0.3071429   0.1773307   0.0000000), wk =   0.0047393
        k(   45) = (   0.3142857   0.1814547   0.0000000), wk =   0.0047393
        k(   46) = (   0.3214286   0.1855787   0.0000000), wk =   0.0047393
        k(   47) = (   0.3285714   0.1897026   0.0000000), wk =   0.0047393
        k(   48) = (   0.3357143   0.1938266   0.0000000), wk =   0.0047393
        k(   49) = (   0.3428571   0.1979506   0.0000000), wk =   0.0047393
        k(   50) = (   0.3500000   0.2020745   0.0000000), wk =   0.0047393
        k(   51) = (   0.3571429   0.2061985   0.0000000), wk =   0.0047393
        k(   52) = (   0.3642857   0.2103225   0.0000000), wk =   0.0047393
        k(   53) = (   0.3714286   0.2144465   0.0000000), wk =   0.0047393
        k(   54) = (   0.3785714   0.2185704   0.0000000), wk =   0.0047393
        k(   55) = (   0.3857143   0.2226944   0.0000000), wk =   0.0047393
        k(   56) = (   0.3928571   0.2268184   0.0000000), wk =   0.0047393
        k(   57) = (   0.4000000   0.2309423   0.0000000), wk =   0.0047393
        k(   58) = (   0.4071429   0.2350663   0.0000000), wk =   0.0047393
        k(   59) = (   0.4142857   0.2391903   0.0000000), wk =   0.0047393
        k(   60) = (   0.4214286   0.2433143   0.0000000), wk =   0.0047393
        k(   61) = (   0.4285714   0.2474382   0.0000000), wk =   0.0047393
        k(   62) = (   0.4357143   0.2515622   0.0000000), wk =   0.0047393
        k(   63) = (   0.4428571   0.2556862   0.0000000), wk =   0.0047393
        k(   64) = (   0.4500000   0.2598101   0.0000000), wk =   0.0047393
        k(   65) = (   0.4571429   0.2639341   0.0000000), wk =   0.0047393
        k(   66) = (   0.4642857   0.2680581   0.0000000), wk =   0.0047393
        k(   67) = (   0.4714286   0.2721820   0.0000000), wk =   0.0047393
        k(   68) = (   0.4785714   0.2763060   0.0000000), wk =   0.0047393
        k(   69) = (   0.4857143   0.2804300   0.0000000), wk =   0.0047393
        k(   70) = (   0.4928571   0.2845540   0.0000000), wk =   0.0047393
        k(   71) = (   0.5000000   0.2886779   0.0000000), wk =   0.0047393
        k(   72) = (   0.4976190   0.2928569   0.0000000), wk =   0.0047393
        k(   73) = (   0.4952381   0.2970358   0.0000000), wk =   0.0047393
        k(   74) = (   0.4928571   0.3012148   0.0000000), wk =   0.0047393
        k(   75) = (   0.4904762   0.3053938   0.0000000), wk =   0.0047393
        k(   76) = (   0.4880952   0.3095727   0.0000000), wk =   0.0047393
        k(   77) = (   0.4857143   0.3137517   0.0000000), wk =   0.0047393
        k(   78) = (   0.4833333   0.3179306   0.0000000), wk =   0.0047393
        k(   79) = (   0.4809524   0.3221096   0.0000000), wk =   0.0047393
        k(   80) = (   0.4785714   0.3262885   0.0000000), wk =   0.0047393
        k(   81) = (   0.4761905   0.3304675   0.0000000), wk =   0.0047393
        k(   82) = (   0.4738095   0.3346464   0.0000000), wk =   0.0047393
        k(   83) = (   0.4714286   0.3388254   0.0000000), wk =   0.0047393
        k(   84) = (   0.4690476   0.3430044   0.0000000), wk =   0.0047393
        k(   85) = (   0.4666667   0.3471833   0.0000000), wk =   0.0047393
        k(   86) = (   0.4642857   0.3513623   0.0000000), wk =   0.0047393
        k(   87) = (   0.4619048   0.3555412   0.0000000), wk =   0.0047393
        k(   88) = (   0.4595238   0.3597202   0.0000000), wk =   0.0047393
        k(   89) = (   0.4571429   0.3638991   0.0000000), wk =   0.0047393
        k(   90) = (   0.4547619   0.3680781   0.0000000), wk =   0.0047393
        k(   91) = (   0.4523810   0.3722571   0.0000000), wk =   0.0047393
        k(   92) = (   0.4500000   0.3764360   0.0000000), wk =   0.0047393
        k(   93) = (   0.4476190   0.3806150   0.0000000), wk =   0.0047393
        k(   94) = (   0.4452381   0.3847939   0.0000000), wk =   0.0047393
        k(   95) = (   0.4428571   0.3889729   0.0000000), wk =   0.0047393
        k(   96) = (   0.4404762   0.3931518   0.0000000), wk =   0.0047393
        k(   97) = (   0.4380952   0.3973308   0.0000000), wk =   0.0047393
        k(   98) = (   0.4357143   0.4015098   0.0000000), wk =   0.0047393
        k(   99) = (   0.4333333   0.4056887   0.0000000), wk =   0.0047393
        k(  100) = (   0.4309524   0.4098677   0.0000000), wk =   0.0047393
        k(  101) = (   0.4285714   0.4140466   0.0000000), wk =   0.0047393
        k(  102) = (   0.4261905   0.4182256   0.0000000), wk =   0.0047393
        k(  103) = (   0.4238095   0.4224045   0.0000000), wk =   0.0047393
        k(  104) = (   0.4214286   0.4265835   0.0000000), wk =   0.0047393
        k(  105) = (   0.4190476   0.4307625   0.0000000), wk =   0.0047393
        k(  106) = (   0.4166667   0.4349414   0.0000000), wk =   0.0047393
        k(  107) = (   0.4142857   0.4391204   0.0000000), wk =   0.0047393
        k(  108) = (   0.4119048   0.4432993   0.0000000), wk =   0.0047393
        k(  109) = (   0.4095238   0.4474783   0.0000000), wk =   0.0047393
        k(  110) = (   0.4071429   0.4516572   0.0000000), wk =   0.0047393
        k(  111) = (   0.4047619   0.4558362   0.0000000), wk =   0.0047393
        k(  112) = (   0.4023810   0.4600151   0.0000000), wk =   0.0047393
        k(  113) = (   0.4000000   0.4641941   0.0000000), wk =   0.0047393
        k(  114) = (   0.3976190   0.4683731   0.0000000), wk =   0.0047393
        k(  115) = (   0.3952381   0.4725520   0.0000000), wk =   0.0047393
        k(  116) = (   0.3928571   0.4767310   0.0000000), wk =   0.0047393
        k(  117) = (   0.3904762   0.4809099   0.0000000), wk =   0.0047393
        k(  118) = (   0.3880952   0.4850889   0.0000000), wk =   0.0047393
        k(  119) = (   0.3857143   0.4892678   0.0000000), wk =   0.0047393
        k(  120) = (   0.3833333   0.4934468   0.0000000), wk =   0.0047393
        k(  121) = (   0.3809524   0.4976258   0.0000000), wk =   0.0047393
        k(  122) = (   0.3785714   0.5018047   0.0000000), wk =   0.0047393
        k(  123) = (   0.3761905   0.5059837   0.0000000), wk =   0.0047393
        k(  124) = (   0.3738095   0.5101626   0.0000000), wk =   0.0047393
        k(  125) = (   0.3714286   0.5143416   0.0000000), wk =   0.0047393
        k(  126) = (   0.3690476   0.5185205   0.0000000), wk =   0.0047393
        k(  127) = (   0.3666667   0.5226995   0.0000000), wk =   0.0047393
        k(  128) = (   0.3642857   0.5268785   0.0000000), wk =   0.0047393
        k(  129) = (   0.3619048   0.5310574   0.0000000), wk =   0.0047393
        k(  130) = (   0.3595238   0.5352364   0.0000000), wk =   0.0047393
        k(  131) = (   0.3571429   0.5394153   0.0000000), wk =   0.0047393
        k(  132) = (   0.3547619   0.5435943   0.0000000), wk =   0.0047393
        k(  133) = (   0.3523810   0.5477732   0.0000000), wk =   0.0047393
        k(  134) = (   0.3500000   0.5519522   0.0000000), wk =   0.0047393
        k(  135) = (   0.3476190   0.5561312   0.0000000), wk =   0.0047393
        k(  136) = (   0.3452381   0.5603101   0.0000000), wk =   0.0047393
        k(  137) = (   0.3428571   0.5644891   0.0000000), wk =   0.0047393
        k(  138) = (   0.3404762   0.5686680   0.0000000), wk =   0.0047393
        k(  139) = (   0.3380952   0.5728470   0.0000000), wk =   0.0047393
        k(  140) = (   0.3357143   0.5770259   0.0000000), wk =   0.0047393
        k(  141) = (   0.3333333   0.5812049   0.0000000), wk =   0.0047393
        k(  142) = (   0.3285714   0.5729020   0.0000000), wk =   0.0047393
        k(  143) = (   0.3238095   0.5645990   0.0000000), wk =   0.0047393
        k(  144) = (   0.3190476   0.5562961   0.0000000), wk =   0.0047393
        k(  145) = (   0.3142857   0.5479932   0.0000000), wk =   0.0047393
        k(  146) = (   0.3095238   0.5396903   0.0000000), wk =   0.0047393
        k(  147) = (   0.3047619   0.5313873   0.0000000), wk =   0.0047393
        k(  148) = (   0.3000000   0.5230844   0.0000000), wk =   0.0047393
        k(  149) = (   0.2952381   0.5147815   0.0000000), wk =   0.0047393
        k(  150) = (   0.2904762   0.5064785   0.0000000), wk =   0.0047393
        k(  151) = (   0.2857143   0.4981756   0.0000000), wk =   0.0047393
        k(  152) = (   0.2809524   0.4898727   0.0000000), wk =   0.0047393
        k(  153) = (   0.2761905   0.4815698   0.0000000), wk =   0.0047393
        k(  154) = (   0.2714286   0.4732668   0.0000000), wk =   0.0047393
        k(  155) = (   0.2666667   0.4649639   0.0000000), wk =   0.0047393
        k(  156) = (   0.2619048   0.4566610   0.0000000), wk =   0.0047393
        k(  157) = (   0.2571429   0.4483581   0.0000000), wk =   0.0047393
        k(  158) = (   0.2523810   0.4400551   0.0000000), wk =   0.0047393
        k(  159) = (   0.2476190   0.4317522   0.0000000), wk =   0.0047393
        k(  160) = (   0.2428571   0.4234493   0.0000000), wk =   0.0047393
        k(  161) = (   0.2380952   0.4151464   0.0000000), wk =   0.0047393
        k(  162) = (   0.2333333   0.4068434   0.0000000), wk =   0.0047393
        k(  163) = (   0.2285714   0.3985405   0.0000000), wk =   0.0047393
        k(  164) = (   0.2238095   0.3902376   0.0000000), wk =   0.0047393
        k(  165) = (   0.2190476   0.3819346   0.0000000), wk =   0.0047393
        k(  166) = (   0.2142857   0.3736317   0.0000000), wk =   0.0047393
        k(  167) = (   0.2095238   0.3653288   0.0000000), wk =   0.0047393
        k(  168) = (   0.2047619   0.3570259   0.0000000), wk =   0.0047393
        k(  169) = (   0.2000000   0.3487229   0.0000000), wk =   0.0047393
        k(  170) = (   0.1952381   0.3404200   0.0000000), wk =   0.0047393
        k(  171) = (   0.1904762   0.3321171   0.0000000), wk =   0.0047393
        k(  172) = (   0.1857143   0.3238142   0.0000000), wk =   0.0047393
        k(  173) = (   0.1809524   0.3155112   0.0000000), wk =   0.0047393
        k(  174) = (   0.1761905   0.3072083   0.0000000), wk =   0.0047393
        k(  175) = (   0.1714286   0.2989054   0.0000000), wk =   0.0047393
        k(  176) = (   0.1666667   0.2906024   0.0000000), wk =   0.0047393
        k(  177) = (   0.1619048   0.2822995   0.0000000), wk =   0.0047393
        k(  178) = (   0.1571429   0.2739966   0.0000000), wk =   0.0047393
        k(  179) = (   0.1523810   0.2656937   0.0000000), wk =   0.0047393
        k(  180) = (   0.1476190   0.2573907   0.0000000), wk =   0.0047393
        k(  181) = (   0.1428571   0.2490878   0.0000000), wk =   0.0047393
        k(  182) = (   0.1380952   0.2407849   0.0000000), wk =   0.0047393
        k(  183) = (   0.1333333   0.2324820   0.0000000), wk =   0.0047393
        k(  184) = (   0.1285714   0.2241790   0.0000000), wk =   0.0047393
        k(  185) = (   0.1238095   0.2158761   0.0000000), wk =   0.0047393
        k(  186) = (   0.1190476   0.2075732   0.0000000), wk =   0.0047393
        k(  187) = (   0.1142857   0.1992702   0.0000000), wk =   0.0047393
        k(  188) = (   0.1095238   0.1909673   0.0000000), wk =   0.0047393
        k(  189) = (   0.1047619   0.1826644   0.0000000), wk =   0.0047393
        k(  190) = (   0.1000000   0.1743615   0.0000000), wk =   0.0047393
        k(  191) = (   0.0952381   0.1660585   0.0000000), wk =   0.0047393
        k(  192) = (   0.0904762   0.1577556   0.0000000), wk =   0.0047393
        k(  193) = (   0.0857143   0.1494527   0.0000000), wk =   0.0047393
        k(  194) = (   0.0809524   0.1411498   0.0000000), wk =   0.0047393
        k(  195) = (   0.0761905   0.1328468   0.0000000), wk =   0.0047393
        k(  196) = (   0.0714286   0.1245439   0.0000000), wk =   0.0047393
        k(  197) = (   0.0666667   0.1162410   0.0000000), wk =   0.0047393
        k(  198) = (   0.0619048   0.1079381   0.0000000), wk =   0.0047393
        k(  199) = (   0.0571429   0.0996351   0.0000000), wk =   0.0047393
        k(  200) = (   0.0523810   0.0913322   0.0000000), wk =   0.0047393
        k(  201) = (   0.0476190   0.0830293   0.0000000), wk =   0.0047393
        k(  202) = (   0.0428571   0.0747263   0.0000000), wk =   0.0047393
        k(  203) = (   0.0380952   0.0664234   0.0000000), wk =   0.0047393
        k(  204) = (   0.0333333   0.0581205   0.0000000), wk =   0.0047393
        k(  205) = (   0.0285714   0.0498176   0.0000000), wk =   0.0047393
        k(  206) = (   0.0238095   0.0415146   0.0000000), wk =   0.0047393
        k(  207) = (   0.0190476   0.0332117   0.0000000), wk =   0.0047393
        k(  208) = (   0.0142857   0.0249088   0.0000000), wk =   0.0047393
        k(  209) = (   0.0095238   0.0166059   0.0000000), wk =   0.0047393
        k(  210) = (   0.0047619   0.0083029   0.0000000), wk =   0.0047393
        k(  211) = (   0.0000000   0.0000000   0.0000000), wk =   0.0047393

                       cryst. coord.
        k(    1) = (   0.0000000   0.0000000   0.0000000), wk =   0.0047393
        k(    2) = (   0.0071429   0.0000000   0.0000000), wk =   0.0047393
        k(    3) = (   0.0142857   0.0000000   0.0000000), wk =   0.0047393
        k(    4) = (   0.0214286   0.0000000   0.0000000), wk =   0.0047393
        k(    5) = (   0.0285714   0.0000000   0.0000000), wk =   0.0047393
        k(    6) = (   0.0357143  -0.0000000   0.0000000), wk =   0.0047393
        k(    7) = (   0.0428571   0.0000000   0.0000000), wk =   0.0047393
        k(    8) = (   0.0500000   0.0000000   0.0000000), wk =   0.0047393
        k(    9) = (   0.0571429   0.0000000   0.0000000), wk =   0.0047393
        k(   10) = (   0.0642857   0.0000000   0.0000000), wk =   0.0047393
        k(   11) = (   0.0714286  -0.0000000   0.0000000), wk =   0.0047393
        k(   12) = (   0.0785714  -0.0000000   0.0000000), wk =   0.0047393
        k(   13) = (   0.0857143   0.0000000   0.0000000), wk =   0.0047393
        k(   14) = (   0.0928571   0.0000000   0.0000000), wk =   0.0047393
        k(   15) = (   0.1000000   0.0000000   0.0000000), wk =   0.0047393
        k(   16) = (   0.1071429  -0.0000000   0.0000000), wk =   0.0047393
        k(   17) = (   0.1142857   0.0000000   0.0000000), wk =   0.0047393
        k(   18) = (   0.1214286   0.0000000   0.0000000), wk =   0.0047393
        k(   19) = (   0.1285714   0.0000000   0.0000000), wk =   0.0047393
        k(   20) = (   0.1357143   0.0000000   0.0000000), wk =   0.0047393
        k(   21) = (   0.1428571  -0.0000000   0.0000000), wk =   0.0047393
        k(   22) = (   0.1500000  -0.0000000   0.0000000), wk =   0.0047393
        k(   23) = (   0.1571429  -0.0000000   0.0000000), wk =   0.0047393
        k(   24) = (   0.1642857   0.0000000   0.0000000), wk =   0.0047393
        k(   25) = (   0.1714286   0.0000000   0.0000000), wk =   0.0047393
        k(   26) = (   0.1785714   0.0000000   0.0000000), wk =   0.0047393
        k(   27) = (   0.1857143   0.0000000   0.0000000), wk =   0.0047393
        k(   28) = (   0.1928571   0.0000000   0.0000000), wk =   0.0047393
        k(   29) = (   0.2000000   0.0000000   0.0000000), wk =   0.0047393
        k(   30) = (   0.2071429   0.0000000   0.0000000), wk =   0.0047393
        k(   31) = (   0.2142857  -0.0000000   0.0000000), wk =   0.0047393
        k(   32) = (   0.2214286   0.0000000   0.0000000), wk =   0.0047393
        k(   33) = (   0.2285714   0.0000000   0.0000000), wk =   0.0047393
        k(   34) = (   0.2357143   0.0000000   0.0000000), wk =   0.0047393
        k(   35) = (   0.2428571   0.0000000   0.0000000), wk =   0.0047393
        k(   36) = (   0.2500000   0.0000000   0.0000000), wk =   0.0047393
        k(   37) = (   0.2571429   0.0000000   0.0000000), wk =   0.0047393
        k(   38) = (   0.2642857  -0.0000000   0.0000000), wk =   0.0047393
        k(   39) = (   0.2714286   0.0000000   0.0000000), wk =   0.0047393
        k(   40) = (   0.2785714  -0.0000000   0.0000000), wk =   0.0047393
        k(   41) = (   0.2857143  -0.0000000   0.0000000), wk =   0.0047393
        k(   42) = (   0.2928571   0.0000000   0.0000000), wk =   0.0047393
        k(   43) = (   0.3000000  -0.0000000   0.0000000), wk =   0.0047393
        k(   44) = (   0.3071429   0.0000000   0.0000000), wk =   0.0047393
        k(   45) = (   0.3142857  -0.0000000   0.0000000), wk =   0.0047393
        k(   46) = (   0.3214286   0.0000000   0.0000000), wk =   0.0047393
        k(   47) = (   0.3285714   0.0000000   0.0000000), wk =   0.0047393
        k(   48) = (   0.3357143   0.0000000   0.0000000), wk =   0.0047393
        k(   49) = (   0.3428571   0.0000000   0.0000000), wk =   0.0047393
        k(   50) = (   0.3500000  -0.0000000   0.0000000), wk =   0.0047393
        k(   51) = (   0.3571429   0.0000000   0.0000000), wk =   0.0047393
        k(   52) = (   0.3642857   0.0000000   0.0000000), wk =   0.0047393
        k(   53) = (   0.3714286   0.0000000   0.0000000), wk =   0.0047393
        k(   54) = (   0.3785714   0.0000000   0.0000000), wk =   0.0047393
        k(   55) = (   0.3857143   0.0000000   0.0000000), wk =   0.0047393
        k(   56) = (   0.3928571   0.0000000   0.0000000), wk =   0.0047393
        k(   57) = (   0.4000000   0.0000000   0.0000000), wk =   0.0047393
        k(   58) = (   0.4071429   0.0000000   0.0000000), wk =   0.0047393
        k(   59) = (   0.4142857   0.0000000   0.0000000), wk =   0.0047393
        k(   60) = (   0.4214286  -0.0000000   0.0000000), wk =   0.0047393
        k(   61) = (   0.4285714  -0.0000000   0.0000000), wk =   0.0047393
        k(   62) = (   0.4357143   0.0000000   0.0000000), wk =   0.0047393
        k(   63) = (   0.4428571   0.0000000   0.0000000), wk =   0.0047393
        k(   64) = (   0.4500000  -0.0000000   0.0000000), wk =   0.0047393
        k(   65) = (   0.4571429   0.0000000   0.0000000), wk =   0.0047393
        k(   66) = (   0.4642857  -0.0000000   0.0000000), wk =   0.0047393
        k(   67) = (   0.4714286   0.0000000   0.0000000), wk =   0.0047393
        k(   68) = (   0.4785714   0.0000000   0.0000000), wk =   0.0047393
        k(   69) = (   0.4857143   0.0000000   0.0000000), wk =   0.0047393
        k(   70) = (   0.4928571   0.0000000   0.0000000), wk =   0.0047393
        k(   71) = (   0.5000000   0.0000000   0.0000000), wk =   0.0047393
        k(   72) = (   0.4976190   0.0047619   0.0000000), wk =   0.0047393
        k(   73) = (   0.4952381   0.0095238   0.0000000), wk =   0.0047393
        k(   74) = (   0.4928571   0.0142857   0.0000000), wk =   0.0047393
        k(   75) = (   0.4904762   0.0190476   0.0000000), wk =   0.0047393
        k(   76) = (   0.4880952   0.0238095   0.0000000), wk =   0.0047393
        k(   77) = (   0.4857143   0.0285714   0.0000000), wk =   0.0047393
        k(   78) = (   0.4833333   0.0333333   0.0000000), wk =   0.0047393
        k(   79) = (   0.4809524   0.0380952   0.0000000), wk =   0.0047393
        k(   80) = (   0.4785714   0.0428571   0.0000000), wk =   0.0047393
        k(   81) = (   0.4761905   0.0476190   0.0000000), wk =   0.0047393
        k(   82) = (   0.4738095   0.0523810   0.0000000), wk =   0.0047393
        k(   83) = (   0.4714286   0.0571429   0.0000000), wk =   0.0047393
        k(   84) = (   0.4690476   0.0619048   0.0000000), wk =   0.0047393
        k(   85) = (   0.4666667   0.0666667   0.0000000), wk =   0.0047393
        k(   86) = (   0.4642857   0.0714286   0.0000000), wk =   0.0047393
        k(   87) = (   0.4619048   0.0761905   0.0000000), wk =   0.0047393
        k(   88) = (   0.4595238   0.0809524   0.0000000), wk =   0.0047393
        k(   89) = (   0.4571429   0.0857143   0.0000000), wk =   0.0047393
        k(   90) = (   0.4547619   0.0904762   0.0000000), wk =   0.0047393
        k(   91) = (   0.4523810   0.0952381   0.0000000), wk =   0.0047393
        k(   92) = (   0.4500000   0.1000000   0.0000000), wk =   0.0047393
        k(   93) = (   0.4476190   0.1047619   0.0000000), wk =   0.0047393
        k(   94) = (   0.4452381   0.1095238   0.0000000), wk =   0.0047393
        k(   95) = (   0.4428571   0.1142857   0.0000000), wk =   0.0047393
        k(   96) = (   0.4404762   0.1190476   0.0000000), wk =   0.0047393
        k(   97) = (   0.4380952   0.1238095   0.0000000), wk =   0.0047393
        k(   98) = (   0.4357143   0.1285714   0.0000000), wk =   0.0047393
        k(   99) = (   0.4333333   0.1333333   0.0000000), wk =   0.0047393
        k(  100) = (   0.4309524   0.1380952   0.0000000), wk =   0.0047393
        k(  101) = (   0.4285714   0.1428571   0.0000000), wk =   0.0047393
        k(  102) = (   0.4261905   0.1476190   0.0000000), wk =   0.0047393
        k(  103) = (   0.4238095   0.1523810   0.0000000), wk =   0.0047393
        k(  104) = (   0.4214286   0.1571429   0.0000000), wk =   0.0047393
        k(  105) = (   0.4190476   0.1619048   0.0000000), wk =   0.0047393
        k(  106) = (   0.4166667   0.1666667   0.0000000), wk =   0.0047393
        k(  107) = (   0.4142857   0.1714286   0.0000000), wk =   0.0047393
        k(  108) = (   0.4119048   0.1761905   0.0000000), wk =   0.0047393
        k(  109) = (   0.4095238   0.1809524   0.0000000), wk =   0.0047393
        k(  110) = (   0.4071429   0.1857143   0.0000000), wk =   0.0047393
        k(  111) = (   0.4047619   0.1904762   0.0000000), wk =   0.0047393
        k(  112) = (   0.4023810   0.1952381   0.0000000), wk =   0.0047393
        k(  113) = (   0.4000000   0.2000000   0.0000000), wk =   0.0047393
        k(  114) = (   0.3976190   0.2047619   0.0000000), wk =   0.0047393
        k(  115) = (   0.3952381   0.2095238   0.0000000), wk =   0.0047393
        k(  116) = (   0.3928571   0.2142857   0.0000000), wk =   0.0047393
        k(  117) = (   0.3904762   0.2190476   0.0000000), wk =   0.0047393
        k(  118) = (   0.3880952   0.2238095   0.0000000), wk =   0.0047393
        k(  119) = (   0.3857143   0.2285714   0.0000000), wk =   0.0047393
        k(  120) = (   0.3833333   0.2333333   0.0000000), wk =   0.0047393
        k(  121) = (   0.3809524   0.2380952   0.0000000), wk =   0.0047393
        k(  122) = (   0.3785714   0.2428571   0.0000000), wk =   0.0047393
        k(  123) = (   0.3761905   0.2476190   0.0000000), wk =   0.0047393
        k(  124) = (   0.3738095   0.2523810   0.0000000), wk =   0.0047393
        k(  125) = (   0.3714286   0.2571429   0.0000000), wk =   0.0047393
        k(  126) = (   0.3690476   0.2619048   0.0000000), wk =   0.0047393
        k(  127) = (   0.3666667   0.2666667   0.0000000), wk =   0.0047393
        k(  128) = (   0.3642857   0.2714286   0.0000000), wk =   0.0047393
        k(  129) = (   0.3619048   0.2761905   0.0000000), wk =   0.0047393
        k(  130) = (   0.3595238   0.2809524   0.0000000), wk =   0.0047393
        k(  131) = (   0.3571429   0.2857143   0.0000000), wk =   0.0047393
        k(  132) = (   0.3547619   0.2904762   0.0000000), wk =   0.0047393
        k(  133) = (   0.3523810   0.2952381   0.0000000), wk =   0.0047393
        k(  134) = (   0.3500000   0.3000000   0.0000000), wk =   0.0047393
        k(  135) = (   0.3476190   0.3047619   0.0000000), wk =   0.0047393
        k(  136) = (   0.3452381   0.3095238   0.0000000), wk =   0.0047393
        k(  137) = (   0.3428571   0.3142857   0.0000000), wk =   0.0047393
        k(  138) = (   0.3404762   0.3190476   0.0000000), wk =   0.0047393
        k(  139) = (   0.3380952   0.3238095   0.0000000), wk =   0.0047393
        k(  140) = (   0.3357143   0.3285714   0.0000000), wk =   0.0047393
        k(  141) = (   0.3333333   0.3333333   0.0000000), wk =   0.0047393
        k(  142) = (   0.3285714   0.3285714   0.0000000), wk =   0.0047393
        k(  143) = (   0.3238095   0.3238095   0.0000000), wk =   0.0047393
        k(  144) = (   0.3190476   0.3190476   0.0000000), wk =   0.0047393
        k(  145) = (   0.3142857   0.3142857   0.0000000), wk =   0.0047393
        k(  146) = (   0.3095238   0.3095238   0.0000000), wk =   0.0047393
        k(  147) = (   0.3047619   0.3047619   0.0000000), wk =   0.0047393
        k(  148) = (   0.3000000   0.3000000   0.0000000), wk =   0.0047393
        k(  149) = (   0.2952381   0.2952381   0.0000000), wk =   0.0047393
        k(  150) = (   0.2904762   0.2904762   0.0000000), wk =   0.0047393
        k(  151) = (   0.2857143   0.2857143   0.0000000), wk =   0.0047393
        k(  152) = (   0.2809524   0.2809524   0.0000000), wk =   0.0047393
        k(  153) = (   0.2761905   0.2761905   0.0000000), wk =   0.0047393
        k(  154) = (   0.2714286   0.2714286   0.0000000), wk =   0.0047393
        k(  155) = (   0.2666667   0.2666667   0.0000000), wk =   0.0047393
        k(  156) = (   0.2619048   0.2619048   0.0000000), wk =   0.0047393
        k(  157) = (   0.2571429   0.2571429   0.0000000), wk =   0.0047393
        k(  158) = (   0.2523810   0.2523810   0.0000000), wk =   0.0047393
        k(  159) = (   0.2476190   0.2476190   0.0000000), wk =   0.0047393
        k(  160) = (   0.2428571   0.2428571   0.0000000), wk =   0.0047393
        k(  161) = (   0.2380952   0.2380952   0.0000000), wk =   0.0047393
        k(  162) = (   0.2333333   0.2333333   0.0000000), wk =   0.0047393
        k(  163) = (   0.2285714   0.2285714   0.0000000), wk =   0.0047393
        k(  164) = (   0.2238095   0.2238095   0.0000000), wk =   0.0047393
        k(  165) = (   0.2190476   0.2190476   0.0000000), wk =   0.0047393
        k(  166) = (   0.2142857   0.2142857   0.0000000), wk =   0.0047393
        k(  167) = (   0.2095238   0.2095238   0.0000000), wk =   0.0047393
        k(  168) = (   0.2047619   0.2047619   0.0000000), wk =   0.0047393
        k(  169) = (   0.2000000   0.2000000   0.0000000), wk =   0.0047393
        k(  170) = (   0.1952381   0.1952381   0.0000000), wk =   0.0047393
        k(  171) = (   0.1904762   0.1904762   0.0000000), wk =   0.0047393
        k(  172) = (   0.1857143   0.1857143   0.0000000), wk =   0.0047393
        k(  173) = (   0.1809524   0.1809524   0.0000000), wk =   0.0047393
        k(  174) = (   0.1761905   0.1761905   0.0000000), wk =   0.0047393
        k(  175) = (   0.1714286   0.1714286   0.0000000), wk =   0.0047393
        k(  176) = (   0.1666667   0.1666667   0.0000000), wk =   0.0047393
        k(  177) = (   0.1619048   0.1619048   0.0000000), wk =   0.0047393
        k(  178) = (   0.1571429   0.1571429   0.0000000), wk =   0.0047393
        k(  179) = (   0.1523810   0.1523810   0.0000000), wk =   0.0047393
        k(  180) = (   0.1476190   0.1476190   0.0000000), wk =   0.0047393
        k(  181) = (   0.1428571   0.1428571   0.0000000), wk =   0.0047393
        k(  182) = (   0.1380952   0.1380952   0.0000000), wk =   0.0047393
        k(  183) = (   0.1333333   0.1333333   0.0000000), wk =   0.0047393
        k(  184) = (   0.1285714   0.1285714   0.0000000), wk =   0.0047393
        k(  185) = (   0.1238095   0.1238095   0.0000000), wk =   0.0047393
        k(  186) = (   0.1190476   0.1190476   0.0000000), wk =   0.0047393
        k(  187) = (   0.1142857   0.1142857   0.0000000), wk =   0.0047393
        k(  188) = (   0.1095238   0.1095238   0.0000000), wk =   0.0047393
        k(  189) = (   0.1047619   0.1047619   0.0000000), wk =   0.0047393
        k(  190) = (   0.1000000   0.1000000   0.0000000), wk =   0.0047393
        k(  191) = (   0.0952381   0.0952381   0.0000000), wk =   0.0047393
        k(  192) = (   0.0904762   0.0904762   0.0000000), wk =   0.0047393
        k(  193) = (   0.0857143   0.0857143   0.0000000), wk =   0.0047393
        k(  194) = (   0.0809524   0.0809524   0.0000000), wk =   0.0047393
        k(  195) = (   0.0761905   0.0761905   0.0000000), wk =   0.0047393
        k(  196) = (   0.0714286   0.0714286   0.0000000), wk =   0.0047393
        k(  197) = (   0.0666667   0.0666667   0.0000000), wk =   0.0047393
        k(  198) = (   0.0619048   0.0619048   0.0000000), wk =   0.0047393
        k(  199) = (   0.0571429   0.0571429   0.0000000), wk =   0.0047393
        k(  200) = (   0.0523810   0.0523810   0.0000000), wk =   0.0047393
        k(  201) = (   0.0476190   0.0476190   0.0000000), wk =   0.0047393
        k(  202) = (   0.0428571   0.0428571   0.0000000), wk =   0.0047393
        k(  203) = (   0.0380952   0.0380952   0.0000000), wk =   0.0047393
        k(  204) = (   0.0333333   0.0333333   0.0000000), wk =   0.0047393
        k(  205) = (   0.0285714   0.0285714   0.0000000), wk =   0.0047393
        k(  206) = (   0.0238095   0.0238095   0.0000000), wk =   0.0047393
        k(  207) = (   0.0190476   0.0190476   0.0000000), wk =   0.0047393
        k(  208) = (   0.0142857   0.0142857   0.0000000), wk =   0.0047393
        k(  209) = (   0.0095238   0.0095238   0.0000000), wk =   0.0047393
        k(  210) = (   0.0047619   0.0047619   0.0000000), wk =   0.0047393
        k(  211) = (   0.0000000   0.0000000   0.0000000), wk =   0.0047393

     Dense  grid:   760395 G-vectors     FFT dimensions: (  72,  72, 360)

     Smooth grid:   192371 G-vectors     FFT dimensions: (  45,  45, 225)

     Dynamical RAM for                 wfc:       6.11 MB

     Dynamical RAM for     wfc (w. buffer):       6.11 MB

     Dynamical RAM for           str. fact:       0.97 MB

     Dynamical RAM for           local pot:       0.00 MB

     Dynamical RAM for          nlocal pot:       2.60 MB

     Dynamical RAM for                qrad:      11.12 MB

     Dynamical RAM for          rho,v,vnew:      12.92 MB

     Dynamical RAM for           G-vectors:       1.87 MB

     Dynamical RAM for          h,s,v(r/c):       1.83 MB

     Dynamical RAM for          <psi|beta>:       1.04 MB

     Dynamical RAM for                 psi:      12.22 MB

     Dynamical RAM for                hpsi:      12.22 MB

     Dynamical RAM for      wfcinit/wfcrot:      10.08 MB

     Estimated static dynamical RAM per process >      41.78 MB

     Estimated max dynamical RAM per process >      69.08 MB

     Estimated total dynamical RAM >       1.62 GB

     The potential is recalculated from file :
     tmp/Sb2Te3-uatsx-c5-soc-1.0.save/charge-density

     Starting wfcs are random

     Band Structure Calculation
     Davidson diagonalization with overlap

     Computing kpt #:     1  of   211
     total cpu time spent up to now is       19.3 secs

     Computing kpt #:     2  of   211
     total cpu time spent up to now is       34.8 secs

     Computing kpt #:     3  of   211
     total cpu time spent up to now is       50.1 secs

     Computing kpt #:     4  of   211
     total cpu time spent up to now is       65.1 secs

     Computing kpt #:     5  of   211
     total cpu time spent up to now is       79.9 secs

     Computing kpt #:     6  of   211
     total cpu time spent up to now is       94.2 secs

     Computing kpt #:     7  of   211
     total cpu time spent up to now is      108.8 secs

     Computing kpt #:     8  of   211
     total cpu time spent up to now is      123.0 secs

     Computing kpt #:     9  of   211
     total cpu time spent up to now is      137.0 secs

     Computing kpt #:    10  of   211
     total cpu time spent up to now is      150.1 secs

     Computing kpt #:    11  of   211
     total cpu time spent up to now is      163.2 secs

     Computing kpt #:    12  of   211
     total cpu time spent up to now is      176.3 secs

     Computing kpt #:    13  of   211
     total cpu time spent up to now is      190.4 secs

     Computing kpt #:    14  of   211
     total cpu time spent up to now is      203.9 secs

     Computing kpt #:    15  of   211
     total cpu time spent up to now is      218.2 secs

     Computing kpt #:    16  of   211
     total cpu time spent up to now is      232.5 secs

     Computing kpt #:    17  of   211
     total cpu time spent up to now is      246.8 secs

     Computing kpt #:    18  of   211
     total cpu time spent up to now is      261.3 secs

     Computing kpt #:    19  of   211
     total cpu time spent up to now is      276.1 secs

     Computing kpt #:    20  of   211
     total cpu time spent up to now is      290.4 secs

     Computing kpt #:    21  of   211
     total cpu time spent up to now is      304.8 secs

     Computing kpt #:    22  of   211
     total cpu time spent up to now is      319.2 secs

     Computing kpt #:    23  of   211
     total cpu time spent up to now is      335.0 secs

     Computing kpt #:    24  of   211
     total cpu time spent up to now is      349.3 secs

     Computing kpt #:    25  of   211
     total cpu time spent up to now is      363.8 secs

     Computing kpt #:    26  of   211
     total cpu time spent up to now is      379.6 secs

     Computing kpt #:    27  of   211
     total cpu time spent up to now is      394.6 secs

     Computing kpt #:    28  of   211
     total cpu time spent up to now is      409.4 secs

     Computing kpt #:    29  of   211
     total cpu time spent up to now is      424.4 secs

     Computing kpt #:    30  of   211
     total cpu time spent up to now is      440.6 secs

     Computing kpt #:    31  of   211
     total cpu time spent up to now is      457.0 secs

     Computing kpt #:    32  of   211
     total cpu time spent up to now is      472.9 secs

     Computing kpt #:    33  of   211
     total cpu time spent up to now is      488.5 secs

     Computing kpt #:    34  of   211
     total cpu time spent up to now is      503.1 secs

     Computing kpt #:    35  of   211
     total cpu time spent up to now is      517.5 secs

     Computing kpt #:    36  of   211
     total cpu time spent up to now is      532.2 secs

     Computing kpt #:    37  of   211
     total cpu time spent up to now is      547.9 secs

     Computing kpt #:    38  of   211
     total cpu time spent up to now is      562.4 secs

     Computing kpt #:    39  of   211
     total cpu time spent up to now is      577.1 secs

     Computing kpt #:    40  of   211
     total cpu time spent up to now is      591.7 secs

     Computing kpt #:    41  of   211
     total cpu time spent up to now is      606.2 secs

     Computing kpt #:    42  of   211
     total cpu time spent up to now is      620.8 secs

     Computing kpt #:    43  of   211
     total cpu time spent up to now is      636.4 secs

     Computing kpt #:    44  of   211
     total cpu time spent up to now is      650.8 secs

     Computing kpt #:    45  of   211
     total cpu time spent up to now is      665.1 secs

     Computing kpt #:    46  of   211
     total cpu time spent up to now is      679.3 secs

     Computing kpt #:    47  of   211
     total cpu time spent up to now is      692.7 secs

     Computing kpt #:    48  of   211
     total cpu time spent up to now is      706.0 secs

     Computing kpt #:    49  of   211
     total cpu time spent up to now is      719.5 secs

     Computing kpt #:    50  of   211
     total cpu time spent up to now is      732.8 secs

     Computing kpt #:    51  of   211
     total cpu time spent up to now is      746.1 secs

     Computing kpt #:    52  of   211
     total cpu time spent up to now is      759.4 secs

     Computing kpt #:    53  of   211
     total cpu time spent up to now is      772.7 secs

     Computing kpt #:    54  of   211
     total cpu time spent up to now is      786.9 secs

     Computing kpt #:    55  of   211
     total cpu time spent up to now is      801.0 secs

     Computing kpt #:    56  of   211
     total cpu time spent up to now is      815.4 secs

     Computing kpt #:    57  of   211
     total cpu time spent up to now is      828.8 secs

     Computing kpt #:    58  of   211
     total cpu time spent up to now is      843.1 secs

     Computing kpt #:    59  of   211
     total cpu time spent up to now is      857.3 secs

     Computing kpt #:    60  of   211
     total cpu time spent up to now is      870.7 secs

     Computing kpt #:    61  of   211
     total cpu time spent up to now is      884.2 secs

     Computing kpt #:    62  of   211
     total cpu time spent up to now is      898.4 secs

     Computing kpt #:    63  of   211
     total cpu time spent up to now is      912.7 secs

     Computing kpt #:    64  of   211
     total cpu time spent up to now is      927.2 secs

     Computing kpt #:    65  of   211
     total cpu time spent up to now is      941.9 secs

     Computing kpt #:    66  of   211
     total cpu time spent up to now is      957.1 secs

     Computing kpt #:    67  of   211
     total cpu time spent up to now is      971.9 secs

     Computing kpt #:    68  of   211
     total cpu time spent up to now is      986.6 secs

     Computing kpt #:    69  of   211
     total cpu time spent up to now is     1001.3 secs

     Computing kpt #:    70  of   211
     total cpu time spent up to now is     1016.2 secs

     Computing kpt #:    71  of   211
     total cpu time spent up to now is     1031.9 secs

     Computing kpt #:    72  of   211
     total cpu time spent up to now is     1047.8 secs

     Computing kpt #:    73  of   211
     total cpu time spent up to now is     1063.6 secs

     Computing kpt #:    74  of   211
     total cpu time spent up to now is     1079.6 secs

     Computing kpt #:    75  of   211
     total cpu time spent up to now is     1095.8 secs

     Computing kpt #:    76  of   211
     total cpu time spent up to now is     1111.6 secs

     Computing kpt #:    77  of   211
     total cpu time spent up to now is     1127.7 secs

     Computing kpt #:    78  of   211
     total cpu time spent up to now is     1143.7 secs

     Computing kpt #:    79  of   211
     total cpu time spent up to now is     1159.7 secs

     Computing kpt #:    80  of   211
     total cpu time spent up to now is     1175.7 secs

     Computing kpt #:    81  of   211
     total cpu time spent up to now is     1190.5 secs

     Computing kpt #:    82  of   211
     total cpu time spent up to now is     1205.5 secs

     Computing kpt #:    83  of   211
     total cpu time spent up to now is     1220.4 secs

     Computing kpt #:    84  of   211
     total cpu time spent up to now is     1235.1 secs

     Computing kpt #:    85  of   211
     total cpu time spent up to now is     1249.7 secs

     Computing kpt #:    86  of   211
     total cpu time spent up to now is     1264.8 secs

     Computing kpt #:    87  of   211
     total cpu time spent up to now is     1279.7 secs

     Computing kpt #:    88  of   211
     total cpu time spent up to now is     1294.2 secs

     Computing kpt #:    89  of   211
     total cpu time spent up to now is     1308.7 secs

     Computing kpt #:    90  of   211
     total cpu time spent up to now is     1323.4 secs

     Computing kpt #:    91  of   211
     total cpu time spent up to now is     1338.3 secs

     Computing kpt #:    92  of   211
     total cpu time spent up to now is     1353.4 secs

     Computing kpt #:    93  of   211
     total cpu time spent up to now is     1369.5 secs

     Computing kpt #:    94  of   211
     total cpu time spent up to now is     1385.7 secs

     Computing kpt #:    95  of   211
     total cpu time spent up to now is     1402.1 secs

     Computing kpt #:    96  of   211
     total cpu time spent up to now is     1418.3 secs

     Computing kpt #:    97  of   211
     total cpu time spent up to now is     1433.1 secs

     Computing kpt #:    98  of   211
     total cpu time spent up to now is     1449.2 secs

     Computing kpt #:    99  of   211
     total cpu time spent up to now is     1463.9 secs

     Computing kpt #:   100  of   211
     total cpu time spent up to now is     1478.7 secs

     Computing kpt #:   101  of   211
     total cpu time spent up to now is     1493.5 secs

     Computing kpt #:   102  of   211
     total cpu time spent up to now is     1508.6 secs

     Computing kpt #:   103  of   211
     total cpu time spent up to now is     1523.5 secs

     Computing kpt #:   104  of   211
     total cpu time spent up to now is     1538.5 secs

     Computing kpt #:   105  of   211
     total cpu time spent up to now is     1554.2 secs

     Computing kpt #:   106  of   211
     total cpu time spent up to now is     1570.3 secs

     Computing kpt #:   107  of   211
     total cpu time spent up to now is     1587.4 secs

     Computing kpt #:   108  of   211
     total cpu time spent up to now is     1603.4 secs

     Computing kpt #:   109  of   211
     total cpu time spent up to now is     1619.5 secs

     Computing kpt #:   110  of   211
     total cpu time spent up to now is     1635.5 secs

     Computing kpt #:   111  of   211
     total cpu time spent up to now is     1651.2 secs

     Computing kpt #:   112  of   211
     total cpu time spent up to now is     1666.1 secs

     Computing kpt #:   113  of   211
     total cpu time spent up to now is     1681.7 secs

     Computing kpt #:   114  of   211
     total cpu time spent up to now is     1696.2 secs

     Computing kpt #:   115  of   211
     total cpu time spent up to now is     1710.8 secs

     Computing kpt #:   116  of   211
     total cpu time spent up to now is     1725.6 secs

     Computing kpt #:   117  of   211
     total cpu time spent up to now is     1740.4 secs

     Computing kpt #:   118  of   211
     total cpu time spent up to now is     1756.3 secs

     Computing kpt #:   119  of   211
     total cpu time spent up to now is     1772.5 secs

     Computing kpt #:   120  of   211
     total cpu time spent up to now is     1788.8 secs

     Computing kpt #:   121  of   211
     total cpu time spent up to now is     1804.9 secs

     Computing kpt #:   122  of   211
     total cpu time spent up to now is     1820.8 secs

     Computing kpt #:   123  of   211
     total cpu time spent up to now is     1836.6 secs

     Computing kpt #:   124  of   211
     total cpu time spent up to now is     1851.7 secs

     Computing kpt #:   125  of   211
     total cpu time spent up to now is     1867.8 secs

     Computing kpt #:   126  of   211
     total cpu time spent up to now is     1884.1 secs

     Computing kpt #:   127  of   211
     total cpu time spent up to now is     1900.5 secs

     Computing kpt #:   128  of   211
     total cpu time spent up to now is     1917.0 secs

     Computing kpt #:   129  of   211
     total cpu time spent up to now is     1933.2 secs

     Computing kpt #:   130  of   211
     total cpu time spent up to now is     1948.5 secs

     Computing kpt #:   131  of   211
     total cpu time spent up to now is     1963.6 secs

     Computing kpt #:   132  of   211
     total cpu time spent up to now is     1978.6 secs

     Computing kpt #:   133  of   211
     total cpu time spent up to now is     1993.8 secs

     Computing kpt #:   134  of   211
     total cpu time spent up to now is     2009.9 secs

     Computing kpt #:   135  of   211
     total cpu time spent up to now is     2026.3 secs

     Computing kpt #:   136  of   211
     total cpu time spent up to now is     2042.8 secs

     Computing kpt #:   137  of   211
     total cpu time spent up to now is     2059.1 secs

     Computing kpt #:   138  of   211
     total cpu time spent up to now is     2075.4 secs

     Computing kpt #:   139  of   211
     total cpu time spent up to now is     2091.6 secs

     Computing kpt #:   140  of   211
     total cpu time spent up to now is     2106.8 secs

     Computing kpt #:   141  of   211
     total cpu time spent up to now is     2122.1 secs

     Computing kpt #:   142  of   211
     total cpu time spent up to now is     2137.3 secs

     Computing kpt #:   143  of   211
     total cpu time spent up to now is     2152.8 secs

     Computing kpt #:   144  of   211
     total cpu time spent up to now is     2168.9 secs

     Computing kpt #:   145  of   211
     total cpu time spent up to now is     2185.2 secs

     Computing kpt #:   146  of   211
     total cpu time spent up to now is     2201.7 secs

     Computing kpt #:   147  of   211
     total cpu time spent up to now is     2217.9 secs

     Computing kpt #:   148  of   211
     total cpu time spent up to now is     2233.2 secs

     Computing kpt #:   149  of   211
     total cpu time spent up to now is     2248.4 secs

     Computing kpt #:   150  of   211
     total cpu time spent up to now is     2264.5 secs

     Computing kpt #:   151  of   211
     total cpu time spent up to now is     2280.8 secs

     Computing kpt #:   152  of   211
     total cpu time spent up to now is     2300.6 secs

     Computing kpt #:   153  of   211
     total cpu time spent up to now is     2317.1 secs

     Computing kpt #:   154  of   211
     total cpu time spent up to now is     2333.6 secs

     Computing kpt #:   155  of   211
     total cpu time spent up to now is     2351.4 secs

     Computing kpt #:   156  of   211
     total cpu time spent up to now is     2370.7 secs

     Computing kpt #:   157  of   211
     total cpu time spent up to now is     2387.0 secs

     Computing kpt #:   158  of   211
     total cpu time spent up to now is     2403.3 secs

     Computing kpt #:   159  of   211
     total cpu time spent up to now is     2418.7 secs

     Computing kpt #:   160  of   211
     total cpu time spent up to now is     2434.2 secs

     Computing kpt #:   161  of   211
     total cpu time spent up to now is     2450.2 secs

     Computing kpt #:   162  of   211
     total cpu time spent up to now is     2466.2 secs

     Computing kpt #:   163  of   211
     total cpu time spent up to now is     2481.1 secs

     Computing kpt #:   164  of   211
     total cpu time spent up to now is     2495.8 secs

     Computing kpt #:   165  of   211
     total cpu time spent up to now is     2510.7 secs

     Computing kpt #:   166  of   211
     total cpu time spent up to now is     2525.1 secs

     Computing kpt #:   167  of   211
     total cpu time spent up to now is     2540.7 secs

     Computing kpt #:   168  of   211
     total cpu time spent up to now is     2556.3 secs

     Computing kpt #:   169  of   211
     total cpu time spent up to now is     2571.1 secs

     Computing kpt #:   170  of   211
     total cpu time spent up to now is     2585.8 secs

     Computing kpt #:   171  of   211
     total cpu time spent up to now is     2600.2 secs

     Computing kpt #:   172  of   211
     total cpu time spent up to now is     2614.3 secs

     Computing kpt #:   173  of   211
     total cpu time spent up to now is     2627.7 secs

     Computing kpt #:   174  of   211
     total cpu time spent up to now is     2642.0 secs

     Computing kpt #:   175  of   211
     total cpu time spent up to now is     2656.4 secs

     Computing kpt #:   176  of   211
     total cpu time spent up to now is     2670.6 secs

     Computing kpt #:   177  of   211
     total cpu time spent up to now is     2684.9 secs

     Computing kpt #:   178  of   211
     total cpu time spent up to now is     2699.3 secs

     Computing kpt #:   179  of   211
     total cpu time spent up to now is     2714.9 secs

     Computing kpt #:   180  of   211
     total cpu time spent up to now is     2733.8 secs

     Computing kpt #:   181  of   211
     total cpu time spent up to now is     2749.8 secs

     Computing kpt #:   182  of   211
     total cpu time spent up to now is     2765.3 secs

     Computing kpt #:   183  of   211
     total cpu time spent up to now is     2779.9 secs

     Computing kpt #:   184  of   211
     total cpu time spent up to now is     2796.0 secs

     Computing kpt #:   185  of   211
     total cpu time spent up to now is     2812.3 secs

     Computing kpt #:   186  of   211
     total cpu time spent up to now is     2828.4 secs

     Computing kpt #:   187  of   211
     total cpu time spent up to now is     2844.8 secs

     Computing kpt #:   188  of   211
     total cpu time spent up to now is     2860.8 secs

     Computing kpt #:   189  of   211
     total cpu time spent up to now is     2876.8 secs

     Computing kpt #:   190  of   211
     total cpu time spent up to now is     2892.7 secs

     Computing kpt #:   191  of   211
     total cpu time spent up to now is     2907.3 secs

     Computing kpt #:   192  of   211
     total cpu time spent up to now is     2921.8 secs

     Computing kpt #:   193  of   211
     total cpu time spent up to now is     2936.4 secs

     Computing kpt #:   194  of   211
     total cpu time spent up to now is     2951.2 secs

     Computing kpt #:   195  of   211
     total cpu time spent up to now is     2966.9 secs

     Computing kpt #:   196  of   211
     total cpu time spent up to now is     2983.3 secs

     Computing kpt #:   197  of   211
     total cpu time spent up to now is     2999.1 secs

     Computing kpt #:   198  of   211
     total cpu time spent up to now is     3015.0 secs

     Computing kpt #:   199  of   211
     total cpu time spent up to now is     3030.8 secs

     Computing kpt #:   200  of   211
     total cpu time spent up to now is     3046.9 secs

     Computing kpt #:   201  of   211
     total cpu time spent up to now is     3062.7 secs

     Computing kpt #:   202  of   211
     total cpu time spent up to now is     3078.8 secs

     Computing kpt #:   203  of   211
     total cpu time spent up to now is     3093.6 secs

     Computing kpt #:   204  of   211
     total cpu time spent up to now is     3109.3 secs

     Computing kpt #:   205  of   211
     total cpu time spent up to now is     3125.1 secs

     Computing kpt #:   206  of   211
     total cpu time spent up to now is     3140.9 secs

     Computing kpt #:   207  of   211
     total cpu time spent up to now is     3157.2 secs

     Computing kpt #:   208  of   211
     total cpu time spent up to now is     3173.5 secs

     Computing kpt #:   209  of   211
     total cpu time spent up to now is     3188.9 secs

     Computing kpt #:   210  of   211
     total cpu time spent up to now is     3204.1 secs

     Computing kpt #:   211  of   211
     total cpu time spent up to now is     3219.3 secs

     ethr =  1.28E-10,  avg # of iterations = 58.2

     total cpu time spent up to now is     3219.3 secs

     End of band structure calculation

          k = 0.0000 0.0000 0.0000 ( 23927 PWs)   bands (ev):

   -35.4358 -35.4358 -35.4278 -35.4278 -35.4097 -35.4097 -35.4017 -35.4017
   -35.3171 -35.3171 -35.2817 -35.2817 -33.9761 -33.9761 -33.9680 -33.9680
   -33.9539 -33.9539 -33.9459 -33.9459 -33.9421 -33.9421 -33.9341 -33.9341
   -33.8546 -33.8546 -33.8392 -33.8392 -33.8086 -33.8086 -28.0572 -28.0572
   -28.0509 -28.0509 -28.0484 -28.0484 -28.0422 -28.0422 -26.8182 -26.8182
   -26.8119 -26.8119 -26.8081 -26.8081 -26.8069 -26.8069 -26.8019 -26.8019
   -26.8007 -26.8007 -10.5854 -10.5854 -10.0604 -10.0604  -8.9750  -8.9750
    -6.2157  -6.2157  -4.7994  -4.7994  -0.4429  -0.4429   0.0783   0.0783
     0.3221   0.3221   0.5929   0.5929   0.6820   0.6820   0.7920   0.7920
     1.0064   1.0064   1.3928   1.3928   1.5324   1.5324   2.2439   2.2439
     2.8541   2.8541   3.1754   3.1754   3.4052   3.4052   4.1675   4.1675
     4.2712   4.2712   6.2645   6.2645   6.4618   6.4618   7.0286   7.0286
     7.6798   7.6798   7.7350   7.7350   7.8801   7.8801   8.4647   8.4647
     8.7234   8.7234   8.8629   8.8629   9.0386   9.0386   9.1844   9.1844
     9.7249   9.7249   9.7833   9.7833  10.0901  10.0901  10.2052  10.2052
    10.5997  10.5997  11.1981  11.1981  11.3544  11.3544  11.5862  11.5862
    11.6557  11.6557  11.7582  11.7582  12.8535  12.8535  12.9371  12.9371
    14.0318  14.0318  14.1704  14.1704  14.2551  14.2551  14.3492  14.3492
    14.4578  14.4578  15.1643  15.1643  15.9202  15.9202  16.0640  16.0640
    16.1218  16.1218  16.2499  16.2499  16.3537  16.3537  16.4198  16.4198
    16.7807  16.7807  17.2199  17.2199  17.2936  17.2936  17.3546  17.3546
    17.4270  17.4270  17.4897  17.4897  17.5942  17.5942  17.6764  17.6764
    17.6783  17.6783  17.7761  17.7761  17.7930  17.7930  17.8713  17.8713
    18.0027  18.0027  18.2691  18.2691  19.1837  19.1837  19.2795  19.2795
    19.3053  19.3053  19.3569  19.3569  19.4063  19.4063  19.5491  19.5491

          k = 0.0071 0.0041 0.0000 ( 23923 PWs)   bands (ev):

   -35.4358 -35.4358 -35.4278 -35.4278 -35.4097 -35.4097 -35.4017 -35.4017
   -35.3171 -35.3171 -35.2817 -35.2817 -33.9761 -33.9761 -33.9680 -33.9680
   -33.9539 -33.9539 -33.9459 -33.9459 -33.9421 -33.9421 -33.9341 -33.9341
   -33.8546 -33.8546 -33.8392 -33.8392 -33.8086 -33.8086 -28.0572 -28.0572
   -28.0509 -28.0509 -28.0484 -28.0484 -28.0422 -28.0422 -26.8182 -26.8182
   -26.8119 -26.8119 -26.8081 -26.8081 -26.8069 -26.8069 -26.8019 -26.8019
   -26.8007 -26.8007 -10.5850 -10.5850 -10.0600 -10.0600  -8.9748  -8.9748
    -6.2158  -6.2158  -4.8002  -4.8002  -0.4435  -0.4435   0.0718   0.0727
     0.3225   0.3235   0.5905   0.5910   0.6655   0.6684   0.7998   0.8031
     1.0097   1.0104   1.3887   1.3891   1.5360   1.5364   2.2496   2.2500
     2.8542   2.8545   3.1690   3.1698   3.4111   3.4120   4.1700   4.1702
     4.2706   4.2708   6.2653   6.2653   6.4620   6.4620   7.0288   7.0288
     7.6795   7.6795   7.7316   7.7317   7.8805   7.8806   8.4680   8.4680
     8.7224   8.7228   8.8605   8.8612   9.0382   9.0384   9.1835   9.1835
     9.7301   9.7302   9.7857   9.7858  10.0892  10.0892  10.2081  10.2082
    10.6025  10.6025  11.1963  11.1965  11.3486  11.3491  11.5580  11.5586
    11.6845  11.6851  11.7676  11.7682  12.8532  12.8532  12.9384  12.9384
    14.0173  14.0174  14.1517  14.1523  14.2699  14.2712  14.3598  14.3605
    14.4628  14.4628  15.1681  15.1682  15.9012  15.9013  16.0477  16.0481
    16.1121  16.1123  16.2749  16.2755  16.3660  16.3664  16.4211  16.4212
    16.7860  16.7860  17.1813  17.1814  17.2387  17.2387  17.3880  17.3881
    17.4445  17.4446  17.4900  17.4901  17.5720  17.5721  17.6082  17.6083
    17.7251  17.7251  17.7932  17.7933  17.8160  17.8160  17.9044  17.9045
    18.0171  18.0171  18.2817  18.2817  19.1307  19.1308  19.2181  19.2184
    19.3029  19.3033  19.3953  19.3956  19.4274  19.4278  19.5214  19.5215

          k = 0.0143 0.0082 0.0000 ( 23925 PWs)   bands (ev):

   -35.4358 -35.4358 -35.4278 -35.4278 -35.4097 -35.4097 -35.4017 -35.4017
   -35.3171 -35.3171 -35.2817 -35.2817 -33.9761 -33.9761 -33.9680 -33.9680
   -33.9539 -33.9539 -33.9459 -33.9459 -33.9421 -33.9421 -33.9341 -33.9341
   -33.8546 -33.8546 -33.8392 -33.8392 -33.8086 -33.8086 -28.0572 -28.0572
   -28.0509 -28.0509 -28.0484 -28.0484 -28.0422 -28.0422 -26.8182 -26.8182
   -26.8118 -26.8118 -26.8081 -26.8081 -26.8069 -26.8069 -26.8019 -26.8019
   -26.8007 -26.8007 -10.5837 -10.5837 -10.0588 -10.0588  -8.9740  -8.9740
    -6.2159  -6.2159  -4.8024  -4.8024  -0.4454  -0.4454   0.0541   0.0558
     0.3241   0.3259   0.5825   0.5837   0.6316   0.6354   0.8169   0.8216
     1.0203   1.0215   1.3771   1.3781   1.5475   1.5482   2.2663   2.2670
     2.8548   2.8555   3.1531   3.1544   3.4277   3.4292   4.1777   4.1781
     4.2691   4.2695   6.2678   6.2678   6.4626   6.4626   7.0295   7.0295
     7.6782   7.6783   7.7221   7.7223   7.8819   7.8820   8.4777   8.4777
     8.7194   8.7203   8.8539   8.8551   9.0380   9.0384   9.1809   9.1810
     9.7448   9.7450   9.7929   9.7930  10.0868  10.0868  10.2168  10.2169
    10.6111  10.6111  11.1905  11.1908  11.3328  11.3338  11.5149  11.5156
    11.7299  11.7311  11.7966  11.7977  12.8524  12.8525  12.9424  12.9424
    13.9798  13.9800  14.1144  14.1150  14.2962  14.2976  14.3876  14.3885
    14.4796  14.4798  15.1782  15.1783  15.8513  15.8515  16.0118  16.0123
    16.0957  16.0959  16.3224  16.3232  16.3973  16.3979  16.4277  16.4278
    16.8022  16.8023  17.0700  17.0701  17.2131  17.2132  17.3354  17.3355
    17.4334  17.4334  17.4861  17.4862  17.5712  17.5712  17.6254  17.6255
    17.7045  17.7046  17.7927  17.7928  17.9178  17.9179  17.9790  17.9791
    18.0589  18.0589  18.3175  18.3175  19.0251  19.0252  19.1390  19.1393
    19.2395  19.2400  19.4156  19.4157  19.4760  19.4761  19.4947  19.4949

          k = 0.0214 0.0124 0.0000 ( 23933 PWs)   bands (ev):

   -35.4358 -35.4358 -35.4278 -35.4278 -35.4097 -35.4097 -35.4017 -35.4017
   -35.3171 -35.3171 -35.2817 -35.2817 -33.9761 -33.9761 -33.9680 -33.9680
   -33.9539 -33.9539 -33.9459 -33.9459 -33.9421 -33.9421 -33.9341 -33.9341
   -33.8546 -33.8546 -33.8392 -33.8392 -33.8086 -33.8086 -28.0572 -28.0572
   -28.0509 -28.0509 -28.0484 -28.0484 -28.0422 -28.0422 -26.8181 -26.8181
   -26.8118 -26.8118 -26.8082 -26.8081 -26.8069 -26.8069 -26.8019 -26.8019
   -26.8007 -26.8007 -10.5815 -10.5815 -10.0568 -10.0568  -8.9727  -8.9727
    -6.2161  -6.2161  -4.8061  -4.8061  -0.4486  -0.4486   0.0269   0.0291
     0.3252   0.3276   0.5615   0.5645   0.5991   0.6026   0.8318   0.8370
     1.0367   1.0384   1.3600   1.3613   1.5666   1.5677   2.2919   2.2930
     2.8559   2.8567   3.1328   3.1345   3.4508   3.4526   4.1901   4.1906
     4.2672   4.2678   6.2719   6.2719   6.4636   6.4636   7.0307   7.0307
     7.6735   7.6737   7.7092   7.7095   7.8849   7.8849   8.4928   8.4928
     8.7139   8.7152   8.8433   8.8450   9.0400   9.0406   9.1773   9.1774
     9.7661   9.7663   9.8048   9.8051  10.0841  10.0841  10.2311  10.2313
    10.6255  10.6255  11.1793  11.1798  11.3098  11.3111  11.4762  11.4769
    11.7736  11.7750  11.8427  11.8441  12.8512  12.8513  12.9490  12.9490
    13.9294  13.9296  14.0719  14.0722  14.3166  14.3177  14.4248  14.4255
    14.5107  14.5109  15.1903  15.1903  15.7871  15.7872  15.9700  15.9704
    16.0783  16.0784  16.3609  16.3615  16.4304  16.4306  16.4531  16.4536
    16.8282  16.8285  16.9531  16.9534  17.1616  17.1617  17.2752  17.2753
    17.3688  17.3688  17.4540  17.4541  17.5722  17.5723  17.6772  17.6773
    17.7534  17.7535  17.7823  17.7823  18.0086  18.0087  18.0806  18.0806
    18.1225  18.1226  18.3721  18.3721  18.9109  18.9109  19.0398  19.0400
    19.1716  19.1719  19.3842  19.3842  19.4547  19.4547  19.4998  19.4999

          k = 0.0286 0.0165 0.0000 ( 23927 PWs)   bands (ev):

   -35.4358 -35.4358 -35.4278 -35.4278 -35.4097 -35.4097 -35.4017 -35.4017
   -35.3171 -35.3171 -35.2817 -35.2817 -33.9761 -33.9761 -33.9680 -33.9680
   -33.9539 -33.9539 -33.9459 -33.9459 -33.9421 -33.9421 -33.9341 -33.9341
   -33.8546 -33.8546 -33.8392 -33.8392 -33.8086 -33.8086 -28.0572 -28.0572
   -28.0509 -28.0509 -28.0485 -28.0484 -28.0422 -28.0422 -26.8181 -26.8181
   -26.8118 -26.8118 -26.8082 -26.8081 -26.8069 -26.8069 -26.8019 -26.8019
   -26.8007 -26.8007 -10.5784 -10.5784 -10.0539 -10.0539  -8.9710  -8.9710
    -6.2164  -6.2164  -4.8113  -4.8112  -0.4532  -0.4531  -0.0081  -0.0055
     0.3241   0.3269   0.5203   0.5244   0.5810   0.5837   0.8410   0.8464
     1.0563   1.0585   1.3405   1.3422   1.5926   1.5938   2.3237   2.3251
     2.8573   2.8583   3.1128   3.1146   3.4766   3.4787   4.2058   4.2064
     4.2662   4.2668   6.2775   6.2776   6.4649   6.4650   7.0321   7.0321
     7.6600   7.6602   7.6995   7.6998   7.8896   7.8897   8.5121   8.5122
     8.7045   8.7061   8.8302   8.8323   9.0458   9.0464   9.1732   9.1732
     9.7900   9.7903   9.8212   9.8215  10.0831  10.0832  10.2510  10.2512
    10.6458  10.6459  11.1611  11.1616  11.2831  11.2844  11.4460  11.4465
    11.8169  11.8183  11.8985  11.8999  12.8498  12.8498  12.9580  12.9581
    13.8728  13.8730  14.0277  14.0279  14.3281  14.3288  14.4668  14.4673
    14.5540  14.5542  15.1967  15.1968  15.7253  15.7254  15.9264  15.9267
    16.0589  16.0590  16.3778  16.3781  16.4575  16.4579  16.5005  16.5010
    16.8174  16.8179  16.8820  16.8823  17.0799  17.0799  17.2143  17.2144
    17.3294  17.3295  17.4187  17.4188  17.5167  17.5168  17.7565  17.7567
    17.7755  17.7757  17.8402  17.8403  18.0883  18.0883  18.1907  18.1908
    18.2010  18.2011  18.4415  18.4415  18.8004  18.8005  18.9286  18.9288
    19.1047  19.1050  19.3375  19.3375  19.4147  19.4147  19.4678  19.4679

          k = 0.0357 0.0206 0.0000 ( 23921 PWs)   bands (ev):

   -35.4358 -35.4358 -35.4278 -35.4278 -35.4097 -35.4097 -35.4017 -35.4017
   -35.3171 -35.3171 -35.2817 -35.2817 -33.9761 -33.9761 -33.9680 -33.9680
   -33.9539 -33.9539 -33.9459 -33.9459 -33.9421 -33.9421 -33.9341 -33.9341
   -33.8546 -33.8546 -33.8392 -33.8392 -33.8086 -33.8086 -28.0572 -28.0572
   -28.0509 -28.0509 -28.0485 -28.0484 -28.0422 -28.0422 -26.8181 -26.8181
   -26.8118 -26.8118 -26.8082 -26.8081 -26.8069 -26.8069 -26.8019 -26.8019
   -26.8007 -26.8007 -10.5744 -10.5744 -10.0503 -10.0503  -8.9687  -8.9687
    -6.2168  -6.2168  -4.8179  -4.8179  -0.4593  -0.4592  -0.0493  -0.0464
     0.3194   0.3223   0.4708   0.4753   0.5678   0.5701   0.8437   0.8491
     1.0755   1.0780   1.3235   1.3256   1.6236   1.6250   2.3584   2.3601
     2.8594   2.8603   3.0969   3.0986   3.5030   3.5053   4.2212   4.2218
     4.2695   4.2702   6.2848   6.2849   6.4667   6.4668   7.0337   7.0337
     7.6356   7.6358   7.6961   7.6963   7.8965   7.8965   8.5344   8.5344
     8.6896   8.6913   8.8178   8.8200   9.0559   9.0564   9.1691   9.1691
     9.8123   9.8125   9.8409   9.8413  10.0870  10.0871  10.2762  10.2764
    10.6722  10.6723  11.1348  11.1353  11.2559  11.2570  11.4252  11.4255
    11.8621  11.8634  11.9580  11.9593  12.8482  12.8482  12.9694  12.9695
    13.8137  13.8140  13.9833  13.9835  14.3344  14.3349  14.5110  14.5113
    14.6045  14.6047  15.1874  15.1875  15.6797  15.6798  15.8831  15.8833
    16.0365  16.0366  16.3801  16.3802  16.4784  16.4786  16.5539  16.5543
    16.7163  16.7165  16.8804  16.8805  17.0201  17.0202  17.1566  17.1566
    17.2955  17.2955  17.3857  17.3857  17.4606  17.4606  17.7684  17.7685
    17.8479  17.8480  17.9300  17.9301  18.1653  18.1653  18.2776  18.2777
    18.3019  18.3019  18.5162  18.5162  18.7105  18.7106  18.8125  18.8126
    19.0391  19.0393  19.2857  19.2858  19.3706  19.3706  19.4206  19.4206

          k = 0.0429 0.0247 0.0000 ( 23917 PWs)   bands (ev):

   -35.4358 -35.4358 -35.4278 -35.4278 -35.4097 -35.4097 -35.4017 -35.4017
   -35.3171 -35.3171 -35.2817 -35.2817 -33.9761 -33.9761 -33.9680 -33.9680
   -33.9539 -33.9539 -33.9459 -33.9459 -33.9421 -33.9421 -33.9341 -33.9341
   -33.8546 -33.8546 -33.8392 -33.8392 -33.8086 -33.8086 -28.0572 -28.0572
   -28.0509 -28.0509 -28.0485 -28.0484 -28.0423 -28.0422 -26.8181 -26.8181
   -26.8118 -26.8118 -26.8082 -26.8081 -26.8069 -26.8069 -26.8020 -26.8019
   -26.8007 -26.8007 -10.5696 -10.5696 -10.0458 -10.0458  -8.9659  -8.9659
    -6.2173  -6.2173  -4.8261  -4.8260  -0.4669  -0.4668  -0.0955  -0.0923
     0.3101   0.3129   0.4194   0.4241   0.5546   0.5568   0.8401   0.8453
     1.0903   1.0931   1.3144   1.3167   1.6577   1.6592   2.3927   2.3946
     2.8630   2.8637   3.0875   3.0890   3.5288   3.5311   4.2294   4.2302
     4.2837   4.2846   6.2935   6.2936   6.4687   6.4689   7.0352   7.0352
     7.6049   7.6050   7.6957   7.6960   7.9054   7.9054   8.5581   8.5582
     8.6683   8.6700   8.8089   8.8109   9.0700   9.0704   9.1657   9.1658
     9.8292   9.8294   9.8620   9.8624  10.0995  10.0997  10.3064  10.3066
    10.7047  10.7048  11.1013  11.1018  11.2300  11.2309  11.4130  11.4131
    11.9095  11.9108  12.0179  12.0191  12.8465  12.8466  12.9830  12.9831
    13.7546  13.7549  13.9396  13.9398  14.3397  14.3400  14.5551  14.5553
    14.6575  14.6578  15.1550  15.1551  15.6584  15.6585  15.8419  15.8420
    16.0109  16.0110  16.3706  16.3707  16.4832  16.4834  16.6034  16.6040
    16.6287  16.6292  16.8077  16.8077  17.0360  17.0362  17.1092  17.1094
    17.2595  17.2596  17.3513  17.3513  17.4092  17.4093  17.7890  17.7891
    17.9242  17.9242  18.0199  18.0200  18.2403  18.2403  18.3325  18.3326
    18.4070  18.4071  18.5540  18.5540  18.6888  18.6892  18.7101  18.7104
    18.9748  18.9749  19.2326  19.2326  19.3268  19.3268  19.3694  19.3695

          k = 0.0500 0.0289 0.0000 ( 23918 PWs)   bands (ev):

   -35.4358 -35.4358 -35.4278 -35.4278 -35.4097 -35.4097 -35.4017 -35.4017
   -35.3171 -35.3171 -35.2817 -35.2817 -33.9761 -33.9761 -33.9680 -33.9680
   -33.9539 -33.9539 -33.9459 -33.9459 -33.9421 -33.9421 -33.9341 -33.9341
   -33.8546 -33.8546 -33.8392 -33.8392 -33.8086 -33.8086 -28.0572 -28.0572
   -28.0509 -28.0509 -28.0485 -28.0484 -28.0423 -28.0422 -26.8181 -26.8181
   -26.8118 -26.8118 -26.8082 -26.8081 -26.8069 -26.8069 -26.8020 -26.8019
   -26.8007 -26.8007 -10.5639 -10.5639 -10.0406 -10.0406  -8.9626  -8.9626
    -6.2180  -6.2179  -4.8357  -4.8356  -0.4765  -0.4762  -0.1457  -0.1423
     0.2950   0.2975   0.3691   0.3738   0.5405   0.5426   0.8296   0.8345
     1.0984   1.1012   1.3172   1.3195   1.6928   1.6942   2.4236   2.4256
     2.8698   2.8702   3.0862   3.0872   3.5533   3.5557   4.2297   4.2307
     4.3095   4.3104   6.3037   6.3038   6.4711   6.4713   7.0362   7.0363
     7.5712   7.5713   7.6966   7.6967   7.9163   7.9164   8.5815   8.5816
     8.6422   8.6437   8.8045   8.8062   9.0870   9.0874   9.1637   9.1639
     9.8368   9.8370   9.8844   9.8847  10.1235  10.1237  10.3408  10.3409
    10.7430  10.7432  11.0635  11.0640  11.2063  11.2070  11.4074  11.4076
    11.9588  11.9600  12.0767  12.0778  12.8451  12.8452  12.9985  12.9986
    13.6973  13.6976  13.8971  13.8973  14.3466  14.3469  14.5974  14.5977
    14.7085  14.7088  15.1021  15.1023  15.6580  15.6580  15.8041  15.8042
    15.9832  15.9833  16.3376  16.3376  16.4695  16.4697  16.5546  16.5547
    16.6583  16.6584  16.7251  16.7252  17.0311  17.0313  17.1079  17.1082
    17.2290  17.2292  17.3148  17.3148  17.3660  17.3661  17.8250  17.8250
    17.9988  17.9989  18.1028  18.1029  18.2900  18.2901  18.3464  18.3464
    18.4957  18.4958  18.5586  18.5587  18.6162  18.6162  18.7901  18.7902
    18.9127  18.9127  19.1798  19.1799  19.2877  19.2878  19.3185  19.3186

          k = 0.0571 0.0330 0.0000 ( 23925 PWs)   bands (ev):

   -35.4358 -35.4358 -35.4278 -35.4278 -35.4097 -35.4097 -35.4017 -35.4017
   -35.3171 -35.3171 -35.2817 -35.2817 -33.9761 -33.9761 -33.9680 -33.9680
   -33.9539 -33.9539 -33.9459 -33.9459 -33.9421 -33.9421 -33.9341 -33.9341
   -33.8546 -33.8546 -33.8392 -33.8392 -33.8086 -33.8086 -28.0572 -28.0572
   -28.0509 -28.0509 -28.0485 -28.0484 -28.0423 -28.0422 -26.8181 -26.8181
   -26.8118 -26.8118 -26.8082 -26.8082 -26.8069 -26.8069 -26.8020 -26.8019
   -26.8007 -26.8007 -10.5573 -10.5573 -10.0345 -10.0345  -8.9589  -8.9589
    -6.2187  -6.2187  -4.8468  -4.8467  -0.4881  -0.4878  -0.1990  -0.1953
     0.2714   0.2732   0.3239   0.3283   0.5250   0.5270   0.8123   0.8168
     1.1007   1.1034   1.3320   1.3342   1.7264   1.7278   2.4490   2.4512
     2.8814   2.8821   3.0932   3.0939   3.5764   3.5788   4.2268   4.2280
     4.3418   4.3428   6.3152   6.3154   6.4738   6.4740   7.0365   7.0366
     7.5364   7.5365   7.6979   7.6980   7.9292   7.9293   8.5943   8.5945
     8.6232   8.6240   8.8036   8.8050   9.1055   9.1059   9.1646   9.1648
     9.8338   9.8339   9.9091   9.9092  10.1588  10.1590  10.3785  10.3787
    10.7866  10.7868  11.0250  11.0254  11.1850  11.1856  11.4066  11.4068
    12.0095  12.0107  12.1331  12.1341  12.8441  12.8442  13.0156  13.0156
    13.6436  13.6439  13.8562  13.8564  14.3567  14.3570  14.6365  14.6368
    14.7487  14.7491  15.0436  15.0438  15.6647  15.6648  15.7717  15.7717
    15.9550  15.9552  16.2741  16.2742  16.4572  16.4574  16.4806  16.4806
    16.6671  16.6675  16.7093  16.7097  16.9986  16.9987  17.1130  17.1132
    17.2105  17.2107  17.2844  17.2844  17.3448  17.3449  17.8686  17.8687
    18.0693  18.0693  18.1589  18.1590  18.2608  18.2609  18.4058  18.4060
    18.4506  18.4508  18.5915  18.5915  18.6895  18.6896  18.8461  18.8462
    18.9013  18.9015  19.1290  19.1290  19.2564  19.2566  19.2754  19.2756

          k = 0.0643 0.0371 0.0000 ( 23938 PWs)   bands (ev):

   -35.4358 -35.4358 -35.4278 -35.4278 -35.4097 -35.4097 -35.4017 -35.4017
   -35.3171 -35.3171 -35.2817 -35.2817 -33.9761 -33.9760 -33.9680 -33.9680
   -33.9539 -33.9539 -33.9459 -33.9459 -33.9421 -33.9421 -33.9341 -33.9341
   -33.8546 -33.8546 -33.8392 -33.8392 -33.8086 -33.8086 -28.0572 -28.0572
   -28.0509 -28.0509 -28.0485 -28.0484 -28.0423 -28.0422 -26.8181 -26.8181
   -26.8118 -26.8118 -26.8082 -26.8082 -26.8069 -26.8069 -26.8020 -26.8019
   -26.8007 -26.8007 -10.5499 -10.5499 -10.0277 -10.0277  -8.9547  -8.9546
    -6.2196  -6.2196  -4.8594  -4.8593  -0.5025  -0.5020  -0.2544  -0.2504
     0.2343   0.2366   0.2890   0.2925   0.5076   0.5094   0.7886   0.7926
     1.1005   1.1029   1.3560   1.3579   1.7563   1.7576   2.4687   2.4708
     2.8991   2.9005   3.1082   3.1088   3.5982   3.6006   4.2235   4.2249
     4.3779   4.3789   6.3280   6.3282   6.4767   6.4769   7.0354   7.0355
     7.5022   7.5023   7.6994   7.6995   7.9440   7.9440   8.5707   8.5715
     8.6383   8.6384   8.8049   8.8060   9.1228   9.1231   9.1711   9.1714
     9.8223   9.8224   9.9354   9.9354  10.2032  10.2035  10.4185  10.4186
    10.8332  10.8335  10.9901  10.9906  11.1666  11.1671  11.4089  11.4091
    12.0610  12.0621  12.1860  12.1870  12.8439  12.8439  13.0334  13.0334
    13.5952  13.5955  13.8174  13.8175  14.3705  14.3708  14.6702  14.6708
    14.7586  14.7593  15.0067  15.0069  15.6613  15.6615  15.7460  15.7461
    15.9269  15.9271  16.2041  16.2041  16.3781  16.3781  16.4577  16.4578
    16.6628  16.6631  16.7260  16.7263  16.9791  16.9793  17.0893  17.0895
    17.1842  17.1843  17.2495  17.2496  17.3775  17.3776  17.8987  17.8988
    18.1083  18.1084  18.1728  18.1729  18.2496  18.2498  18.3843  18.3844
    18.4876  18.4876  18.6574  18.6574  18.7703  18.7704  18.8165  18.8166
    18.9887  18.9888  19.0824  19.0825  19.2175  19.2176  19.2769  19.2770

          k = 0.0714 0.0412 0.0000 ( 23945 PWs)   bands (ev):

   -35.4358 -35.4358 -35.4278 -35.4278 -35.4097 -35.4097 -35.4017 -35.4017
   -35.3171 -35.3171 -35.2817 -35.2817 -33.9760 -33.9760 -33.9680 -33.9680
   -33.9539 -33.9539 -33.9459 -33.9459 -33.9421 -33.9421 -33.9341 -33.9341
   -33.8546 -33.8546 -33.8392 -33.8392 -33.8085 -33.8085 -28.0572 -28.0572
   -28.0509 -28.0509 -28.0485 -28.0484 -28.0423 -28.0422 -26.8181 -26.8181
   -26.8118 -26.8118 -26.8082 -26.8082 -26.8069 -26.8069 -26.8020 -26.8019
[...]
   -35.3171 -35.3171 -35.2817 -35.2817 -33.9760 -33.9760 -33.9680 -33.9680
   -33.9539 -33.9539 -33.9459 -33.9459 -33.9421 -33.9421 -33.9341 -33.9341
   -33.8546 -33.8546 -33.8392 -33.8392 -33.8086 -33.8086 -28.0572 -28.0572
   -28.0509 -28.0509 -28.0485 -28.0484 -28.0423 -28.0422 -26.8181 -26.8181
   -26.8118 -26.8118 -26.8082 -26.8082 -26.8069 -26.8069 -26.8020 -26.8019
   -26.8007 -26.8006 -10.5476 -10.5476 -10.0256 -10.0256  -8.9532  -8.9532
    -6.2194  -6.2194  -4.8614  -4.8614  -0.5031  -0.5027  -0.2489  -0.2455
     0.1657   0.1687   0.3472   0.3491   0.4781   0.4806   0.7705   0.7739
     1.1119   1.1126   1.3423   1.3440   1.7582   1.7589   2.4946   2.4964
     2.8809   2.8822   3.1096   3.1109   3.6140   3.6162   4.2159   4.2167
     4.3977   4.3985   6.3320   6.3322   6.4789   6.4791   7.0375   7.0376
     7.5269   7.5270   7.6829   7.6830   7.9112   7.9113   8.6195   8.6212
     8.6518   8.6523   8.7361   8.7385   9.0940   9.0944   9.2250   9.2253
     9.8457   9.8459   9.8807   9.8810  10.2488  10.2490  10.4367  10.4370
    10.8566  10.8572  10.9418  10.9424  11.2053  11.2056  11.3992  11.3996
    12.0537  12.0546  12.2125  12.2133  12.8611  12.8611  13.0534  13.0535
    13.5742  13.5745  13.7667  13.7670  14.4479  14.4485  14.5517  14.5523
    14.8612  14.8619  15.0284  15.0288  15.4363  15.4364  15.8940  15.8941
    16.0794  16.0796  16.1968  16.1969  16.3859  16.3860  16.4938  16.4939
    16.5856  16.5857  16.6506  16.6507  16.8035  16.8036  16.8371  16.8372
    17.3409  17.3412  17.5138  17.5139  17.6636  17.6638  17.7217  17.7219
    17.8236  17.8236  18.1167  18.1168  18.2617  18.2620  18.3590  18.3593
    18.5714  18.5720  18.5921  18.5927  18.6946  18.6947  18.9038  18.9039
    18.9220  18.9221  19.1692  19.1692  19.4918  19.4918  19.6105  19.6105

          k = 0.0333 0.0581 0.0000 ( 23915 PWs)   bands (ev):

   -35.4358 -35.4358 -35.4278 -35.4278 -35.4097 -35.4097 -35.4017 -35.4017
   -35.3171 -35.3171 -35.2817 -35.2817 -33.9761 -33.9761 -33.9680 -33.9680
   -33.9539 -33.9539 -33.9459 -33.9459 -33.9421 -33.9421 -33.9341 -33.9341
   -33.8546 -33.8546 -33.8392 -33.8392 -33.8086 -33.8086 -28.0572 -28.0572
   -28.0509 -28.0509 -28.0485 -28.0484 -28.0423 -28.0422 -26.8181 -26.8181
   -26.8118 -26.8118 -26.8082 -26.8082 -26.8069 -26.8069 -26.8020 -26.8019
   -26.8007 -26.8007 -10.5565 -10.5565 -10.0337 -10.0337  -8.9583  -8.9583
    -6.2184  -6.2184  -4.8469  -4.8468  -0.4870  -0.4868  -0.1884  -0.1853
     0.2236   0.2258   0.3784   0.3801   0.4990   0.5015   0.7947   0.7983
     1.1204   1.1216   1.3129   1.3149   1.7278   1.7285   2.4576   2.4592
     2.8799   2.8810   3.0879   3.0886   3.5823   3.5848   4.2204   4.2212
     4.3554   4.3561   6.3167   6.3169   6.4750   6.4752   7.0375   7.0376
     7.5696   7.5697   7.6855   7.6857   7.8895   7.8896   8.6126   8.6127
     8.6592   8.6617   8.7505   8.7534   9.0795   9.0799   9.2042   9.2045
     9.8442   9.8446   9.8677   9.8682  10.1901  10.1903  10.3907  10.3910
    10.8023  10.8026  10.9883  10.9887  11.2082  11.2086  11.4110  11.4114
    11.9903  11.9913  12.1525  12.1533  12.8555  12.8556  13.0283  13.0283
    13.6490  13.6494  13.8048  13.8051  14.4304  14.4312  14.5111  14.5118
    14.8221  14.8226  15.0969  15.0971  15.5006  15.5007  15.8413  15.8415
    16.1102  16.1103  16.2523  16.2524  16.4637  16.4638  16.5317  16.5318
    16.5910  16.5911  16.7269  16.7271  16.8411  16.8411  16.8987  16.8987
    17.2594  17.2596  17.5081  17.5081  17.6238  17.6240  17.6778  17.6780
    17.8156  17.8156  18.1008  18.1009  18.3339  18.3343  18.3775  18.3778
    18.5351  18.5351  18.6610  18.6611  18.7669  18.7671  18.7783  18.7786
    18.8184  18.8187  19.0439  19.0439  19.4856  19.4856  19.5918  19.5918

          k = 0.0286 0.0498 0.0000 ( 23919 PWs)   bands (ev):

   -35.4358 -35.4358 -35.4278 -35.4278 -35.4097 -35.4097 -35.4017 -35.4017
   -35.3171 -35.3171 -35.2817 -35.2817 -33.9761 -33.9761 -33.9680 -33.9680
   -33.9539 -33.9539 -33.9459 -33.9459 -33.9421 -33.9421 -33.9341 -33.9341
   -33.8546 -33.8546 -33.8392 -33.8392 -33.8086 -33.8086 -28.0572 -28.0572
   -28.0509 -28.0509 -28.0485 -28.0484 -28.0423 -28.0422 -26.8181 -26.8181
   -26.8118 -26.8118 -26.8082 -26.8081 -26.8069 -26.8069 -26.8020 -26.8019
   -26.8007 -26.8007 -10.5641 -10.5641 -10.0408 -10.0408  -8.9627  -8.9627
    -6.2176  -6.2176  -4.8343  -4.8342  -0.4742  -0.4741  -0.1303  -0.1275
     0.2715   0.2728   0.4110   0.4133   0.5206   0.5231   0.8149   0.8188
     1.1167   1.1183   1.3002   1.3023   1.6911   1.6918   2.4199   2.4213
     2.8776   2.8787   3.0779   3.0784   3.5521   3.5547   4.2238   4.2246
     4.3176   4.3182   6.3032   6.3034   6.4716   6.4718   7.0365   7.0365
     7.6098   7.6099   7.6885   7.6887   7.8733   7.8734   8.5883   8.5884
     8.6759   8.6785   8.7722   8.7751   9.0637   9.0641   9.1903   9.1906
     9.8279   9.8282   9.8644   9.8649  10.1428  10.1430  10.3463  10.3466
    10.7501  10.7503  11.0405  11.0409  11.2185  11.2190  11.4231  11.4236
    11.9285  11.9295  12.0887  12.0895  12.8528  12.8528  13.0052  13.0052
    13.7217  13.7222  13.8529  13.8532  14.4095  14.4106  14.4743  14.4753
    14.7644  14.7648  15.1580  15.1582  15.5757  15.5759  15.8080  15.8082
    16.1120  16.1122  16.2998  16.3000  16.5171  16.5175  16.5539  16.5543
    16.5947  16.5948  16.8318  16.8318  16.8997  16.8998  16.9833  16.9833
    17.1863  17.1865  17.5032  17.5033  17.5828  17.5830  17.6433  17.6434
    17.8079  17.8079  18.0570  18.0571  18.2466  18.2466  18.4322  18.4323
    18.5711  18.5712  18.6374  18.6376  18.6685  18.6686  18.7920  18.7922
    18.8860  18.8861  18.9730  18.9730  19.4826  19.4826  19.5756  19.5757

          k = 0.0238 0.0415 0.0000 ( 23919 PWs)   bands (ev):

   -35.4358 -35.4358 -35.4278 -35.4278 -35.4097 -35.4097 -35.4017 -35.4017
   -35.3171 -35.3171 -35.2817 -35.2817 -33.9761 -33.9761 -33.9680 -33.9680
   -33.9539 -33.9539 -33.9459 -33.9459 -33.9421 -33.9421 -33.9341 -33.9341
   -33.8546 -33.8546 -33.8392 -33.8392 -33.8086 -33.8086 -28.0572 -28.0572
   -28.0509 -28.0509 -28.0485 -28.0484 -28.0423 -28.0422 -26.8181 -26.8181
   -26.8118 -26.8118 -26.8082 -26.8081 -26.8069 -26.8069 -26.8019 -26.8019
   -26.8007 -26.8007 -10.5706 -10.5706 -10.0468 -10.0468  -8.9664  -8.9664
    -6.2170  -6.2170  -4.8236  -4.8236  -0.4641  -0.4640  -0.0760  -0.0734
     0.3030   0.3049   0.4514   0.4550   0.5418   0.5442   0.8290   0.8332
     1.0993   1.1010   1.3065   1.3085   1.6515   1.6523   2.3808   2.3819
     2.8732   2.8744   3.0813   3.0822   3.5222   3.5248   4.2228   4.2238
     4.2882   4.2888   6.2916   6.2918   6.4686   6.4688   7.0348   7.0349
     7.6443   7.6446   7.6924   7.6928   7.8631   7.8633   8.5599   8.5599
     8.6919   8.6942   8.7959   8.7986   9.0502   9.0506   9.1821   9.1822
     9.8072   9.8075   9.8559   9.8564  10.1105  10.1106  10.3058  10.3061
    10.7045  10.7047  11.0904  11.0908  11.2369  11.2376  11.4369  11.4375
    11.8693  11.8703  12.0221  12.0229  12.8518  12.8518  12.9850  12.9851
    13.7904  13.7907  13.9105  13.9106  14.3863  14.3876  14.4424  14.4436
    14.6976  14.6979  15.1990  15.1991  15.6493  15.6494  15.8097  15.8099
    16.1046  16.1048  16.3313  16.3315  16.4935  16.4938  16.5461  16.5464
    16.6883  16.6884  16.9319  16.9321  16.9813  16.9815  17.0250  17.0251
    17.1803  17.1803  17.4999  17.5000  17.5442  17.5443  17.6168  17.6168
    17.8007  17.8007  18.0101  18.0102  18.1140  18.1140  18.4116  18.4117
    18.4546  18.4547  18.6217  18.6217  18.7235  18.7239  18.7921  18.7924
    18.9553  18.9555  19.0495  19.0495  19.4837  19.4837  19.5607  19.5608

          k = 0.0190 0.0332 0.0000 ( 23921 PWs)   bands (ev):

   -35.4358 -35.4358 -35.4278 -35.4278 -35.4097 -35.4097 -35.4017 -35.4017
   -35.3171 -35.3171 -35.2817 -35.2817 -33.9761 -33.9761 -33.9680 -33.9680
   -33.9539 -33.9539 -33.9459 -33.9459 -33.9421 -33.9421 -33.9341 -33.9341
   -33.8546 -33.8546 -33.8392 -33.8392 -33.8086 -33.8086 -28.0572 -28.0572
   -28.0509 -28.0509 -28.0485 -28.0484 -28.0422 -28.0422 -26.8181 -26.8181
   -26.8118 -26.8118 -26.8082 -26.8081 -26.8069 -26.8069 -26.8019 -26.8019
   -26.8007 -26.8007 -10.5760 -10.5760 -10.0517 -10.0517  -8.9695  -8.9695
    -6.2165  -6.2165  -4.8149  -4.8149  -0.4562  -0.4561  -0.0270  -0.0247
     0.3188   0.3213   0.5004   0.5047   0.5618   0.5641   0.8352   0.8396
     1.0738   1.0754   1.3260   1.3276   1.6128   1.6135   2.3412   2.3421
     2.8674   2.8687   3.0968   3.0980   3.4919   3.4945   4.2127   4.2138
     4.2725   4.2731   6.2820   6.2821   6.4662   6.4663   7.0330   7.0330
     7.6676   7.6680   7.7007   7.7012   7.8597   7.8599   8.5313   8.5314
     8.7047   8.7066   8.8184   8.8208   9.0410   9.0415   9.1784   9.1785
     9.7855   9.7857   9.8389   9.8393  10.0935  10.0936  10.2710  10.2712
    10.6667  10.6668  11.1321  11.1325  11.2639  11.2649  11.4548  11.4555
    11.8140  11.8149  11.9540  11.9548  12.8518  12.8519  12.9681  12.9681
    13.8548  13.8551  13.9742  13.9743  14.3608  14.3624  14.4154  14.4167
    14.6283  14.6286  15.2127  15.2129  15.7155  15.7156  15.8533  15.8535
    16.0964  16.0966  16.3480  16.3483  16.4548  16.4550  16.5189  16.5191
    16.8030  16.8032  16.9344  16.9345  17.0750  17.0751  17.0891  17.0893
    17.2566  17.2567  17.4965  17.4967  17.5221  17.5222  17.5953  17.5953
    17.7940  17.7940  17.9536  17.9538  17.9905  17.9907  18.3074  18.3076
    18.3179  18.3181  18.5578  18.5578  18.7939  18.7940  18.8887  18.8889
    19.0527  19.0528  19.1560  19.1561  19.4912  19.4913  19.5446  19.5447

          k = 0.0143 0.0249 0.0000 ( 23929 PWs)   bands (ev):

   -35.4358 -35.4358 -35.4278 -35.4278 -35.4097 -35.4097 -35.4017 -35.4017
   -35.3171 -35.3171 -35.2817 -35.2817 -33.9761 -33.9761 -33.9680 -33.9680
   -33.9539 -33.9539 -33.9459 -33.9459 -33.9422 -33.9421 -33.9341 -33.9341
   -33.8546 -33.8546 -33.8392 -33.8392 -33.8086 -33.8086 -28.0572 -28.0572
   -28.0509 -28.0509 -28.0485 -28.0484 -28.0422 -28.0422 -26.8181 -26.8181
   -26.8118 -26.8118 -26.8082 -26.8081 -26.8069 -26.8069 -26.8019 -26.8019
   -26.8007 -26.8007 -10.5801 -10.5801 -10.0555 -10.0555  -8.9719  -8.9719
    -6.2162  -6.2162  -4.8081  -4.8081  -0.4502  -0.4502   0.0152   0.0172
     0.3242   0.3267   0.5496   0.5533   0.5834   0.5855   0.8321   0.8365
     1.0474   1.0488   1.3503   1.3515   1.5788   1.5795   2.3037   2.3045
     2.8619   2.8629   3.1200   3.1214   3.4618   3.4642   4.1961   4.1970
     4.2687   4.2692   6.2744   6.2745   6.4643   6.4644   7.0312   7.0313
     7.6768   7.6770   7.7147   7.7150   7.8629   7.8630   8.5051   8.5052
     8.7137   8.7152   8.8375   8.8393   9.0369   9.0372   9.1785   9.1785
     9.7639   9.7640   9.8180   9.8183  10.0878  10.0879  10.2428  10.2430
    10.6372  10.6373  11.1625  11.1630  11.2966  11.2977  11.4799  11.4806
    11.7639  11.7648  11.8866  11.8874  12.8523  12.8523  12.9547  12.9547
    13.9157  13.9159  14.0389  14.0392  14.3327  14.3343  14.3927  14.3940
    14.5626  14.5628  15.2042  15.2043  15.7811  15.7812  15.9219  15.9221
    16.0913  16.0914  16.3500  16.3505  16.4106  16.4107  16.4860  16.4862
    16.8556  16.8560  16.9512  16.9515  17.1625  17.1626  17.1921  17.1921
    17.3416  17.3417  17.4866  17.4867  17.5440  17.5441  17.5760  17.5760
    17.7855  17.7855  17.8411  17.8412  17.9279  17.9279  18.1808  18.1810
    18.1975  18.1977  18.4539  18.4539  18.9036  18.9037  19.0083  19.0085
    19.1484  19.1487  19.2567  19.2568  19.5069  19.5071  19.5228  19.5231

          k = 0.0095 0.0166 0.0000 ( 23919 PWs)   bands (ev):

   -35.4358 -35.4358 -35.4278 -35.4278 -35.4097 -35.4097 -35.4017 -35.4017
   -35.3171 -35.3171 -35.2817 -35.2817 -33.9761 -33.9761 -33.9680 -33.9680
   -33.9539 -33.9539 -33.9459 -33.9459 -33.9422 -33.9421 -33.9341 -33.9341
   -33.8546 -33.8546 -33.8392 -33.8392 -33.8086 -33.8086 -28.0572 -28.0572
   -28.0509 -28.0509 -28.0484 -28.0484 -28.0422 -28.0422 -26.8181 -26.8181
   -26.8118 -26.8118 -26.8081 -26.8081 -26.8069 -26.8069 -26.8019 -26.8019
   -26.8007 -26.8007 -10.5831 -10.5831 -10.0582 -10.0582  -8.9736  -8.9736
    -6.2159  -6.2159  -4.8033  -4.8033  -0.4461  -0.4461   0.0485   0.0500
     0.3242   0.3262   0.5788   0.5800   0.6200   0.6230   0.8197   0.8238
     1.0253   1.0264   1.3724   1.3733   1.5529   1.5535   2.2723   2.2729
     2.8575   2.8582   3.1456   3.1469   3.4340   3.4359   4.1809   4.1815
     4.2694   4.2697   6.2689   6.2690   6.4629   6.4630   7.0298   7.0298
     7.6792   7.6793   7.7264   7.7266   7.8701   7.8702   8.4838   8.4838
     8.7193   8.7203   8.8515   8.8528   9.0365   9.0368   9.1807   9.1807
     9.7442   9.7444   9.7995   9.7997  10.0878  10.0878  10.2221  10.2223
    10.6163  10.6163  11.1826  11.1830  11.3268  11.3277  11.5148  11.5156
    11.7199  11.7206  11.8242  11.8250  12.8529  12.8529  12.9449  12.9450
    13.9711  13.9712  14.0991  14.0996  14.3018  14.3033  14.3731  14.3741
    14.5073  14.5074  15.1862  15.1863  15.8468  15.8469  15.9925  15.9928
    16.0932  16.0933  16.3231  16.3239  16.3796  16.3800  16.4520  16.4521
    16.8175  16.8177  17.0691  17.0692  17.2164  17.2164  17.2878  17.2879
    17.4269  17.4271  17.4773  17.4775  17.5509  17.5510  17.6124  17.6124
    17.7218  17.7219  17.7865  17.7866  17.8678  17.8678  18.0550  18.0551
    18.0986  18.0987  18.3592  18.3592  19.0201  19.0201  19.1249  19.1251
    19.2301  19.2305  19.3376  19.3377  19.4799  19.4800  19.5298  19.5299

          k = 0.0048 0.0083 0.0000 ( 23923 PWs)   bands (ev):

   -35.4358 -35.4358 -35.4278 -35.4278 -35.4097 -35.4097 -35.4017 -35.4017
   -35.3171 -35.3171 -35.2817 -35.2817 -33.9761 -33.9761 -33.9680 -33.9680
   -33.9539 -33.9539 -33.9459 -33.9459 -33.9421 -33.9421 -33.9341 -33.9341
   -33.8546 -33.8546 -33.8392 -33.8392 -33.8086 -33.8086 -28.0572 -28.0572
   -28.0509 -28.0509 -28.0484 -28.0484 -28.0422 -28.0422 -26.8182 -26.8182
   -26.8119 -26.8119 -26.8081 -26.8081 -26.8069 -26.8069 -26.8019 -26.8019
   -26.8007 -26.8007 -10.5848 -10.5848 -10.0599 -10.0599  -8.9747  -8.9747
    -6.2158  -6.2158  -4.8004  -4.8004  -0.4437  -0.4437   0.0703   0.0712
     0.3226   0.3237   0.5896   0.5901   0.6614   0.6641   0.8016   0.8047
     1.0111   1.0117   1.3875   1.3879   1.5374   1.5376   2.2513   2.2515
     2.8549   2.8553   3.1666   3.1675   3.4129   3.4141   4.1708   4.1712
     4.2706   4.2707   6.2656   6.2656   6.4621   6.4621   7.0289   7.0289
     7.6797   7.6798   7.7330   7.7330   7.8772   7.8773   8.4696   8.4697
     8.7223   8.7228   8.8599   8.8606   9.0378   9.0379   9.1833   9.1833
     9.7301   9.7302   9.7874   9.7875  10.0893  10.0893  10.2095  10.2096
    10.6038  10.6038  11.1942  11.1944  11.3472  11.3477  11.5575  11.5582
    11.6805  11.6810  11.7764  11.7769  12.8533  12.8533  12.9390  12.9391
    14.0143  14.0144  14.1478  14.1484  14.2711  14.2723  14.3565  14.3572
    14.4704  14.4705  15.1704  15.1704  15.8995  15.8996  16.0452  16.0456
    16.1075  16.1077  16.2755  16.2761  16.3629  16.3633  16.4275  16.4275
    16.7900  16.7901  17.1843  17.1844  17.2392  17.2392  17.3644  17.3645
    17.4398  17.4399  17.4920  17.4920  17.5724  17.5725  17.6217  17.6218
    17.7223  17.7224  17.7761  17.7762  17.7889  17.7889  17.9440  17.9440
    18.0285  18.0286  18.2929  18.2929  19.1277  19.1278  19.2230  19.2233
    19.2939  19.2943  19.3647  19.3649  19.4347  19.4349  19.5342  19.5343

          k = 0.0000 0.0000 0.0000 ( 23927 PWs)   bands (ev):

   -35.4358 -35.4358 -35.4278 -35.4278 -35.4097 -35.4097 -35.4017 -35.4017
   -35.3171 -35.3171 -35.2817 -35.2817 -33.9761 -33.9761 -33.9680 -33.9680
   -33.9539 -33.9539 -33.9459 -33.9459 -33.9421 -33.9421 -33.9341 -33.9341
   -33.8546 -33.8546 -33.8392 -33.8392 -33.8086 -33.8086 -28.0572 -28.0572
   -28.0509 -28.0509 -28.0484 -28.0484 -28.0422 -28.0422 -26.8182 -26.8182
   -26.8119 -26.8119 -26.8081 -26.8081 -26.8069 -26.8069 -26.8019 -26.8019
   -26.8007 -26.8007 -10.5854 -10.5854 -10.0604 -10.0604  -8.9750  -8.9750
    -6.2157  -6.2157  -4.7994  -4.7994  -0.4429  -0.4429   0.0783   0.0783
     0.3221   0.3221   0.5929   0.5929   0.6820   0.6820   0.7920   0.7920
     1.0064   1.0064   1.3928   1.3928   1.5324   1.5324   2.2439   2.2439
     2.8541   2.8541   3.1754   3.1754   3.4052   3.4052   4.1675   4.1675
     4.2712   4.2712   6.2645   6.2645   6.4618   6.4618   7.0286   7.0286
     7.6798   7.6798   7.7350   7.7350   7.8801   7.8801   8.4647   8.4647
     8.7234   8.7234   8.8629   8.8629   9.0386   9.0386   9.1844   9.1844
     9.7249   9.7249   9.7833   9.7833  10.0901  10.0901  10.2052  10.2052
    10.5997  10.5997  11.1981  11.1981  11.3544  11.3544  11.5862  11.5862
    11.6557  11.6557  11.7582  11.7582  12.8535  12.8535  12.9371  12.9371
    14.0318  14.0318  14.1704  14.1704  14.2551  14.2551  14.3492  14.3492
    14.4578  14.4578  15.1643  15.1643  15.9202  15.9202  16.0640  16.0640
    16.1218  16.1218  16.2499  16.2499  16.3537  16.3537  16.4198  16.4198
    16.7807  16.7807  17.2199  17.2199  17.2936  17.2936  17.3546  17.3546
    17.4270  17.4270  17.4897  17.4897  17.5942  17.5942  17.6764  17.6764
    17.6783  17.6783  17.7761  17.7761  17.7930  17.7930  17.8713  17.8713
    18.0027  18.0027  18.2691  18.2691  19.1837  19.1837  19.2795  19.2795
    19.3053  19.3053  19.3569  19.3569  19.4063  19.4063  19.5491  19.5491

     Writing all to output data dir tmp/Sb2Te3-uatsx-c5-soc-1.0.save/ :
     XML data file, pseudopotentials, collected wavefunctions

     init_run     :      1.30s CPU      1.29s WALL (       1 calls)
     electrons    :   5984.23s CPU   3217.53s WALL (       1 calls)

     Called by init_run:
     wfcinit      :      0.00s CPU      0.01s WALL (       1 calls)
     wfcinit:wfcr :    142.64s CPU     74.62s WALL (     211 calls)
     potinit      :      0.27s CPU      0.24s WALL (       1 calls)
     hinit0       :      0.84s CPU      0.86s WALL (       1 calls)

     Called by electrons:
     c_bands      :   5984.20s CPU   3217.50s WALL (       1 calls)
     v_of_rho     :      0.07s CPU      0.06s WALL (       1 calls)
     v_h          :      0.01s CPU      0.01s WALL (       1 calls)
     v_xc         :      0.07s CPU      0.05s WALL (       1 calls)

     Called by c_bands:
     init_us_2    :      0.37s CPU      0.29s WALL (     211 calls)
     cegterg      :   5828.85s CPU   3132.18s WALL (     717 calls)

     Called by sum_band:

     Called by *egterg:
     cdiaghg      :    869.34s CPU    549.74s WALL (   12501 calls)
     cegterg:over :    530.24s CPU    279.89s WALL (   12290 calls)
     cegterg:upda :    366.30s CPU    195.35s WALL (   12290 calls)
     cegterg:last :    594.90s CPU    322.44s WALL (    5826 calls)
     cdiaghg:chol :     58.13s CPU     33.61s WALL (   12501 calls)
     cdiaghg:inve :     11.69s CPU      8.59s WALL (   12501 calls)
     cdiaghg:para :    150.27s CPU     77.91s WALL (   25002 calls)
     h_psi        :   3494.67s CPU   1795.70s WALL (   13218 calls)
     g_psi        :     21.46s CPU     11.18s WALL (   12290 calls)

     Called by h_psi:
     h_psi:calbec :    160.90s CPU     88.41s WALL (   13218 calls)
     vloc_psi     :   3170.02s CPU   1608.69s WALL (   13218 calls)
     add_vuspsi   :    139.95s CPU     86.44s WALL (   13218 calls)

     General routines
     calbec       :    160.81s CPU     88.37s WALL (   13218 calls)
     fft          :      0.90s CPU      0.89s WALL (      17 calls)
     ffts         :      0.15s CPU      0.14s WALL (       4 calls)
     fftw         :   2371.09s CPU   1214.89s WALL ( 4790692 calls)
     interpolate  :      0.17s CPU      0.15s WALL (       4 calls)
     davcio       :      0.75s CPU      1.14s WALL (     422 calls)

     Parallel routines

     PWSCF        :      1h40m CPU  57m25.86s WALL


   This run was terminated on:  17:15:25  22Aug2025            

=------------------------------------------------------------------------------=
   JOB DONE.
=------------------------------------------------------------------------------=
