
     Program PWSCF v.7.4.1 starts on 22Aug2025 at 23:24:21 

     This program is part of the open-source Quantum ESPRESSO suite
     for quantum simulation of materials; please cite
         "P. Giannozzi et al., J. Phys.:Condens. Matter 21 395502 (2009);
         "P. Giannozzi et al., J. Phys.:Condens. Matter 29 465901 (2017);
         "P. Giannozzi et al., J. Chem. Phys. 152 154105 (2020);
          URL http://www.quantum-espresso.org", 
     in publications or presentations arising from this work. More details at
     http://www.quantum-espresso.org/quote

     Parallel version (MPI & OpenMP), running on      48 processor cores
     Number of MPI processes:                24
     Threads/MPI process:                     2

     MPI processes distributed on     2 nodes
     82692 MiB available memory on the printing compute node when the environment starts

     Waiting for input...
     Reading input from standard input

     Current dimensions of program PWSCF are:
     Max number of different atomic species (ntypx) = 10
     Max number of k-points (npk) =  40000
     Max angular momentum in pseudopotentials (lmaxx) =  4
     file Sb.rel-pbe-n-rrkjus_psl.1.0.0.UPF: wavefunction(s)  5S renormalized
     file Te.rel-pbe-n-rrkjus_psl.1.0.0.UPF: wavefunction(s)  5S renormalized

     IMPORTANT: XC functional enforced from input :
     Exchange-correlation= PBE
                           (   1   4   3   4   0   0   0)
     Any further DFT definition will be discarded
     Please, verify this is what you really want


     Atomic positions and unit cell read from directory:
     tmp/Sb2Te3-uatsx-c6-soc-4.0.save/


     R & G space division:  proc/nbgrp/npool/nimage =      24
     Subspace diagonalization in iterative solution of the eigenvalue problem:
     a serial algorithm will be used


     Parallelization info
     --------------------
     sticks:   dense  smooth     PW     G-vecs:    dense   smooth      PW
     Min          99      39     11                19681     4971     755
     Max         100      40     12                19687     4990     769
     Sum        2379     953    269               472441   119521   18333

     Using Slab Decomposition



     bravais-lattice index     =            0
     lattice parameter (alat)  =       8.4715  a.u.
     unit-cell volume          =    2502.8602 (a.u.)^3
     number of atoms/cell      =            5
     number of atomic types    =            2
     number of electrons       =        28.00
     number of Kohn-Sham states=          100
     kinetic-energy cutoff     =      50.0000  Ry
     charge density cutoff     =     500.0000  Ry
     Exchange-correlation= PBE
                           (   1   4   3   4   0   0   0)
     Non magnetic calculation with spin-orbit


     celldm(1)=   8.471459  celldm(2)=   0.000000  celldm(3)=   0.000000
     celldm(4)=   0.000000  celldm(5)=   0.000000  celldm(6)=   0.000000

     crystal axes: (cart. coord. in units of alat)
               a(1) = (   1.000000   0.000000   0.000000 )  
               a(2) = (  -0.480769   0.832709   0.000000 )  
               a(3) = (   0.000000   0.000000   4.943891 )  

     reciprocal axes: (cart. coord. in units 2 pi/alat)
               b(1) = (  1.000000  0.577356 -0.000000 )  
               b(2) = (  0.000000  1.200900  0.000000 )  
               b(3) = (  0.000000 -0.000000  0.202270 )  


     PseudoPot. # 1 for Sb read from file:
     /zfs-home/202401017n1/pseudos/Sb.rel-pbe-n-rrkjus_psl.1.0.0.UPF
     MD5 check sum: c1afc134568783a62b80e43a202109b2
     Pseudo is Ultrasoft + core correction, Zval =  5.0
     Generated using &quot;atomic&quot; code by A. Dal Corso  v.6.2.2
     Using radial grid of 1243 points, 10 beta functions with: 
                l(1) =   0
                l(2) =   0
                l(3) =   1
                l(4) =   1
                l(5) =   1
                l(6) =   1
                l(7) =   2
                l(8) =   2
                l(9) =   2
               l(10) =   2
     Q(r) pseudized with 0 coefficients 


     PseudoPot. # 2 for Te read from file:
     /zfs-home/202401017n1/pseudos/Te.rel-pbe-n-rrkjus_psl.1.0.0.UPF
     MD5 check sum: 7fd30b6833abd190471e4dcc2367351b
     Pseudo is Ultrasoft + core correction, Zval =  6.0
     Generated using &quot;atomic&quot; code by A. Dal Corso  v.6.3
     Using radial grid of 1245 points, 10 beta functions with: 
                l(1) =   0
                l(2) =   0
                l(3) =   1
                l(4) =   1
                l(5) =   1
                l(6) =   1
                l(7) =   2
                l(8) =   2
                l(9) =   2
               l(10) =   2
     Q(r) pseudized with 0 coefficients 


     atomic species   valence    mass     pseudopotential
     Sb                5.00   121.76000     Sb( 1.00)
     Te                6.00   127.60000     Te( 1.00)

     No symmetry found


                                    s                        frac. trans.

      isym =  1     identity                                     

 cryst.   s( 1) = (     1          0          0      )
                  (     0          1          0      )
                  (     0          0          1      )

 cart.    s( 1) = (  1.0000000  0.0000000  0.0000000 )
                  (  0.0000000  1.0000000  0.0000000 )
                  (  0.0000000  0.0000000  1.0000000 )


   Cartesian axes

     site n.     atom                  positions (alat units)
         1        Sb     tau(   1) = (   0.5904646   0.4157527   2.9115514  )
         2        Te     tau(   2) = (   0.5755298   0.3904446   1.6605492  )
         3        Sb     tau(   3) = (   0.0721083   0.1184920   2.0322939  )
         4        Te     tau(   4) = (   0.0869606   0.1439524   3.2833161  )
         5        Te     tau(   5) = (   0.0908738   0.6835524   2.4719228  )

     -------------------------------------------------
     Parameters for Dispersion (Grimme-D2) Correction:
     -------------------------------------------------
       atom      VdW radius       C_6     

        Sb         3.555       1333.532
        Te         3.575       1101.101

   Crystallographic axes

     site n.     atom                  positions (cryst. coord.)
         1        Sb     tau(   1) = (  0.8305018  0.4992775  0.5889190  )
         2        Te     tau(   2) = (  0.8009552  0.4688850  0.3358790  )
         3        Sb     tau(   3) = (  0.1405204  0.1422971  0.4110717  )
         4        Te     tau(   4) = (  0.1700723  0.1728725  0.6641158  )
         5        Te     tau(   5) = (  0.4855268  0.8208782  0.4999954  )

     number of k points=   211
                       cart. coord. in units 2pi/alat
        k(    1) = (   0.0000000   0.0000000   0.0000000), wk =   0.0047393
        k(    2) = (   0.0071429   0.0041240   0.0000000), wk =   0.0047393
        k(    3) = (   0.0142857   0.0082479   0.0000000), wk =   0.0047393
        k(    4) = (   0.0214286   0.0123719   0.0000000), wk =   0.0047393
        k(    5) = (   0.0285714   0.0164959   0.0000000), wk =   0.0047393
        k(    6) = (   0.0357143   0.0206199   0.0000000), wk =   0.0047393
        k(    7) = (   0.0428571   0.0247438   0.0000000), wk =   0.0047393
        k(    8) = (   0.0500000   0.0288678   0.0000000), wk =   0.0047393
        k(    9) = (   0.0571429   0.0329918   0.0000000), wk =   0.0047393
        k(   10) = (   0.0642857   0.0371157   0.0000000), wk =   0.0047393
        k(   11) = (   0.0714286   0.0412397   0.0000000), wk =   0.0047393
        k(   12) = (   0.0785714   0.0453637   0.0000000), wk =   0.0047393
        k(   13) = (   0.0857143   0.0494876   0.0000000), wk =   0.0047393
        k(   14) = (   0.0928571   0.0536116   0.0000000), wk =   0.0047393
        k(   15) = (   0.1000000   0.0577356   0.0000000), wk =   0.0047393
        k(   16) = (   0.1071429   0.0618596   0.0000000), wk =   0.0047393
        k(   17) = (   0.1142857   0.0659835   0.0000000), wk =   0.0047393
        k(   18) = (   0.1214286   0.0701075   0.0000000), wk =   0.0047393
        k(   19) = (   0.1285714   0.0742315   0.0000000), wk =   0.0047393
        k(   20) = (   0.1357143   0.0783554   0.0000000), wk =   0.0047393
        k(   21) = (   0.1428571   0.0824794   0.0000000), wk =   0.0047393
        k(   22) = (   0.1500000   0.0866034   0.0000000), wk =   0.0047393
        k(   23) = (   0.1571429   0.0907273   0.0000000), wk =   0.0047393
        k(   24) = (   0.1642857   0.0948513   0.0000000), wk =   0.0047393
        k(   25) = (   0.1714286   0.0989753   0.0000000), wk =   0.0047393
        k(   26) = (   0.1785714   0.1030993   0.0000000), wk =   0.0047393
        k(   27) = (   0.1857143   0.1072232   0.0000000), wk =   0.0047393
        k(   28) = (   0.1928571   0.1113472   0.0000000), wk =   0.0047393
        k(   29) = (   0.2000000   0.1154712   0.0000000), wk =   0.0047393
        k(   30) = (   0.2071429   0.1195951   0.0000000), wk =   0.0047393
        k(   31) = (   0.2142857   0.1237191   0.0000000), wk =   0.0047393
        k(   32) = (   0.2214286   0.1278431   0.0000000), wk =   0.0047393
        k(   33) = (   0.2285714   0.1319671   0.0000000), wk =   0.0047393
        k(   34) = (   0.2357143   0.1360910   0.0000000), wk =   0.0047393
        k(   35) = (   0.2428571   0.1402150   0.0000000), wk =   0.0047393
        k(   36) = (   0.2500000   0.1443390   0.0000000), wk =   0.0047393
        k(   37) = (   0.2571429   0.1484629   0.0000000), wk =   0.0047393
        k(   38) = (   0.2642857   0.1525869   0.0000000), wk =   0.0047393
        k(   39) = (   0.2714286   0.1567109   0.0000000), wk =   0.0047393
        k(   40) = (   0.2785714   0.1608348   0.0000000), wk =   0.0047393
        k(   41) = (   0.2857143   0.1649588   0.0000000), wk =   0.0047393
        k(   42) = (   0.2928571   0.1690828   0.0000000), wk =   0.0047393
        k(   43) = (   0.3000000   0.1732068   0.0000000), wk =   0.0047393
        k(   44) = (   0.3071429   0.1773307   0.0000000), wk =   0.0047393
        k(   45) = (   0.3142857   0.1814547   0.0000000), wk =   0.0047393
        k(   46) = (   0.3214286   0.1855787   0.0000000), wk =   0.0047393
        k(   47) = (   0.3285714   0.1897026   0.0000000), wk =   0.0047393
        k(   48) = (   0.3357143   0.1938266   0.0000000), wk =   0.0047393
        k(   49) = (   0.3428571   0.1979506   0.0000000), wk =   0.0047393
        k(   50) = (   0.3500000   0.2020745   0.0000000), wk =   0.0047393
        k(   51) = (   0.3571429   0.2061985   0.0000000), wk =   0.0047393
        k(   52) = (   0.3642857   0.2103225   0.0000000), wk =   0.0047393
        k(   53) = (   0.3714286   0.2144465   0.0000000), wk =   0.0047393
        k(   54) = (   0.3785714   0.2185704   0.0000000), wk =   0.0047393
        k(   55) = (   0.3857143   0.2226944   0.0000000), wk =   0.0047393
        k(   56) = (   0.3928571   0.2268184   0.0000000), wk =   0.0047393
        k(   57) = (   0.4000000   0.2309423   0.0000000), wk =   0.0047393
        k(   58) = (   0.4071429   0.2350663   0.0000000), wk =   0.0047393
        k(   59) = (   0.4142857   0.2391903   0.0000000), wk =   0.0047393
        k(   60) = (   0.4214286   0.2433143   0.0000000), wk =   0.0047393
        k(   61) = (   0.4285714   0.2474382   0.0000000), wk =   0.0047393
        k(   62) = (   0.4357143   0.2515622   0.0000000), wk =   0.0047393
        k(   63) = (   0.4428571   0.2556862   0.0000000), wk =   0.0047393
        k(   64) = (   0.4500000   0.2598101   0.0000000), wk =   0.0047393
        k(   65) = (   0.4571429   0.2639341   0.0000000), wk =   0.0047393
        k(   66) = (   0.4642857   0.2680581   0.0000000), wk =   0.0047393
        k(   67) = (   0.4714286   0.2721820   0.0000000), wk =   0.0047393
        k(   68) = (   0.4785714   0.2763060   0.0000000), wk =   0.0047393
        k(   69) = (   0.4857143   0.2804300   0.0000000), wk =   0.0047393
        k(   70) = (   0.4928571   0.2845540   0.0000000), wk =   0.0047393
        k(   71) = (   0.5000000   0.2886779   0.0000000), wk =   0.0047393
        k(   72) = (   0.4976190   0.2930218   0.0000000), wk =   0.0047393
        k(   73) = (   0.4952381   0.2973658   0.0000000), wk =   0.0047393
        k(   74) = (   0.4928571   0.3017097   0.0000000), wk =   0.0047393
        k(   75) = (   0.4904762   0.3060536   0.0000000), wk =   0.0047393
        k(   76) = (   0.4880952   0.3103975   0.0000000), wk =   0.0047393
        k(   77) = (   0.4857143   0.3147414   0.0000000), wk =   0.0047393
        k(   78) = (   0.4833333   0.3190853   0.0000000), wk =   0.0047393
        k(   79) = (   0.4809524   0.3234293   0.0000000), wk =   0.0047393
        k(   80) = (   0.4785714   0.3277732   0.0000000), wk =   0.0047393
        k(   81) = (   0.4761905   0.3321171   0.0000000), wk =   0.0047393
        k(   82) = (   0.4738095   0.3364610   0.0000000), wk =   0.0047393
        k(   83) = (   0.4714286   0.3408049   0.0000000), wk =   0.0047393
        k(   84) = (   0.4690476   0.3451488   0.0000000), wk =   0.0047393
        k(   85) = (   0.4666667   0.3494927   0.0000000), wk =   0.0047393
        k(   86) = (   0.4642857   0.3538367   0.0000000), wk =   0.0047393
        k(   87) = (   0.4619048   0.3581806   0.0000000), wk =   0.0047393
        k(   88) = (   0.4595238   0.3625245   0.0000000), wk =   0.0047393
        k(   89) = (   0.4571429   0.3668684   0.0000000), wk =   0.0047393
        k(   90) = (   0.4547619   0.3712123   0.0000000), wk =   0.0047393
        k(   91) = (   0.4523810   0.3755562   0.0000000), wk =   0.0047393
        k(   92) = (   0.4500000   0.3799002   0.0000000), wk =   0.0047393
        k(   93) = (   0.4476190   0.3842441   0.0000000), wk =   0.0047393
        k(   94) = (   0.4452381   0.3885880   0.0000000), wk =   0.0047393
        k(   95) = (   0.4428571   0.3929319   0.0000000), wk =   0.0047393
        k(   96) = (   0.4404762   0.3972758   0.0000000), wk =   0.0047393
        k(   97) = (   0.4380952   0.4016197   0.0000000), wk =   0.0047393
        k(   98) = (   0.4357143   0.4059636   0.0000000), wk =   0.0047393
        k(   99) = (   0.4333333   0.4103076   0.0000000), wk =   0.0047393
        k(  100) = (   0.4309524   0.4146515   0.0000000), wk =   0.0047393
        k(  101) = (   0.4285714   0.4189954   0.0000000), wk =   0.0047393
        k(  102) = (   0.4261905   0.4233393   0.0000000), wk =   0.0047393
        k(  103) = (   0.4238095   0.4276832   0.0000000), wk =   0.0047393
        k(  104) = (   0.4214286   0.4320271   0.0000000), wk =   0.0047393
        k(  105) = (   0.4190476   0.4363711   0.0000000), wk =   0.0047393
        k(  106) = (   0.4166667   0.4407150   0.0000000), wk =   0.0047393
        k(  107) = (   0.4142857   0.4450589   0.0000000), wk =   0.0047393
        k(  108) = (   0.4119048   0.4494028   0.0000000), wk =   0.0047393
        k(  109) = (   0.4095238   0.4537467   0.0000000), wk =   0.0047393
        k(  110) = (   0.4071429   0.4580906   0.0000000), wk =   0.0047393
        k(  111) = (   0.4047619   0.4624345   0.0000000), wk =   0.0047393
        k(  112) = (   0.4023810   0.4667785   0.0000000), wk =   0.0047393
        k(  113) = (   0.4000000   0.4711224   0.0000000), wk =   0.0047393
        k(  114) = (   0.3976190   0.4754663   0.0000000), wk =   0.0047393
        k(  115) = (   0.3952381   0.4798102   0.0000000), wk =   0.0047393
        k(  116) = (   0.3928571   0.4841541   0.0000000), wk =   0.0047393
        k(  117) = (   0.3904762   0.4884980   0.0000000), wk =   0.0047393
        k(  118) = (   0.3880952   0.4928420   0.0000000), wk =   0.0047393
        k(  119) = (   0.3857143   0.4971859   0.0000000), wk =   0.0047393
        k(  120) = (   0.3833333   0.5015298   0.0000000), wk =   0.0047393
        k(  121) = (   0.3809524   0.5058737   0.0000000), wk =   0.0047393
        k(  122) = (   0.3785714   0.5102176   0.0000000), wk =   0.0047393
        k(  123) = (   0.3761905   0.5145615   0.0000000), wk =   0.0047393
        k(  124) = (   0.3738095   0.5189054   0.0000000), wk =   0.0047393
        k(  125) = (   0.3714286   0.5232494   0.0000000), wk =   0.0047393
        k(  126) = (   0.3690476   0.5275933   0.0000000), wk =   0.0047393
        k(  127) = (   0.3666667   0.5319372   0.0000000), wk =   0.0047393
        k(  128) = (   0.3642857   0.5362811   0.0000000), wk =   0.0047393
        k(  129) = (   0.3619048   0.5406250   0.0000000), wk =   0.0047393
        k(  130) = (   0.3595238   0.5449689   0.0000000), wk =   0.0047393
        k(  131) = (   0.3571429   0.5493129   0.0000000), wk =   0.0047393
        k(  132) = (   0.3547619   0.5536568   0.0000000), wk =   0.0047393
        k(  133) = (   0.3523810   0.5580007   0.0000000), wk =   0.0047393
        k(  134) = (   0.3500000   0.5623446   0.0000000), wk =   0.0047393
        k(  135) = (   0.3476190   0.5666885   0.0000000), wk =   0.0047393
        k(  136) = (   0.3452381   0.5710324   0.0000000), wk =   0.0047393
        k(  137) = (   0.3428571   0.5753763   0.0000000), wk =   0.0047393
        k(  138) = (   0.3404762   0.5797203   0.0000000), wk =   0.0047393
        k(  139) = (   0.3380952   0.5840642   0.0000000), wk =   0.0047393
        k(  140) = (   0.3357143   0.5884081   0.0000000), wk =   0.0047393
        k(  141) = (   0.3333333   0.5927520   0.0000000), wk =   0.0047393
        k(  142) = (   0.3285714   0.5842841   0.0000000), wk =   0.0047393
        k(  143) = (   0.3238095   0.5758162   0.0000000), wk =   0.0047393
        k(  144) = (   0.3190476   0.5673484   0.0000000), wk =   0.0047393
        k(  145) = (   0.3142857   0.5588805   0.0000000), wk =   0.0047393
        k(  146) = (   0.3095238   0.5504126   0.0000000), wk =   0.0047393
        k(  147) = (   0.3047619   0.5419447   0.0000000), wk =   0.0047393
        k(  148) = (   0.3000000   0.5334768   0.0000000), wk =   0.0047393
        k(  149) = (   0.2952381   0.5250089   0.0000000), wk =   0.0047393
        k(  150) = (   0.2904762   0.5165410   0.0000000), wk =   0.0047393
        k(  151) = (   0.2857143   0.5080732   0.0000000), wk =   0.0047393
        k(  152) = (   0.2809524   0.4996053   0.0000000), wk =   0.0047393
        k(  153) = (   0.2761905   0.4911374   0.0000000), wk =   0.0047393
        k(  154) = (   0.2714286   0.4826695   0.0000000), wk =   0.0047393
        k(  155) = (   0.2666667   0.4742016   0.0000000), wk =   0.0047393
        k(  156) = (   0.2619048   0.4657337   0.0000000), wk =   0.0047393
        k(  157) = (   0.2571429   0.4572658   0.0000000), wk =   0.0047393
        k(  158) = (   0.2523810   0.4487979   0.0000000), wk =   0.0047393
        k(  159) = (   0.2476190   0.4403301   0.0000000), wk =   0.0047393
        k(  160) = (   0.2428571   0.4318622   0.0000000), wk =   0.0047393
        k(  161) = (   0.2380952   0.4233943   0.0000000), wk =   0.0047393
        k(  162) = (   0.2333333   0.4149264   0.0000000), wk =   0.0047393
        k(  163) = (   0.2285714   0.4064585   0.0000000), wk =   0.0047393
        k(  164) = (   0.2238095   0.3979906   0.0000000), wk =   0.0047393
        k(  165) = (   0.2190476   0.3895227   0.0000000), wk =   0.0047393
        k(  166) = (   0.2142857   0.3810549   0.0000000), wk =   0.0047393
        k(  167) = (   0.2095238   0.3725870   0.0000000), wk =   0.0047393
        k(  168) = (   0.2047619   0.3641191   0.0000000), wk =   0.0047393
        k(  169) = (   0.2000000   0.3556512   0.0000000), wk =   0.0047393
        k(  170) = (   0.1952381   0.3471833   0.0000000), wk =   0.0047393
        k(  171) = (   0.1904762   0.3387154   0.0000000), wk =   0.0047393
        k(  172) = (   0.1857143   0.3302475   0.0000000), wk =   0.0047393
        k(  173) = (   0.1809524   0.3217797   0.0000000), wk =   0.0047393
        k(  174) = (   0.1761905   0.3133118   0.0000000), wk =   0.0047393
        k(  175) = (   0.1714286   0.3048439   0.0000000), wk =   0.0047393
        k(  176) = (   0.1666667   0.2963760   0.0000000), wk =   0.0047393
        k(  177) = (   0.1619048   0.2879081   0.0000000), wk =   0.0047393
        k(  178) = (   0.1571429   0.2794402   0.0000000), wk =   0.0047393
        k(  179) = (   0.1523810   0.2709723   0.0000000), wk =   0.0047393
        k(  180) = (   0.1476190   0.2625045   0.0000000), wk =   0.0047393
        k(  181) = (   0.1428571   0.2540366   0.0000000), wk =   0.0047393
        k(  182) = (   0.1380952   0.2455687   0.0000000), wk =   0.0047393
        k(  183) = (   0.1333333   0.2371008   0.0000000), wk =   0.0047393
        k(  184) = (   0.1285714   0.2286329   0.0000000), wk =   0.0047393
        k(  185) = (   0.1238095   0.2201650   0.0000000), wk =   0.0047393
        k(  186) = (   0.1190476   0.2116971   0.0000000), wk =   0.0047393
        k(  187) = (   0.1142857   0.2032293   0.0000000), wk =   0.0047393
        k(  188) = (   0.1095238   0.1947614   0.0000000), wk =   0.0047393
        k(  189) = (   0.1047619   0.1862935   0.0000000), wk =   0.0047393
        k(  190) = (   0.1000000   0.1778256   0.0000000), wk =   0.0047393
        k(  191) = (   0.0952381   0.1693577   0.0000000), wk =   0.0047393
        k(  192) = (   0.0904762   0.1608898   0.0000000), wk =   0.0047393
        k(  193) = (   0.0857143   0.1524219   0.0000000), wk =   0.0047393
        k(  194) = (   0.0809524   0.1439541   0.0000000), wk =   0.0047393
        k(  195) = (   0.0761905   0.1354862   0.0000000), wk =   0.0047393
        k(  196) = (   0.0714286   0.1270183   0.0000000), wk =   0.0047393
        k(  197) = (   0.0666667   0.1185504   0.0000000), wk =   0.0047393
        k(  198) = (   0.0619048   0.1100825   0.0000000), wk =   0.0047393
        k(  199) = (   0.0571429   0.1016146   0.0000000), wk =   0.0047393
        k(  200) = (   0.0523810   0.0931467   0.0000000), wk =   0.0047393
        k(  201) = (   0.0476190   0.0846789   0.0000000), wk =   0.0047393
        k(  202) = (   0.0428571   0.0762110   0.0000000), wk =   0.0047393
        k(  203) = (   0.0380952   0.0677431   0.0000000), wk =   0.0047393
        k(  204) = (   0.0333333   0.0592752   0.0000000), wk =   0.0047393
        k(  205) = (   0.0285714   0.0508073   0.0000000), wk =   0.0047393
        k(  206) = (   0.0238095   0.0423394   0.0000000), wk =   0.0047393
        k(  207) = (   0.0190476   0.0338715   0.0000000), wk =   0.0047393
        k(  208) = (   0.0142857   0.0254037   0.0000000), wk =   0.0047393
        k(  209) = (   0.0095238   0.0169358   0.0000000), wk =   0.0047393
        k(  210) = (   0.0047619   0.0084679   0.0000000), wk =   0.0047393
        k(  211) = (   0.0000000   0.0000000   0.0000000), wk =   0.0047393

                       cryst. coord.
        k(    1) = (   0.0000000   0.0000000   0.0000000), wk =   0.0047393
        k(    2) = (   0.0071429   0.0000000   0.0000000), wk =   0.0047393
        k(    3) = (   0.0142857   0.0000000   0.0000000), wk =   0.0047393
        k(    4) = (   0.0214286   0.0000000   0.0000000), wk =   0.0047393
        k(    5) = (   0.0285714   0.0000000   0.0000000), wk =   0.0047393
        k(    6) = (   0.0357143   0.0000000   0.0000000), wk =   0.0047393
        k(    7) = (   0.0428571   0.0000000   0.0000000), wk =   0.0047393
        k(    8) = (   0.0500000   0.0000000   0.0000000), wk =   0.0047393
        k(    9) = (   0.0571429   0.0000000   0.0000000), wk =   0.0047393
        k(   10) = (   0.0642857   0.0000000   0.0000000), wk =   0.0047393
        k(   11) = (   0.0714286   0.0000000   0.0000000), wk =   0.0047393
        k(   12) = (   0.0785714   0.0000000   0.0000000), wk =   0.0047393
        k(   13) = (   0.0857143   0.0000000   0.0000000), wk =   0.0047393
        k(   14) = (   0.0928571   0.0000000   0.0000000), wk =   0.0047393
        k(   15) = (   0.1000000   0.0000000   0.0000000), wk =   0.0047393
        k(   16) = (   0.1071429   0.0000000   0.0000000), wk =   0.0047393
        k(   17) = (   0.1142857   0.0000000   0.0000000), wk =   0.0047393
        k(   18) = (   0.1214286   0.0000000   0.0000000), wk =   0.0047393
        k(   19) = (   0.1285714   0.0000000   0.0000000), wk =   0.0047393
        k(   20) = (   0.1357143   0.0000000   0.0000000), wk =   0.0047393
        k(   21) = (   0.1428571   0.0000000   0.0000000), wk =   0.0047393
        k(   22) = (   0.1500000   0.0000000   0.0000000), wk =   0.0047393
        k(   23) = (   0.1571429   0.0000000   0.0000000), wk =   0.0047393
        k(   24) = (   0.1642857   0.0000000   0.0000000), wk =   0.0047393
        k(   25) = (   0.1714286   0.0000000   0.0000000), wk =   0.0047393
        k(   26) = (   0.1785714   0.0000000   0.0000000), wk =   0.0047393
        k(   27) = (   0.1857143   0.0000000   0.0000000), wk =   0.0047393
        k(   28) = (   0.1928571   0.0000000   0.0000000), wk =   0.0047393
        k(   29) = (   0.2000000   0.0000000   0.0000000), wk =   0.0047393
        k(   30) = (   0.2071429   0.0000000   0.0000000), wk =   0.0047393
        k(   31) = (   0.2142857   0.0000000   0.0000000), wk =   0.0047393
        k(   32) = (   0.2214286   0.0000000   0.0000000), wk =   0.0047393
        k(   33) = (   0.2285714   0.0000000   0.0000000), wk =   0.0047393
        k(   34) = (   0.2357143   0.0000000   0.0000000), wk =   0.0047393
        k(   35) = (   0.2428571   0.0000000   0.0000000), wk =   0.0047393
        k(   36) = (   0.2500000   0.0000000   0.0000000), wk =   0.0047393
        k(   37) = (   0.2571429   0.0000000   0.0000000), wk =   0.0047393
        k(   38) = (   0.2642857   0.0000000   0.0000000), wk =   0.0047393
        k(   39) = (   0.2714286   0.0000000   0.0000000), wk =   0.0047393
        k(   40) = (   0.2785714   0.0000000   0.0000000), wk =   0.0047393
        k(   41) = (   0.2857143   0.0000000   0.0000000), wk =   0.0047393
        k(   42) = (   0.2928571   0.0000000   0.0000000), wk =   0.0047393
        k(   43) = (   0.3000000   0.0000000   0.0000000), wk =   0.0047393
        k(   44) = (   0.3071429   0.0000000   0.0000000), wk =   0.0047393
        k(   45) = (   0.3142857   0.0000000   0.0000000), wk =   0.0047393
        k(   46) = (   0.3214286   0.0000000   0.0000000), wk =   0.0047393
        k(   47) = (   0.3285714   0.0000000   0.0000000), wk =   0.0047393
        k(   48) = (   0.3357143   0.0000000   0.0000000), wk =   0.0047393
        k(   49) = (   0.3428571   0.0000000   0.0000000), wk =   0.0047393
        k(   50) = (   0.3500000   0.0000000   0.0000000), wk =   0.0047393
        k(   51) = (   0.3571429   0.0000000   0.0000000), wk =   0.0047393
        k(   52) = (   0.3642857   0.0000000   0.0000000), wk =   0.0047393
        k(   53) = (   0.3714286   0.0000000   0.0000000), wk =   0.0047393
        k(   54) = (   0.3785714   0.0000000   0.0000000), wk =   0.0047393
        k(   55) = (   0.3857143   0.0000000   0.0000000), wk =   0.0047393
        k(   56) = (   0.3928571   0.0000000   0.0000000), wk =   0.0047393
        k(   57) = (   0.4000000   0.0000000   0.0000000), wk =   0.0047393
        k(   58) = (   0.4071429   0.0000000   0.0000000), wk =   0.0047393
        k(   59) = (   0.4142857   0.0000000   0.0000000), wk =   0.0047393
        k(   60) = (   0.4214286   0.0000000   0.0000000), wk =   0.0047393
        k(   61) = (   0.4285714   0.0000000   0.0000000), wk =   0.0047393
        k(   62) = (   0.4357143   0.0000000   0.0000000), wk =   0.0047393
        k(   63) = (   0.4428571   0.0000000   0.0000000), wk =   0.0047393
        k(   64) = (   0.4500000   0.0000000   0.0000000), wk =   0.0047393
        k(   65) = (   0.4571429   0.0000000   0.0000000), wk =   0.0047393
        k(   66) = (   0.4642857   0.0000000   0.0000000), wk =   0.0047393
        k(   67) = (   0.4714286   0.0000000   0.0000000), wk =   0.0047393
        k(   68) = (   0.4785714   0.0000000   0.0000000), wk =   0.0047393
        k(   69) = (   0.4857143   0.0000000   0.0000000), wk =   0.0047393
        k(   70) = (   0.4928571   0.0000000   0.0000000), wk =   0.0047393
        k(   71) = (   0.5000000   0.0000000   0.0000000), wk =   0.0047393
        k(   72) = (   0.4976190   0.0047619   0.0000000), wk =   0.0047393
        k(   73) = (   0.4952381   0.0095238   0.0000000), wk =   0.0047393
        k(   74) = (   0.4928571   0.0142857   0.0000000), wk =   0.0047393
        k(   75) = (   0.4904762   0.0190476   0.0000000), wk =   0.0047393
        k(   76) = (   0.4880952   0.0238095   0.0000000), wk =   0.0047393
        k(   77) = (   0.4857143   0.0285714   0.0000000), wk =   0.0047393
        k(   78) = (   0.4833333   0.0333333   0.0000000), wk =   0.0047393
        k(   79) = (   0.4809524   0.0380952   0.0000000), wk =   0.0047393
        k(   80) = (   0.4785714   0.0428571   0.0000000), wk =   0.0047393
        k(   81) = (   0.4761905   0.0476190   0.0000000), wk =   0.0047393
        k(   82) = (   0.4738095   0.0523810   0.0000000), wk =   0.0047393
        k(   83) = (   0.4714286   0.0571429   0.0000000), wk =   0.0047393
        k(   84) = (   0.4690476   0.0619048   0.0000000), wk =   0.0047393
        k(   85) = (   0.4666667   0.0666667   0.0000000), wk =   0.0047393
        k(   86) = (   0.4642857   0.0714286   0.0000000), wk =   0.0047393
        k(   87) = (   0.4619048   0.0761905   0.0000000), wk =   0.0047393
        k(   88) = (   0.4595238   0.0809524   0.0000000), wk =   0.0047393
        k(   89) = (   0.4571429   0.0857143   0.0000000), wk =   0.0047393
        k(   90) = (   0.4547619   0.0904762   0.0000000), wk =   0.0047393
        k(   91) = (   0.4523810   0.0952381   0.0000000), wk =   0.0047393
        k(   92) = (   0.4500000   0.1000000   0.0000000), wk =   0.0047393
        k(   93) = (   0.4476190   0.1047619   0.0000000), wk =   0.0047393
        k(   94) = (   0.4452381   0.1095238   0.0000000), wk =   0.0047393
        k(   95) = (   0.4428571   0.1142857   0.0000000), wk =   0.0047393
        k(   96) = (   0.4404762   0.1190476   0.0000000), wk =   0.0047393
        k(   97) = (   0.4380952   0.1238095   0.0000000), wk =   0.0047393
        k(   98) = (   0.4357143   0.1285714   0.0000000), wk =   0.0047393
        k(   99) = (   0.4333333   0.1333333   0.0000000), wk =   0.0047393
        k(  100) = (   0.4309524   0.1380952   0.0000000), wk =   0.0047393
        k(  101) = (   0.4285714   0.1428571   0.0000000), wk =   0.0047393
        k(  102) = (   0.4261905   0.1476190   0.0000000), wk =   0.0047393
        k(  103) = (   0.4238095   0.1523810   0.0000000), wk =   0.0047393
        k(  104) = (   0.4214286   0.1571429   0.0000000), wk =   0.0047393
        k(  105) = (   0.4190476   0.1619048   0.0000000), wk =   0.0047393
        k(  106) = (   0.4166667   0.1666667   0.0000000), wk =   0.0047393
        k(  107) = (   0.4142857   0.1714286   0.0000000), wk =   0.0047393
        k(  108) = (   0.4119048   0.1761905   0.0000000), wk =   0.0047393
        k(  109) = (   0.4095238   0.1809524   0.0000000), wk =   0.0047393
        k(  110) = (   0.4071429   0.1857143   0.0000000), wk =   0.0047393
        k(  111) = (   0.4047619   0.1904762   0.0000000), wk =   0.0047393
        k(  112) = (   0.4023810   0.1952381   0.0000000), wk =   0.0047393
        k(  113) = (   0.4000000   0.2000000   0.0000000), wk =   0.0047393
        k(  114) = (   0.3976190   0.2047619   0.0000000), wk =   0.0047393
        k(  115) = (   0.3952381   0.2095238   0.0000000), wk =   0.0047393
        k(  116) = (   0.3928571   0.2142857   0.0000000), wk =   0.0047393
        k(  117) = (   0.3904762   0.2190476   0.0000000), wk =   0.0047393
        k(  118) = (   0.3880952   0.2238095   0.0000000), wk =   0.0047393
        k(  119) = (   0.3857143   0.2285714   0.0000000), wk =   0.0047393
        k(  120) = (   0.3833333   0.2333333   0.0000000), wk =   0.0047393
        k(  121) = (   0.3809524   0.2380952   0.0000000), wk =   0.0047393
        k(  122) = (   0.3785714   0.2428571   0.0000000), wk =   0.0047393
        k(  123) = (   0.3761905   0.2476190   0.0000000), wk =   0.0047393
        k(  124) = (   0.3738095   0.2523810   0.0000000), wk =   0.0047393
        k(  125) = (   0.3714286   0.2571429   0.0000000), wk =   0.0047393
        k(  126) = (   0.3690476   0.2619048   0.0000000), wk =   0.0047393
        k(  127) = (   0.3666667   0.2666667   0.0000000), wk =   0.0047393
        k(  128) = (   0.3642857   0.2714286   0.0000000), wk =   0.0047393
        k(  129) = (   0.3619048   0.2761905   0.0000000), wk =   0.0047393
        k(  130) = (   0.3595238   0.2809524   0.0000000), wk =   0.0047393
        k(  131) = (   0.3571429   0.2857143   0.0000000), wk =   0.0047393
        k(  132) = (   0.3547619   0.2904762   0.0000000), wk =   0.0047393
        k(  133) = (   0.3523810   0.2952381   0.0000000), wk =   0.0047393
        k(  134) = (   0.3500000   0.3000000   0.0000000), wk =   0.0047393
        k(  135) = (   0.3476190   0.3047619   0.0000000), wk =   0.0047393
        k(  136) = (   0.3452381   0.3095238   0.0000000), wk =   0.0047393
        k(  137) = (   0.3428571   0.3142857   0.0000000), wk =   0.0047393
        k(  138) = (   0.3404762   0.3190476   0.0000000), wk =   0.0047393
        k(  139) = (   0.3380952   0.3238095   0.0000000), wk =   0.0047393
        k(  140) = (   0.3357143   0.3285714   0.0000000), wk =   0.0047393
        k(  141) = (   0.3333333   0.3333333   0.0000000), wk =   0.0047393
        k(  142) = (   0.3285714   0.3285714   0.0000000), wk =   0.0047393
        k(  143) = (   0.3238095   0.3238095   0.0000000), wk =   0.0047393
        k(  144) = (   0.3190476   0.3190476   0.0000000), wk =   0.0047393
        k(  145) = (   0.3142857   0.3142857   0.0000000), wk =   0.0047393
        k(  146) = (   0.3095238   0.3095238   0.0000000), wk =   0.0047393
        k(  147) = (   0.3047619   0.3047619   0.0000000), wk =   0.0047393
        k(  148) = (   0.3000000   0.3000000   0.0000000), wk =   0.0047393
        k(  149) = (   0.2952381   0.2952381   0.0000000), wk =   0.0047393
        k(  150) = (   0.2904762   0.2904762   0.0000000), wk =   0.0047393
        k(  151) = (   0.2857143   0.2857143   0.0000000), wk =   0.0047393
        k(  152) = (   0.2809524   0.2809524   0.0000000), wk =   0.0047393
        k(  153) = (   0.2761905   0.2761905   0.0000000), wk =   0.0047393
        k(  154) = (   0.2714286   0.2714286   0.0000000), wk =   0.0047393
        k(  155) = (   0.2666667   0.2666667   0.0000000), wk =   0.0047393
        k(  156) = (   0.2619048   0.2619048   0.0000000), wk =   0.0047393
        k(  157) = (   0.2571429   0.2571429   0.0000000), wk =   0.0047393
        k(  158) = (   0.2523810   0.2523810   0.0000000), wk =   0.0047393
        k(  159) = (   0.2476190   0.2476190   0.0000000), wk =   0.0047393
        k(  160) = (   0.2428571   0.2428571   0.0000000), wk =   0.0047393
        k(  161) = (   0.2380952   0.2380952   0.0000000), wk =   0.0047393
        k(  162) = (   0.2333333   0.2333333   0.0000000), wk =   0.0047393
        k(  163) = (   0.2285714   0.2285714   0.0000000), wk =   0.0047393
        k(  164) = (   0.2238095   0.2238095   0.0000000), wk =   0.0047393
        k(  165) = (   0.2190476   0.2190476   0.0000000), wk =   0.0047393
        k(  166) = (   0.2142857   0.2142857   0.0000000), wk =   0.0047393
        k(  167) = (   0.2095238   0.2095238   0.0000000), wk =   0.0047393
        k(  168) = (   0.2047619   0.2047619   0.0000000), wk =   0.0047393
        k(  169) = (   0.2000000   0.2000000   0.0000000), wk =   0.0047393
        k(  170) = (   0.1952381   0.1952381   0.0000000), wk =   0.0047393
        k(  171) = (   0.1904762   0.1904762   0.0000000), wk =   0.0047393
        k(  172) = (   0.1857143   0.1857143   0.0000000), wk =   0.0047393
        k(  173) = (   0.1809524   0.1809524   0.0000000), wk =   0.0047393
        k(  174) = (   0.1761905   0.1761905   0.0000000), wk =   0.0047393
        k(  175) = (   0.1714286   0.1714286   0.0000000), wk =   0.0047393
        k(  176) = (   0.1666667   0.1666667   0.0000000), wk =   0.0047393
        k(  177) = (   0.1619048   0.1619048   0.0000000), wk =   0.0047393
        k(  178) = (   0.1571429   0.1571429   0.0000000), wk =   0.0047393
        k(  179) = (   0.1523810   0.1523810   0.0000000), wk =   0.0047393
        k(  180) = (   0.1476190   0.1476190   0.0000000), wk =   0.0047393
        k(  181) = (   0.1428571   0.1428571   0.0000000), wk =   0.0047393
        k(  182) = (   0.1380952   0.1380952   0.0000000), wk =   0.0047393
        k(  183) = (   0.1333333   0.1333333   0.0000000), wk =   0.0047393
        k(  184) = (   0.1285714   0.1285714   0.0000000), wk =   0.0047393
        k(  185) = (   0.1238095   0.1238095   0.0000000), wk =   0.0047393
        k(  186) = (   0.1190476   0.1190476   0.0000000), wk =   0.0047393
        k(  187) = (   0.1142857   0.1142857   0.0000000), wk =   0.0047393
        k(  188) = (   0.1095238   0.1095238   0.0000000), wk =   0.0047393
        k(  189) = (   0.1047619   0.1047619   0.0000000), wk =   0.0047393
        k(  190) = (   0.1000000   0.1000000   0.0000000), wk =   0.0047393
        k(  191) = (   0.0952381   0.0952381   0.0000000), wk =   0.0047393
        k(  192) = (   0.0904762   0.0904762   0.0000000), wk =   0.0047393
        k(  193) = (   0.0857143   0.0857143   0.0000000), wk =   0.0047393
        k(  194) = (   0.0809524   0.0809524   0.0000000), wk =   0.0047393
        k(  195) = (   0.0761905   0.0761905   0.0000000), wk =   0.0047393
        k(  196) = (   0.0714286   0.0714286   0.0000000), wk =   0.0047393
        k(  197) = (   0.0666667   0.0666667   0.0000000), wk =   0.0047393
        k(  198) = (   0.0619048   0.0619048   0.0000000), wk =   0.0047393
        k(  199) = (   0.0571429   0.0571429   0.0000000), wk =   0.0047393
        k(  200) = (   0.0523810   0.0523810   0.0000000), wk =   0.0047393
        k(  201) = (   0.0476190   0.0476190   0.0000000), wk =   0.0047393
        k(  202) = (   0.0428571   0.0428571   0.0000000), wk =   0.0047393
        k(  203) = (   0.0380952   0.0380952   0.0000000), wk =   0.0047393
        k(  204) = (   0.0333333   0.0333333   0.0000000), wk =   0.0047393
        k(  205) = (   0.0285714   0.0285714   0.0000000), wk =   0.0047393
        k(  206) = (   0.0238095   0.0238095   0.0000000), wk =   0.0047393
        k(  207) = (   0.0190476   0.0190476   0.0000000), wk =   0.0047393
        k(  208) = (   0.0142857   0.0142857   0.0000000), wk =   0.0047393
        k(  209) = (   0.0095238   0.0095238   0.0000000), wk =   0.0047393
        k(  210) = (   0.0047619   0.0047619   0.0000000), wk =   0.0047393
        k(  211) = (   0.0000000   0.0000000   0.0000000), wk =   0.0047393

     Dense  grid:   472441 G-vectors     FFT dimensions: (  64,  60, 300)

     Smooth grid:   119521 G-vectors     FFT dimensions: (  40,  40, 192)

     Dynamical RAM for                 wfc:       1.90 MB

     Dynamical RAM for     wfc (w. buffer):       1.90 MB

     Dynamical RAM for           str. fact:       0.60 MB

     Dynamical RAM for           local pot:       0.00 MB

     Dynamical RAM for          nlocal pot:       1.61 MB

     Dynamical RAM for                qrad:       9.40 MB

     Dynamical RAM for          rho,v,vnew:       8.18 MB

     Dynamical RAM for           G-vectors:       1.16 MB

     Dynamical RAM for          h,s,v(r/c):       1.83 MB

     Dynamical RAM for          <psi|beta>:       0.52 MB

     Dynamical RAM for                 psi:       3.80 MB

     Dynamical RAM for                hpsi:       3.80 MB

     Dynamical RAM for                spsi:       3.80 MB

     Dynamical RAM for      wfcinit/wfcrot:       3.08 MB

     Dynamical RAM for           addusdens:     184.15 MB

     Estimated static dynamical RAM per process >      26.80 MB

     Estimated max dynamical RAM per process >     210.94 MB

     Estimated total dynamical RAM >       4.94 GB

     The potential is recalculated from file :
     tmp/Sb2Te3-uatsx-c6-soc-4.0.save/charge-density


     negative rho (up, down):  4.258E-06 0.000E+00
     Starting wfcs are   40 randomized atomic wfcs +   60 random wfcs

     Band Structure Calculation
     Davidson diagonalization with overlap

     Computing kpt #:     1  of   211
     total cpu time spent up to now is        7.5 secs

     Computing kpt #:     2  of   211
     total cpu time spent up to now is       12.5 secs

     Computing kpt #:     3  of   211
     total cpu time spent up to now is       17.2 secs

     Computing kpt #:     4  of   211
     total cpu time spent up to now is       21.9 secs

     Computing kpt #:     5  of   211
     total cpu time spent up to now is       26.7 secs

     Computing kpt #:     6  of   211
     total cpu time spent up to now is       31.5 secs

     Computing kpt #:     7  of   211
     total cpu time spent up to now is       36.3 secs

     Computing kpt #:     8  of   211
     total cpu time spent up to now is       41.4 secs

     Computing kpt #:     9  of   211
     total cpu time spent up to now is       47.0 secs

     Computing kpt #:    10  of   211
     total cpu time spent up to now is       52.8 secs

     Computing kpt #:    11  of   211
     total cpu time spent up to now is       57.9 secs

     Computing kpt #:    12  of   211
     total cpu time spent up to now is       63.1 secs

     Computing kpt #:    13  of   211
     total cpu time spent up to now is       68.1 secs

     Computing kpt #:    14  of   211
     total cpu time spent up to now is       73.3 secs

     Computing kpt #:    15  of   211
     total cpu time spent up to now is       78.6 secs

     Computing kpt #:    16  of   211
     total cpu time spent up to now is       83.5 secs

     Computing kpt #:    17  of   211
     total cpu time spent up to now is       88.4 secs

     Computing kpt #:    18  of   211
     total cpu time spent up to now is       93.2 secs

     Computing kpt #:    19  of   211
     total cpu time spent up to now is       98.0 secs

     Computing kpt #:    20  of   211
     total cpu time spent up to now is      102.8 secs

     Computing kpt #:    21  of   211
     total cpu time spent up to now is      107.6 secs

     Computing kpt #:    22  of   211
     total cpu time spent up to now is      112.4 secs

     Computing kpt #:    23  of   211
     total cpu time spent up to now is      117.4 secs

     Computing kpt #:    24  of   211
     total cpu time spent up to now is      122.3 secs

     Computing kpt #:    25  of   211
     total cpu time spent up to now is      127.5 secs

     Computing kpt #:    26  of   211
     total cpu time spent up to now is      132.7 secs

     Computing kpt #:    27  of   211
     total cpu time spent up to now is      137.9 secs

     Computing kpt #:    28  of   211
     total cpu time spent up to now is      143.1 secs

     Computing kpt #:    29  of   211
     total cpu time spent up to now is      148.3 secs

     Computing kpt #:    30  of   211
     total cpu time spent up to now is      153.3 secs

     Computing kpt #:    31  of   211
     total cpu time spent up to now is      158.5 secs

     Computing kpt #:    32  of   211
     total cpu time spent up to now is      163.6 secs

     Computing kpt #:    33  of   211
     total cpu time spent up to now is      168.6 secs

     Computing kpt #:    34  of   211
     total cpu time spent up to now is      174.0 secs

     Computing kpt #:    35  of   211
     total cpu time spent up to now is      179.0 secs

     Computing kpt #:    36  of   211
     total cpu time spent up to now is      184.4 secs

     Computing kpt #:    37  of   211
     total cpu time spent up to now is      189.5 secs

     Computing kpt #:    38  of   211
     total cpu time spent up to now is      194.7 secs

     Computing kpt #:    39  of   211
     total cpu time spent up to now is      199.8 secs

     Computing kpt #:    40  of   211
     total cpu time spent up to now is      205.2 secs

     Computing kpt #:    41  of   211
     total cpu time spent up to now is      210.7 secs

     Computing kpt #:    42  of   211
     total cpu time spent up to now is      216.2 secs

     Computing kpt #:    43  of   211
     total cpu time spent up to now is      221.7 secs

     Computing kpt #:    44  of   211
     total cpu time spent up to now is      227.1 secs

     Computing kpt #:    45  of   211
     total cpu time spent up to now is      232.8 secs

     Computing kpt #:    46  of   211
     total cpu time spent up to now is      238.8 secs

     Computing kpt #:    47  of   211
     total cpu time spent up to now is      245.4 secs

     Computing kpt #:    48  of   211
     total cpu time spent up to now is      252.1 secs

     Computing kpt #:    49  of   211
     total cpu time spent up to now is      258.2 secs

     Computing kpt #:    50  of   211
     total cpu time spent up to now is      264.3 secs

     Computing kpt #:    51  of   211
     c_bands:  2 eigenvalues not converged
     total cpu time spent up to now is      271.2 secs

     Computing kpt #:    52  of   211
     total cpu time spent up to now is      277.5 secs

     Computing kpt #:    53  of   211
     total cpu time spent up to now is      283.8 secs

     Computing kpt #:    54  of   211
     total cpu time spent up to now is      290.6 secs

     Computing kpt #:    55  of   211
     total cpu time spent up to now is      297.0 secs

     Computing kpt #:    56  of   211
     total cpu time spent up to now is      303.9 secs

     Computing kpt #:    57  of   211
     c_bands:  2 eigenvalues not converged
     total cpu time spent up to now is      311.2 secs

     Computing kpt #:    58  of   211
     c_bands:  2 eigenvalues not converged
     total cpu time spent up to now is      318.5 secs

     Computing kpt #:    59  of   211
     total cpu time spent up to now is      325.4 secs

     Computing kpt #:    60  of   211
     total cpu time spent up to now is      332.0 secs

     Computing kpt #:    61  of   211
     total cpu time spent up to now is      339.4 secs

     Computing kpt #:    62  of   211
     total cpu time spent up to now is      346.4 secs

     Computing kpt #:    63  of   211
     total cpu time spent up to now is      353.2 secs

     Computing kpt #:    64  of   211
     total cpu time spent up to now is      360.1 secs

     Computing kpt #:    65  of   211
     total cpu time spent up to now is      367.1 secs

     Computing kpt #:    66  of   211
     total cpu time spent up to now is      374.1 secs

     Computing kpt #:    67  of   211
     total cpu time spent up to now is      381.1 secs

     Computing kpt #:    68  of   211
     total cpu time spent up to now is      388.1 secs

     Computing kpt #:    69  of   211
     total cpu time spent up to now is      395.1 secs

     Computing kpt #:    70  of   211
     total cpu time spent up to now is      402.0 secs

     Computing kpt #:    71  of   211
     total cpu time spent up to now is      408.6 secs

     Computing kpt #:    72  of   211
     total cpu time spent up to now is      415.5 secs

     Computing kpt #:    73  of   211
     total cpu time spent up to now is      422.3 secs

     Computing kpt #:    74  of   211
     c_bands:  2 eigenvalues not converged
     total cpu time spent up to now is      430.1 secs

     Computing kpt #:    75  of   211
     c_bands:  2 eigenvalues not converged
     total cpu time spent up to now is      437.8 secs

     Computing kpt #:    76  of   211
     c_bands:  2 eigenvalues not converged
     total cpu time spent up to now is      445.5 secs

     Computing kpt #:    77  of   211
     total cpu time spent up to now is      452.5 secs

     Computing kpt #:    78  of   211
     total cpu time spent up to now is      459.5 secs

     Computing kpt #:    79  of   211
     total cpu time spent up to now is      466.5 secs

     Computing kpt #:    80  of   211
     total cpu time spent up to now is      473.5 secs

     Computing kpt #:    81  of   211
     total cpu time spent up to now is      480.5 secs

     Computing kpt #:    82  of   211
     total cpu time spent up to now is      487.6 secs

     Computing kpt #:    83  of   211
     total cpu time spent up to now is      494.4 secs

     Computing kpt #:    84  of   211
     total cpu time spent up to now is      501.4 secs

     Computing kpt #:    85  of   211
     total cpu time spent up to now is      508.4 secs

     Computing kpt #:    86  of   211
     total cpu time spent up to now is      515.4 secs

     Computing kpt #:    87  of   211
     total cpu time spent up to now is      522.6 secs

     Computing kpt #:    88  of   211
     total cpu time spent up to now is      529.7 secs

     Computing kpt #:    89  of   211
     total cpu time spent up to now is      536.7 secs

     Computing kpt #:    90  of   211
     total cpu time spent up to now is      543.7 secs

     Computing kpt #:    91  of   211
     total cpu time spent up to now is      550.7 secs

     Computing kpt #:    92  of   211
     total cpu time spent up to now is      557.7 secs

     Computing kpt #:    93  of   211
     total cpu time spent up to now is      564.7 secs

     Computing kpt #:    94  of   211
     total cpu time spent up to now is      571.8 secs

     Computing kpt #:    95  of   211
     total cpu time spent up to now is      578.9 secs

     Computing kpt #:    96  of   211
     total cpu time spent up to now is      585.8 secs

     Computing kpt #:    97  of   211
     total cpu time spent up to now is      592.9 secs

     Computing kpt #:    98  of   211
     total cpu time spent up to now is      599.9 secs

     Computing kpt #:    99  of   211
     total cpu time spent up to now is      606.9 secs

     Computing kpt #:   100  of   211
     total cpu time spent up to now is      613.8 secs

     Computing kpt #:   101  of   211
     total cpu time spent up to now is      620.8 secs

     Computing kpt #:   102  of   211
     total cpu time spent up to now is      627.2 secs

     Computing kpt #:   103  of   211
     total cpu time spent up to now is      633.9 secs

     Computing kpt #:   104  of   211
     total cpu time spent up to now is      640.6 secs

     Computing kpt #:   105  of   211
     total cpu time spent up to now is      647.3 secs

     Computing kpt #:   106  of   211
     total cpu time spent up to now is      653.6 secs

     Computing kpt #:   107  of   211
     total cpu time spent up to now is      660.2 secs

     Computing kpt #:   108  of   211
     total cpu time spent up to now is      667.1 secs

     Computing kpt #:   109  of   211
     total cpu time spent up to now is      673.3 secs

     Computing kpt #:   110  of   211
     total cpu time spent up to now is      679.6 secs

     Computing kpt #:   111  of   211
     total cpu time spent up to now is      686.1 secs

     Computing kpt #:   112  of   211
     total cpu time spent up to now is      692.9 secs

     Computing kpt #:   113  of   211
     total cpu time spent up to now is      699.4 secs

     Computing kpt #:   114  of   211
     total cpu time spent up to now is      706.3 secs

     Computing kpt #:   115  of   211
     c_bands:  1 eigenvalues not converged
     total cpu time spent up to now is      713.5 secs

     Computing kpt #:   116  of   211
     c_bands:  2 eigenvalues not converged
     total cpu time spent up to now is      720.7 secs

     Computing kpt #:   117  of   211
     c_bands:  2 eigenvalues not converged
     total cpu time spent up to now is      727.8 secs

     Computing kpt #:   118  of   211
     c_bands:  2 eigenvalues not converged
     total cpu time spent up to now is      734.8 secs

     Computing kpt #:   119  of   211
     total cpu time spent up to now is      740.6 secs

     Computing kpt #:   120  of   211
     total cpu time spent up to now is      746.4 secs

     Computing kpt #:   121  of   211
     total cpu time spent up to now is      752.1 secs

     Computing kpt #:   122  of   211
     total cpu time spent up to now is      758.3 secs

     Computing kpt #:   123  of   211
     total cpu time spent up to now is      764.1 secs

     Computing kpt #:   124  of   211
     total cpu time spent up to now is      770.1 secs

     Computing kpt #:   125  of   211
     total cpu time spent up to now is      775.9 secs

     Computing kpt #:   126  of   211
     total cpu time spent up to now is      781.8 secs

     Computing kpt #:   127  of   211
     total cpu time spent up to now is      787.8 secs

     Computing kpt #:   128  of   211
     total cpu time spent up to now is      793.9 secs

     Computing kpt #:   129  of   211
     total cpu time spent up to now is      799.4 secs

     Computing kpt #:   130  of   211
     total cpu time spent up to now is      805.1 secs

     Computing kpt #:   131  of   211
     total cpu time spent up to now is      810.6 secs

     Computing kpt #:   132  of   211
     total cpu time spent up to now is      816.3 secs

     Computing kpt #:   133  of   211
     total cpu time spent up to now is      822.2 secs

     Computing kpt #:   134  of   211
     total cpu time spent up to now is      827.8 secs

     Computing kpt #:   135  of   211
     total cpu time spent up to now is      833.5 secs

     Computing kpt #:   136  of   211
     total cpu time spent up to now is      839.5 secs

     Computing kpt #:   137  of   211
     total cpu time spent up to now is      845.2 secs

     Computing kpt #:   138  of   211
     total cpu time spent up to now is      851.2 secs

     Computing kpt #:   139  of   211
     total cpu time spent up to now is      857.2 secs

     Computing kpt #:   140  of   211
     total cpu time spent up to now is      863.2 secs

     Computing kpt #:   141  of   211
     total cpu time spent up to now is      869.9 secs

     Computing kpt #:   142  of   211
     total cpu time spent up to now is      875.8 secs

     Computing kpt #:   143  of   211
     total cpu time spent up to now is      881.8 secs

     Computing kpt #:   144  of   211
     total cpu time spent up to now is      887.4 secs

     Computing kpt #:   145  of   211
     total cpu time spent up to now is      892.9 secs

     Computing kpt #:   146  of   211
     total cpu time spent up to now is      898.5 secs

     Computing kpt #:   147  of   211
     total cpu time spent up to now is      904.1 secs

     Computing kpt #:   148  of   211
     total cpu time spent up to now is      909.7 secs

     Computing kpt #:   149  of   211
     total cpu time spent up to now is      914.9 secs

     Computing kpt #:   150  of   211
     total cpu time spent up to now is      920.1 secs

     Computing kpt #:   151  of   211
     total cpu time spent up to now is      925.4 secs

     Computing kpt #:   152  of   211
     total cpu time spent up to now is      930.6 secs

     Computing kpt #:   153  of   211
     total cpu time spent up to now is      935.8 secs

     Computing kpt #:   154  of   211
     total cpu time spent up to now is      941.0 secs

     Computing kpt #:   155  of   211
     total cpu time spent up to now is      946.2 secs

     Computing kpt #:   156  of   211
     total cpu time spent up to now is      951.3 secs

     Computing kpt #:   157  of   211
     total cpu time spent up to now is      956.5 secs

     Computing kpt #:   158  of   211
     total cpu time spent up to now is      962.6 secs

     Computing kpt #:   159  of   211
     total cpu time spent up to now is      968.1 secs

     Computing kpt #:   160  of   211
     total cpu time spent up to now is      973.3 secs

     Computing kpt #:   161  of   211
     total cpu time spent up to now is      978.8 secs

     Computing kpt #:   162  of   211
     total cpu time spent up to now is      984.5 secs

     Computing kpt #:   163  of   211
     total cpu time spent up to now is      990.0 secs

     Computing kpt #:   164  of   211
     total cpu time spent up to now is      995.1 secs

     Computing kpt #:   165  of   211
     total cpu time spent up to now is     1000.2 secs

     Computing kpt #:   166  of   211
     total cpu time spent up to now is     1005.2 secs

     Computing kpt #:   167  of   211
     total cpu time spent up to now is     1010.3 secs

     Computing kpt #:   168  of   211
     total cpu time spent up to now is     1015.7 secs

     Computing kpt #:   169  of   211
     total cpu time spent up to now is     1021.2 secs

     Computing kpt #:   170  of   211
     total cpu time spent up to now is     1026.7 secs

     Computing kpt #:   171  of   211
     total cpu time spent up to now is     1032.6 secs

     Computing kpt #:   172  of   211
     total cpu time spent up to now is     1038.9 secs

     Computing kpt #:   173  of   211
     total cpu time spent up to now is     1045.4 secs

     Computing kpt #:   174  of   211
     total cpu time spent up to now is     1050.9 secs

     Computing kpt #:   175  of   211
     total cpu time spent up to now is     1056.5 secs

     Computing kpt #:   176  of   211
     total cpu time spent up to now is     1062.1 secs

     Computing kpt #:   177  of   211
     total cpu time spent up to now is     1067.6 secs

     Computing kpt #:   178  of   211
     total cpu time spent up to now is     1072.7 secs

     Computing kpt #:   179  of   211
     total cpu time spent up to now is     1078.1 secs

     Computing kpt #:   180  of   211
     total cpu time spent up to now is     1083.4 secs

     Computing kpt #:   181  of   211
     total cpu time spent up to now is     1088.6 secs

     Computing kpt #:   182  of   211
     total cpu time spent up to now is     1093.7 secs

     Computing kpt #:   183  of   211
     total cpu time spent up to now is     1099.1 secs

     Computing kpt #:   184  of   211
     total cpu time spent up to now is     1104.3 secs

     Computing kpt #:   185  of   211
     total cpu time spent up to now is     1109.3 secs

     Computing kpt #:   186  of   211
     total cpu time spent up to now is     1114.4 secs

     Computing kpt #:   187  of   211
     total cpu time spent up to now is     1119.5 secs

     Computing kpt #:   188  of   211
     total cpu time spent up to now is     1124.5 secs

     Computing kpt #:   189  of   211
     total cpu time spent up to now is     1129.6 secs

     Computing kpt #:   190  of   211
     total cpu time spent up to now is     1134.7 secs

     Computing kpt #:   191  of   211
     total cpu time spent up to now is     1139.9 secs

     Computing kpt #:   192  of   211
     total cpu time spent up to now is     1145.4 secs

     Computing kpt #:   193  of   211
     total cpu time spent up to now is     1150.4 secs

     Computing kpt #:   194  of   211
     total cpu time spent up to now is     1155.3 secs

     Computing kpt #:   195  of   211
     total cpu time spent up to now is     1160.4 secs

     Computing kpt #:   196  of   211
     total cpu time spent up to now is     1165.4 secs

     Computing kpt #:   197  of   211
     total cpu time spent up to now is     1170.3 secs

     Computing kpt #:   198  of   211
     total cpu time spent up to now is     1175.2 secs

     Computing kpt #:   199  of   211
     total cpu time spent up to now is     1180.4 secs

     Computing kpt #:   200  of   211
     total cpu time spent up to now is     1186.2 secs

     Computing kpt #:   201  of   211
     total cpu time spent up to now is     1191.3 secs

     Computing kpt #:   202  of   211
     total cpu time spent up to now is     1196.4 secs

     Computing kpt #:   203  of   211
     total cpu time spent up to now is     1201.2 secs

     Computing kpt #:   204  of   211
     total cpu time spent up to now is     1206.4 secs

     Computing kpt #:   205  of   211
     total cpu time spent up to now is     1211.5 secs

     Computing kpt #:   206  of   211
     total cpu time spent up to now is     1216.2 secs

     Computing kpt #:   207  of   211
     total cpu time spent up to now is     1220.9 secs

     Computing kpt #:   208  of   211
     total cpu time spent up to now is     1225.6 secs

     Computing kpt #:   209  of   211
     total cpu time spent up to now is     1230.3 secs

     Computing kpt #:   210  of   211
     total cpu time spent up to now is     1235.7 secs

     Computing kpt #:   211  of   211
     total cpu time spent up to now is     1240.6 secs

     ethr =  3.57E-10,  avg # of iterations = 74.5

     total cpu time spent up to now is     1240.6 secs

     End of band structure calculation

          k = 0.0000 0.0000 0.0000 ( 14963 PWs)   bands (ev):

   -12.6319 -12.6319 -12.0971 -12.0971 -11.0179 -11.0179  -8.2918  -8.2918
    -6.9492  -6.9492  -2.5660  -2.5660  -2.1560  -2.1560  -1.8495  -1.8495
    -1.6075  -1.6075  -1.5233  -1.5233  -1.4441  -1.4441  -1.1417  -1.1417
    -0.8854  -0.8854  -0.6893  -0.6893  -0.0835  -0.0835   0.6018   0.6018
     0.9859   0.9859   1.1646   1.1646   1.8881   1.8881   2.1228   2.1228
     4.1534   4.1534   4.3415   4.3415   4.9833   4.9833   5.2957   5.2957
     5.5051   5.5051   5.8506   5.8506   6.3304   6.3304   6.5315   6.5315
     6.6163   6.6163   6.6984   6.6984   7.2031   7.2031   7.4730   7.4730
     7.6694   7.6694   8.0027   8.0027   8.0371   8.0371   8.5115   8.5115
     8.8739   8.8739   9.3226   9.3226   9.4203   9.4203   9.4911   9.4911
     9.6922   9.6922  10.7912  10.7912  10.8293  10.8293  11.6956  11.6956
    11.9691  11.9691  12.1940  12.1940  12.2060  12.2060  12.4242  12.4242
    12.9959  12.9959  13.4748  13.4748

          k = 0.0071 0.0041 0.0000 ( 14959 PWs)   bands (ev):

   -12.6314 -12.6314 -12.0967 -12.0967 -11.0177 -11.0177  -8.2919  -8.2919
    -6.9500  -6.9500  -2.5669  -2.5668  -2.1625  -2.1622  -1.8484  -1.8483
    -1.6157  -1.6151  -1.5310  -1.5306  -1.4335  -1.4330  -1.1397  -1.1395
    -0.8875  -0.8874  -0.6879  -0.6879  -0.0768  -0.0767   0.6005   0.6006
     0.9793   0.9795   1.1726   1.1729   1.8899   1.8900   2.1225   2.1225
     4.1542   4.1542   4.3416   4.3416   4.9835   4.9835   5.2937   5.2937
     5.5048   5.5048   5.8506   5.8507   6.3329   6.3329   6.5289   6.5292
     6.6179   6.6184   6.6970   6.6972   7.2011   7.2011   7.4799   7.4799
     7.6715   7.6715   8.0001   8.0001   8.0393   8.0393   8.5128   8.5128
     8.8755   8.8755   9.3070   9.3073   9.4086   9.4090   9.5144   9.5146
     9.6995   9.6996  10.7903  10.7903  10.8299  10.8299  11.6845  11.6845
    11.9760  11.9761  12.1661  12.1662  12.2346  12.2347  12.4276  12.4277
    12.9972  12.9972  13.4519  13.4520

          k = 0.0143 0.0082 0.0000 ( 14969 PWs)   bands (ev):

   -12.6302 -12.6302 -12.0956 -12.0956 -11.0170 -11.0170  -8.2923  -8.2923
    -6.9526  -6.9526  -2.5694  -2.5694  -2.1808  -2.1803  -1.8458  -1.8455
    -1.6392  -1.6382  -1.5432  -1.5426  -1.4121  -1.4114  -1.1335  -1.1332
    -0.8935  -0.8933  -0.6828  -0.6827  -0.0573  -0.0571   0.5966   0.5968
     0.9635   0.9638   1.1935   1.1940   1.8953   1.8955   2.1217   2.1218
     4.1564   4.1564   4.3418   4.3418   4.9840   4.9840   5.2876   5.2876
     5.5039   5.5039   5.8509   5.8509   6.3402   6.3402   6.5218   6.5223
     6.6213   6.6222   6.6946   6.6951   7.1957   7.1957   7.4997   7.4997
     7.6778   7.6778   7.9930   7.9931   8.0455   8.0456   8.5167   8.5167
     8.8797   8.8797   9.2712   9.2714   9.3877   9.3881   9.5625   9.5626
     9.7202   9.7203  10.7877  10.7877  10.8316  10.8317  11.6554  11.6554
    11.9897  11.9899  12.1395  12.1397  12.2656  12.2656  12.4388  12.4388
    12.9984  12.9984  13.4001  13.4002

          k = 0.0214 0.0124 0.0000 ( 14972 PWs)   bands (ev):

   -12.6282 -12.6282 -12.0938 -12.0938 -11.0160 -11.0160  -8.2928  -8.2928
    -6.9568  -6.9568  -2.5737  -2.5736  -2.2095  -2.2088  -1.8432  -1.8428
    -1.6741  -1.6728  -1.5526  -1.5519  -1.3912  -1.3904  -1.1239  -1.1235
    -0.9027  -0.9024  -0.6724  -0.6721  -0.0271  -0.0268   0.5899   0.5901
     0.9448   0.9452   1.2214   1.2220   1.9042   1.9044   2.1208   2.1208
     4.1600   4.1601   4.3422   4.3423   4.9849   4.9849   5.2776   5.2777
     5.5027   5.5027   5.8517   5.8517   6.3515   6.3515   6.5114   6.5120
     6.6222   6.6234   6.6960   6.6966   7.1881   7.1881   7.5297   7.5297
     7.6879   7.6879   7.9825   7.9825   8.0555   8.0556   8.5236   8.5236
     8.8853   8.8853   9.2294   9.2296   9.3635   9.3639   9.6185   9.6186
     9.7509   9.7510  10.7831  10.7831  10.8348  10.8348  11.6161  11.6161
    11.9938  11.9940  12.1288  12.1290  12.2924  12.2924  12.4591  12.4591
    12.9917  12.9917  13.3473  13.3474

          k = 0.0286 0.0165 0.0000 ( 14964 PWs)   bands (ev):

   -12.6253 -12.6253 -12.0912 -12.0912 -11.0145 -11.0145  -8.2936  -8.2936
    -6.9627  -6.9626  -2.5796  -2.5796  -2.2466  -2.2457  -1.8424  -1.8419
    -1.7148  -1.7135  -1.5603  -1.5595  -1.3753  -1.3744  -1.1126  -1.1121
    -0.9126  -0.9122  -0.6554  -0.6551   0.0111   0.0115   0.5805   0.5808
     0.9277   0.9282   1.2521   1.2528   1.9161   1.9165   2.1200   2.1200
     4.1651   4.1652   4.3428   4.3428   4.9857   4.9858   5.2640   5.2640
     5.5013   5.5014   5.8534   5.8534   6.3653   6.3653   6.4984   6.4990
     6.6181   6.6193   6.7054   6.7060   7.1795   7.1795   7.5664   7.5664
     7.7013   7.7013   7.9698   7.9699   8.0692   8.0693   8.5341   8.5341
     8.8898   8.8899   9.1895   9.1897   9.3376   9.3378   9.6774   9.6775
     9.7887   9.7889  10.7763  10.7764  10.8395  10.8396  11.5722  11.5722
    11.9784  11.9786  12.1372  12.1374  12.3168  12.3168  12.4876  12.4877
    12.9653  12.9653  13.3154  13.3155

          k = 0.0357 0.0206 0.0000 ( 14963 PWs)   bands (ev):

   -12.6216 -12.6216 -12.0878 -12.0878 -11.0126 -11.0126  -8.2946  -8.2946
    -6.9702  -6.9702  -2.5874  -2.5873  -2.2903  -2.2892  -1.8450  -1.8446
    -1.7575  -1.7564  -1.5679  -1.5671  -1.3659  -1.3651  -1.1026  -1.1020
    -0.9188  -0.9184  -0.6324  -0.6319   0.0545   0.0550   0.5690   0.5693
     0.9152   0.9156   1.2834   1.2841   1.9304   1.9309   2.1200   2.1201
     4.1716   4.1717   4.3435   4.3435   4.9864   4.9864   5.2472   5.2473
     5.5000   5.5001   5.8565   5.8565   6.3792   6.3793   6.4842   6.4848
     6.6111   6.6122   6.7223   6.7227   7.1708   7.1708   7.6060   7.6060
     7.7176   7.7176   7.9570   7.9571   8.0869   8.0870   8.5486   8.5486
     8.8902   8.8903   9.1561   9.1563   9.3113   9.3115   9.7369   9.7371
     9.8317   9.8319  10.7673  10.7673  10.8460  10.8460  11.5273  11.5274
    11.9504  11.9505  12.1532  12.1534  12.3433  12.3434  12.5209  12.5209
    12.9144  12.9144  13.3140  13.3140

          k = 0.0429 0.0247 0.0000 ( 14963 PWs)   bands (ev):

   -12.6171 -12.6171 -12.0837 -12.0837 -11.0102 -11.0102  -8.2959  -8.2959
    -6.9794  -6.9794  -2.5971  -2.5970  -2.3392  -2.3380  -1.8538  -1.8533
    -1.7988  -1.7980  -1.5765  -1.5756  -1.3638  -1.3630  -1.0965  -1.0959
    -0.9165  -0.9161  -0.6043  -0.6038   0.1002   0.1007   0.5569   0.5572
     0.9085   0.9089   1.3139   1.3147   1.9462   1.9468   2.1220   2.1221
     4.1795   4.1796   4.3442   4.3443   4.9863   4.9863   5.2282   5.2282
     5.4990   5.4991   5.8612   5.8613   6.3881   6.3882   6.4730   6.4736
     6.6046   6.6055   6.7443   6.7447   7.1626   7.1626   7.6439   7.6439
     7.7363   7.7364   7.9472   7.9472   8.1089   8.1091   8.5674   8.5675
     8.8829   8.8830   9.1331   9.1332   9.2861   9.2863   9.7957   9.7960
     9.8788   9.8791  10.7560  10.7561  10.8543  10.8543  11.4836  11.4836
    11.9176  11.9177  12.1669  12.1670  12.3747  12.3748  12.5529  12.5530
    12.8496  12.8496  13.3366  13.3366

          k = 0.0500 0.0289 0.0000 ( 14959 PWs)   bands (ev):

   -12.6117 -12.6117 -12.0789 -12.0789 -11.0075 -11.0075  -8.2974  -8.2974
    -6.9903  -6.9903  -2.6088  -2.6086  -2.3920  -2.3906  -1.8754  -1.8741
    -1.8316  -1.8309  -1.5870  -1.5860  -1.3688  -1.3681  -1.0947  -1.0942
    -0.9038  -0.9035  -0.5732  -0.5726   0.1449   0.1455   0.5468   0.5470
     0.9080   0.9083   1.3430   1.3438   1.9620   1.9627   2.1271   2.1273
     4.1887   4.1888   4.3450   4.3450   4.9847   4.9847   5.2080   5.2081
     5.4984   5.4985   5.8679   5.8679   6.3843   6.3844   6.4726   6.4730
     6.6003   6.6011   6.7700   6.7702   7.1554   7.1554   7.6736   7.6737
     7.7581   7.7581   7.9446   7.9447   8.1354   8.1355   8.5907   8.5908
     8.8662   8.8663   9.1218   9.1219   9.2631   9.2632   9.8525   9.8528
     9.9293   9.9296  10.7427  10.7427  10.8644  10.8644  11.4424  11.4425
    11.8834  11.8835  12.1751  12.1752  12.4093  12.4095  12.5729  12.5730
    12.7913  12.7913  13.3714  13.3714

          k = 0.0571 0.0330 0.0000 ( 14959 PWs)   bands (ev):

   -12.6056 -12.6056 -12.0734 -12.0734 -11.0043 -11.0043  -8.2992  -8.2992
    -7.0029  -7.0028  -2.6231  -2.6227  -2.4474  -2.4459  -1.9126  -1.9110
    -1.8520  -1.8511  -1.6001  -1.5990  -1.3805  -1.3798  -1.0948  -1.0944
    -0.8823  -0.8820  -0.5408  -0.5403   0.1854   0.1861   0.5424   0.5426
     0.9135   0.9137   1.3702   1.3711   1.9764   1.9772   2.1370   2.1372
     4.1992   4.1993   4.3457   4.3458   4.9805   4.9806   5.1884   5.1885
     5.4982   5.4983   5.8765   5.8766   6.3670   6.3672   6.4842   6.4845
     6.5987   6.5994   6.7983   6.7985   7.1495   7.1496   7.6886   7.6887
     7.7838   7.7838   7.9541   7.9542   8.1664   8.1665   8.6184   8.6185
     8.8415   8.8417   9.1205   9.1206   9.2433   9.2434   9.9068   9.9071
     9.9822   9.9825  10.7277  10.7277  10.8763  10.8764  11.4049  11.4050
    11.8494  11.8494  12.1775  12.1776  12.4398  12.4399  12.5663  12.5665
    12.7662  12.7662  13.4059  13.4060

          k = 0.0643 0.0371 0.0000 ( 14961 PWs)   bands (ev):

   -12.5986 -12.5986 -12.0671 -12.0671 -11.0008 -11.0008  -8.3013  -8.3013
    -7.0170  -7.0170  -2.6407  -2.6402  -2.5038  -2.5020  -1.9564  -1.9549
    -1.8684  -1.8676  -1.6167  -1.6155  -1.3973  -1.3967  -1.0940  -1.0937
    -0.8550  -0.8547  -0.5095  -0.5089   0.2186   0.2193   0.5477   0.5479
     0.9244   0.9246   1.3957   1.3966   1.9881   1.9889   2.1528   2.1530
     4.2109   4.2110   4.3462   4.3463   4.9727   4.9727   5.1712   5.1713
     5.4985   5.4986   5.8872   5.8872   6.3430   6.3433   6.5016   6.5018
     6.5994   6.5999   6.8288   6.8290   7.1454   7.1454   7.6879   7.6880
     7.8122   7.8123   7.9773   7.9774   8.2013   8.2014   8.6501   8.6503
     8.8127   8.8129   9.1255   9.1256   9.2279   9.2281   9.9583   9.9586
    10.0363  10.0365  10.7117  10.7117  10.8900  10.8901  11.3720  11.3720
    11.8163  11.8163  12.1716  12.1717  12.4442  12.4444  12.5533  12.5535
    12.7799  12.7800  13.4127  13.4130

          k = 0.0714 0.0412 0.0000 ( 14957 PWs)   bands (ev):

   -12.5908 -12.5908 -12.0601 -12.0601 -10.9968 -10.9968  -8.3037  -8.3036
    -7.0328  -7.0328  -2.6641  -2.6632  -2.5582  -2.5561  -2.0023  -2.0008
    -1.8850  -1.8843  -1.6373  -1.6359  -1.4174  -1.4168  -1.0909  -1.0906
    -0.8243  -0.8240  -0.4812  -0.4806   0.2430   0.2437   0.5654   0.5657
     0.9404   0.9405   1.4193   1.4203   1.9968   1.9977   2.1746   2.1749
     4.2237   4.2238   4.3465   4.3466   4.9599   4.9600   5.1583   5.1584
     5.4993   5.4993   5.8998   5.8998   6.3172   6.3174   6.5208   6.5209
     6.6016   6.6020   6.8611   6.8612   7.1434   7.1434   7.6758   7.6759
     7.8411   7.8412   8.0118   8.0119   8.2393   8.2393   8.6841   8.6843
     8.7849   8.7852   9.1327   9.1328   9.2184   9.2186  10.0070  10.0073
    10.0900  10.0902  10.6955  10.6956  10.9053  10.9054  11.3442  11.3443
    11.7846  11.7846  12.1504  12.1505  12.4140  12.4142  12.5694  12.5695
    12.8129  12.8129  13.3361  13.3363

          k = 0.0786 0.0454 0.0000 ( 14963 PWs)   bands (ev):

   -12.5822 -12.5822 -12.0524 -12.0524 -10.9924 -10.9924  -8.3063  -8.3063
    -7.0502  -7.0502  -2.6977  -2.6967  -2.6052  -2.6029  -2.0491  -2.0477
    -1.9028  -1.9021  -1.6622  -1.6606  -1.4387  -1.4380  -1.0855  -1.0852
    -0.7918  -0.7914  -0.4582  -0.4576   0.2603   0.2610   0.5951   0.5955
     0.9607   0.9608   1.4415   1.4425   2.0033   2.0043   2.2017   2.2020
     4.2376   4.2378   4.3463   4.3465   4.9418   4.9419   5.1505   5.1506
     5.5006   5.5006   5.9143   5.9144   6.2917   6.2919   6.5397   6.5398
     6.6047   6.6051   6.8950   6.8951   7.1438   7.1439   7.6574   7.6575
     7.8695   7.8696   8.0537   8.0538   8.2786   8.2787   8.7104   8.7107
     8.7712   8.7715   9.1394   9.1395   9.2160   9.2161  10.0528  10.0531
    10.1418  10.1420  10.6804  10.6804  10.9220  10.9220  11.3222  11.3223
    11.7548  11.7549  12.1049  12.1050  12.3886  12.3887  12.5957  12.5958
    12.8526  12.8526  13.2345  13.2346

          k = 0.0857 0.0495 0.0000 ( 14959 PWs)   bands (ev):

   -12.5728 -12.5728 -12.0439 -12.0439 -10.9877 -10.9877  -8.3094  -8.3094
    -7.0692  -7.0692  -2.7451  -2.7443  -2.6405  -2.6384  -2.0967  -2.0953
    -1.9216  -1.9210  -1.6911  -1.6894  -1.4596  -1.4589  -1.0782  -1.0779
    -0.7586  -0.7582  -0.4422  -0.4416   0.2747   0.2754   0.6337   0.6341
     0.9849   0.9850   1.4626   1.4636   2.0089   2.0099   2.2325   2.2328
     4.2526   4.2528   4.3456   4.3457   4.9192   4.9193   5.1479   5.1480
     5.5025   5.5025   5.9307   5.9307   6.2679   6.2681   6.5571   6.5572
     6.6084   6.6087   6.9300   6.9301   7.1472   7.1472   7.6364   7.6365
     7.8971   7.8971   8.0999   8.1000   8.3170   8.3171   8.7068   8.7069
     8.7966   8.7968   9.1450   9.1451   9.2204   9.2205  10.0951  10.0953
    10.1903  10.1905  10.6679  10.6679  10.9398  10.9398  11.3064  11.3065
    11.7274  11.7274  12.0355  12.0356  12.3847  12.3847  12.6187  12.6187
    12.8918  12.8919  13.1323  13.1324

          k = 0.0929 0.0536 0.0000 ( 14959 PWs)   bands (ev):

   -12.5626 -12.5626 -12.0348 -12.0348 -10.9826 -10.9826  -8.3128  -8.3128
    -7.0898  -7.0898  -2.8030  -2.8025  -2.6672  -2.6654  -2.1450  -2.1437
    -1.9415  -1.9410  -1.7234  -1.7215  -1.4793  -1.4785  -1.0697  -1.0695
    -0.7258  -0.7253  -0.4344  -0.4337   0.2903   0.2910   0.6776   0.6781
     1.0123   1.0125   1.4833   1.4843   2.0149   2.0158   2.2659   2.2662
     4.2684   4.2687   4.3439   4.3441   4.8935   4.8936   5.1497   5.1498
     5.5050   5.5050   5.9488   5.9488   6.2466   6.2467   6.5712   6.5712
     6.6134   6.6137   6.9658   6.9659   7.1539   7.1540   7.6152   7.6153
     7.9236   7.9237   8.1484   8.1485   8.3511   8.3511   8.6937   8.6937
     8.8435   8.8436   9.1513   9.1514   9.2300   9.2301  10.1329  10.1330
    10.2346  10.2348  10.6598  10.6598  10.9583  10.9583  11.2968  11.2969
    11.7027  11.7027  11.9516  11.9517  12.3983  12.3983  12.6340  12.6341
    12.9122  12.9123  13.0483  13.0483

          k = 0.1000 0.0577 0.0000 ( 14954 PWs)   bands (ev):

   -12.5516 -12.5516 -12.0249 -12.0249 -10.9771 -10.9771  -8.3166  -8.3166
    -7.1119  -7.1119  -2.8663  -2.8660  -2.6900  -2.6885  -2.1940  -2.1928
    -1.9625  -1.9620  -1.7579  -1.7560  -1.4975  -1.4967  -1.0608  -1.0606
    -0.6942  -0.6936  -0.4347  -0.4340   0.3101   0.3107   0.7240   0.7246
     1.0422   1.0424   1.5041   1.5051   2.0222   2.0231   2.3006   2.3009
     4.2851   4.2854   4.3411   4.3414   4.8663   4.8664   5.1549   5.1550
     5.5083   5.5084   5.9685   5.9686   6.2282   6.2284   6.5789   6.5789
     6.6219   6.6221   7.0018   7.0018   7.1646   7.1646   7.5956   7.5956
     7.9489   7.9489   8.1978   8.1980   8.3771   8.3772   8.6886   8.6886
     8.8975   8.8976   9.1606   9.1608   9.2428   9.2429  10.1645  10.1646
    10.2742  10.2743  10.6576  10.6577  10.9773  10.9773  11.2929  11.2930
    11.6811  11.6812  11.8622  11.8623  12.4236  12.4236  12.6404  12.6404
    12.8612  12.8613  13.0229  13.0229

          k = 0.1071 0.0619 0.0000 ( 14960 PWs)   bands (ev):

   -12.5398 -12.5398 -12.0143 -12.0143 -10.9713 -10.9713  -8.3208  -8.3207
    -7.1355  -7.1355  -2.9322  -2.9321  -2.7114  -2.7101  -2.2439  -2.2428
    -1.9847  -1.9842  -1.7935  -1.7916  -1.5142  -1.5134  -1.0520  -1.0518
    -0.6652  -0.6646  -0.4418  -0.4410   0.3350   0.3356   0.7711   0.7717
     1.0735   1.0737   1.5260   1.5270   2.0317   2.0326   2.3359   2.3362
     4.3021   4.3025   4.3370   4.3374   4.8392   4.8393   5.1627   5.1628
     5.5125   5.5126   5.9898   5.9899   6.2132   6.2133   6.5788   6.5789
     6.6348   6.6349   7.0372   7.0373   7.1797   7.1798   7.5785   7.5785
     7.9725   7.9726   8.2470   8.2472   8.3925   8.3926   8.6969   8.6970
     8.9552   8.9554   9.1751   9.1752   9.2578   9.2579  10.1882  10.1883
    10.3094  10.3094  10.6627  10.6628  10.9967  10.9967  11.2929  11.2931
    11.6624  11.6626  11.7741  11.7742  12.4569  12.4569  12.6373  12.6374
    12.7653  12.7654  12.9673  12.9673

          k = 0.1143 0.0660 0.0000 ( 14963 PWs)   bands (ev):

   -12.5272 -12.5272 -12.0030 -12.0030 -10.9652 -10.9652  -8.3254  -8.3254
    -7.1606  -7.1605  -2.9994  -2.9993  -2.7323  -2.7311  -2.2947  -2.2936
    -2.0081  -2.0077  -1.8291  -1.8272  -1.5296  -1.5288  -1.0438  -1.0436
    -0.6413  -0.6406  -0.4524  -0.4516   0.3646   0.3651   0.8179   0.8185
     1.1049   1.1052   1.5500   1.5509   2.0440   2.0449   2.3710   2.3713
     4.3170   4.3179   4.3332   4.3341   4.8135   4.8136   5.1726   5.1727
     5.5178   5.5179   6.0126   6.0127   6.2018   6.2019   6.5723   6.5724
     6.6503   6.6504   7.0713   7.0713   7.1999   7.2000   7.5649   7.5649
     7.9943   7.9944   8.2934   8.2936   8.3990   8.3991   8.7193   8.7194
     9.0144   9.0146   9.1961   9.1963   9.2754   9.2754  10.2027  10.2027
    10.3410  10.3411  10.6750  10.6751  11.0166  11.0167  11.2930  11.2932
    11.6422  11.6425  11.6980  11.6983  12.4956  12.4956  12.6215  12.6216
    12.6664  12.6664  12.8697  12.8697

          k = 0.1214 0.0701 0.0000 ( 14951 PWs)   bands (ev):

   -12.5138 -12.5138 -11.9910 -11.9910 -10.9587 -10.9587  -8.3305  -8.3305
    -7.1871  -7.1871  -3.0672  -3.0671  -2.7529  -2.7518  -2.3463  -2.3453
    -2.0332  -2.0328  -1.8637  -1.8618  -1.5439  -1.5431  -1.0366  -1.0364
    -0.6264  -0.6257  -0.4613  -0.4604   0.3979   0.3984   0.8641   0.8647
     1.1353   1.1357   1.5769   1.5778   2.0597   2.0605   2.4055   2.4057
     4.3167   4.3172   4.3437   4.3442   4.7905   4.7905   5.1840   5.1841
     5.5244   5.5244   6.0367   6.0368   6.1942   6.1944   6.5610   6.5611
     6.6669   6.6670   7.1034   7.1034   7.2253   7.2253   7.5553   7.5553
     8.0142   8.0142   8.3303   8.3305   8.4058   8.4059   8.7533   8.7534
     9.0725   9.0727   9.2241   9.2244   9.2972   9.2973  10.2081  10.2081
    10.3698  10.3698  10.6936  10.6936  11.0377  11.0377  11.2855  11.2857
    11.6006  11.6010  11.6626  11.6629  12.5297  12.5298  12.5551  12.5551
    12.6178  12.6179  12.7683  12.7683

          k = 0.1286 0.0742 0.0000 ( 14946 PWs)   bands (ev):

   -12.4996 -12.4996 -11.9784 -11.9784 -10.9519 -10.9519  -8.3361  -8.3361
    -7.2150  -7.2150  -3.1352  -3.1350  -2.7734  -2.7723  -2.3987  -2.3977
    -2.0600  -2.0596  -1.8966  -1.8948  -1.5573  -1.5565  -1.0309  -1.0306
    -0.6257  -0.6249  -0.4618  -0.4609   0.4335   0.4340   0.9097   0.9102
     1.1636   1.1640   1.6073   1.6081   2.0790   2.0797   2.4389   2.4391
     4.3057   4.3059   4.3624   4.3625   4.7710   4.7711   5.1967   5.1967
     5.5323   5.5323   6.0620   6.0621   6.1907   6.1908   6.5456   6.5457
     6.6839   6.6840   7.1336   7.1336   7.2550   7.2551   7.5503   7.5503
     8.0319   8.0320   8.3445   8.3446   8.4291   8.4292   8.7954   8.7954
     9.1272   9.1275   9.2574   9.2576   9.3277   9.3278  10.2058  10.2058
    10.3956  10.3957  10.7165  10.7166  11.0603  11.0603  11.2592  11.2594
    11.5588  11.5592  11.6578  11.6581  12.4433  12.4434  12.5671  12.5673
    12.5984  12.5986  12.6798  12.6798

          k = 0.1357 0.0784 0.0000 ( 14953 PWs)   bands (ev):

   -12.4846 -12.4846 -11.9650 -11.9650 -10.9448 -10.9448  -8.3423  -8.3422
[...]
     9.0369   9.0369   9.2618   9.2619   9.5270   9.5270  10.3937  10.3939
    10.4498  10.4500  10.8224  10.8225  11.0431  11.0432  11.2716  11.2717
    11.5046  11.5046  11.6653  11.6655  12.1549  12.1549  12.6042  12.6042
    12.6866  12.6866  12.8604  12.8604

          k = 0.0762 0.1355 0.0000 ( 14960 PWs)   bands (ev):

   -12.4871 -12.4871 -11.9663 -11.9663 -10.9436 -10.9436  -8.3317  -8.3317
    -7.2141  -7.2140  -3.0620  -3.0617  -2.7808  -2.7797  -2.5582  -2.5578
    -2.1083  -2.1068  -1.7807  -1.7799  -1.6279  -1.6275  -1.2419  -1.2415
    -0.6097  -0.6088  -0.4345  -0.4334   0.4892   0.4901   0.7549   0.7551
     1.1532   1.1535   1.7395   1.7407   2.0664   2.0673   2.5092   2.5094
     4.3564   4.3568   4.3900   4.3905   4.8371   4.8372   5.0740   5.0741
     5.5439   5.5439   5.9713   5.9713   6.3268   6.3273   6.4342   6.4347
     6.7182   6.7183   6.9108   6.9108   7.4158   7.4159   7.6889   7.6891
     7.9637   7.9638   8.2899   8.2900   8.6416   8.6416   8.8397   8.8397
     9.0468   9.0469   9.2073   9.2074   9.4633   9.4633  10.3658  10.3661
    10.4073  10.4077  10.8297  10.8298  11.0072  11.0072  11.2521  11.2522
    11.5359  11.5359  11.7018  11.7020  12.2390  12.2391  12.6596  12.6596
    12.7191  12.7192  12.8958  12.8958

          k = 0.0714 0.1270 0.0000 ( 14963 PWs)   bands (ev):

   -12.5045 -12.5045 -11.9820 -11.9820 -10.9522 -10.9522  -8.3260  -8.3259
    -7.1826  -7.1826  -2.9937  -2.9934  -2.7517  -2.7504  -2.4870  -2.4866
    -2.0680  -2.0664  -1.7589  -1.7581  -1.6084  -1.6080  -1.2234  -1.2230
    -0.6212  -0.6202  -0.4429  -0.4417   0.4661   0.4670   0.7115   0.7117
     1.1241   1.1244   1.6876   1.6889   2.0434   2.0443   2.4701   2.4702
     4.3451   4.3457   4.3763   4.3768   4.8633   4.8633   5.0879   5.0880
     5.5288   5.5288   5.9257   5.9257   6.3283   6.3289   6.4311   6.4316
     6.7435   6.7436   6.8829   6.8830   7.3784   7.3785   7.6696   7.6697
     7.9193   7.9194   8.3107   8.3108   8.5779   8.5779   8.7786   8.7787
     9.0465   9.0467   9.1651   9.1651   9.4098   9.4099  10.3287  10.3291
    10.3630  10.3635  10.8345  10.8346  10.9917  10.9917  11.2225  11.2226
    11.5551  11.5552  11.7630  11.7631  12.3218  12.3218  12.6333  12.6333
    12.8203  12.8204  12.9026  12.9027

          k = 0.0667 0.1186 0.0000 ( 14965 PWs)   bands (ev):

   -12.5208 -12.5208 -11.9966 -11.9966 -10.9603 -10.9603  -8.3208  -8.3208
    -7.1530  -7.1530  -2.9256  -2.9253  -2.7242  -2.7228  -2.4149  -2.4145
    -2.0279  -2.0263  -1.7404  -1.7395  -1.5879  -1.5875  -1.2046  -1.2043
    -0.6439  -0.6430  -0.4442  -0.4431   0.4341   0.4350   0.6776   0.6777
     1.0945   1.0949   1.6341   1.6354   2.0276   2.0285   2.4295   2.4297
     4.3271   4.3275   4.3698   4.3702   4.8881   4.8882   5.1039   5.1041
     5.5167   5.5167   5.8843   5.8844   6.3299   6.3305   6.4343   6.4348
     6.7519   6.7520   6.8660   6.8660   7.3418   7.3419   7.6550   7.6551
     7.8790   7.8790   8.3327   8.3328   8.5105   8.5106   8.7186   8.7186
     9.0360   9.0362   9.1273   9.1274   9.3724   9.3725  10.2761  10.2764
    10.3270  10.3273  10.8242  10.8242  11.0044  11.0045  11.1909  11.1910
    11.5652  11.5652  11.8408  11.8409  12.3894  12.3894  12.6186  12.6187
    12.8458  12.8458  12.9422  12.9422

          k = 0.0619 0.1101 0.0000 ( 14977 PWs)   bands (ev):

   -12.5360 -12.5360 -12.0103 -12.0103 -10.9680 -10.9680  -8.3162  -8.3161
    -7.1253  -7.1253  -2.8586  -2.8582  -2.6970  -2.6953  -2.3432  -2.3427
    -1.9882  -1.9866  -1.7246  -1.7238  -1.5663  -1.5658  -1.1861  -1.1857
    -0.6755  -0.6747  -0.4419  -0.4408   0.3943   0.3952   0.6533   0.6536
     1.0634   1.0637   1.5823   1.5835   2.0171   2.0180   2.3877   2.3879
     4.3068   4.3071   4.3661   4.3664   4.9112   4.9113   5.1216   5.1218
     5.5078   5.5078   5.8477   5.8478   6.3332   6.3337   6.4421   6.4425
     6.7412   6.7414   6.8597   6.8597   7.3080   7.3080   7.6460   7.6461
     7.8425   7.8425   8.3494   8.3495   8.4433   8.4434   8.6648   8.6649
     9.0184   9.0186   9.0864   9.0865   9.3535   9.3536  10.2142  10.2144
    10.2948  10.2951  10.8036  10.8037  11.0318  11.0319  11.1662  11.1663
    11.5735  11.5735  11.9252  11.9253  12.4204  12.4204  12.6407  12.6408
    12.7931  12.7932  13.0483  13.0484

          k = 0.0571 0.1016 0.0000 ( 14969 PWs)   bands (ev):

   -12.5502 -12.5502 -12.0231 -12.0231 -10.9752 -10.9752  -8.3121  -8.3120
    -7.0996  -7.0995  -2.7948  -2.7941  -2.6682  -2.6661  -2.2725  -2.2720
    -1.9496  -1.9480  -1.7108  -1.7100  -1.5436  -1.5430  -1.1679  -1.1675
    -0.7130  -0.7122  -0.4400  -0.4390   0.3502   0.3511   0.6369   0.6372
     1.0301   1.0305   1.5344   1.5356   2.0101   2.0110   2.3451   2.3452
     4.2866   4.2869   4.3630   4.3632   4.9318   4.9319   5.1405   5.1407
     5.5020   5.5020   5.8164   5.8165   6.3391   6.3396   6.4530   6.4534
     6.7188   6.7189   6.8552   6.8552   7.2785   7.2786   7.6434   7.6435
     7.8092   7.8092   8.3385   8.3388   8.3919   8.3920   8.6264   8.6265
     8.9905   8.9907   9.0484   9.0485   9.3488   9.3489  10.1485  10.1487
    10.2615  10.2617  10.7828  10.7828  11.0453  11.0454  11.1667  11.1668
    11.5850  11.5851  12.0089  12.0089  12.4153  12.4153  12.6868  12.6870
    12.7523  12.7524  13.1520  13.1521

          k = 0.0524 0.0931 0.0000 ( 14962 PWs)   bands (ev):

   -12.5632 -12.5632 -12.0348 -12.0348 -10.9818 -10.9818  -8.3084  -8.3084
    -7.0757  -7.0757  -2.7379  -2.7369  -2.6343  -2.6319  -2.2035  -2.2030
    -1.9130  -1.9114  -1.6979  -1.6971  -1.5197  -1.5191  -1.1502  -1.1498
    -0.7537  -0.7530  -0.4426  -0.4416   0.3056   0.3064   0.6257   0.6261
     0.9952   0.9956   1.4918   1.4929   2.0054   2.0062   2.3025   2.3026
     4.2672   4.2674   4.3601   4.3603   4.9493   4.9494   5.1603   5.1605
     5.4990   5.4991   5.7909   5.7910   6.3481   6.3486   6.4660   6.4664
     6.6917   6.6918   6.8452   6.8452   7.2541   7.2542   7.6475   7.6476
     7.7783   7.7784   8.2815   8.2817   8.3671   8.3671   8.6133   8.6135
     8.9451   8.9452   9.0268   9.0268   9.3519   9.3519  10.0812  10.0813
    10.2248  10.2250  10.7665  10.7665  11.0305  11.0305  11.2008  11.2008
    11.6033  11.6034  12.0849  12.0850  12.3969  12.3970  12.6750  12.6751
    12.7877  12.7877  13.2066  13.2066

          k = 0.0476 0.0847 0.0000 ( 14968 PWs)   bands (ev):

   -12.5750 -12.5750 -12.0456 -12.0456 -10.9880 -10.9880  -8.3053  -8.3052
    -7.0539  -7.0539  -2.6930  -2.6919  -2.5906  -2.5881  -2.1363  -2.1358
    -1.8798  -1.8783  -1.6849  -1.6842  -1.4949  -1.4942  -1.1330  -1.1325
    -0.7956  -0.7950  -0.4522  -0.4513   0.2629   0.2638   0.6180   0.6184
     0.9603   0.9607   1.4543   1.4554   2.0018   2.0025   2.2608   2.2609
     4.2489   4.2490   4.3573   4.3575   4.9633   4.9634   5.1807   5.1808
     5.4982   5.4983   5.7719   5.7720   6.3601   6.3605   6.4800   6.4803
     6.6633   6.6634   6.8281   6.8283   7.2345   7.2345   7.6575   7.6576
     7.7492   7.7493   8.2148   8.2150   8.3335   8.3335   8.6248   8.6250
     8.8916   8.8917   9.0178   9.0179   9.3582   9.3582  10.0132  10.0133
    10.1836  10.1837  10.7565  10.7565  11.0033  11.0033  11.2490  11.2491
    11.6311  11.6311  12.1445  12.1446  12.3782  12.3782  12.6488  12.6488
    12.8403  12.8403  13.2033  13.2033

          k = 0.0429 0.0762 0.0000 ( 14968 PWs)   bands (ev):

   -12.5858 -12.5858 -12.0553 -12.0553 -10.9936 -10.9936  -8.3025  -8.3025
    -7.0341  -7.0341  -2.6609  -2.6601  -2.5367  -2.5345  -2.0711  -2.0706
    -1.8515  -1.8501  -1.6708  -1.6702  -1.4697  -1.4688  -1.1163  -1.1158
    -0.8370  -0.8364  -0.4704  -0.4696   0.2229   0.2238   0.6126   0.6131
     0.9282   0.9286   1.4211   1.4220   1.9976   1.9983   2.2219   2.2220
     4.2318   4.2319   4.3546   4.3548   4.9736   4.9737   5.2011   5.2012
     5.4987   5.4987   5.7599   5.7600   6.3743   6.3747   6.4937   6.4940
     6.6359   6.6360   6.8057   6.8058   7.2188   7.2189   7.6707   7.6709
     7.7216   7.7217   8.1505   8.1507   8.2907   8.2907   8.6478   8.6479
     8.8414   8.8415   9.0168   9.0169   9.3655   9.3655   9.9452   9.9453
    10.1374  10.1375  10.7526  10.7526  10.9740  10.9740  11.2996  11.2996
    11.6699  11.6699  12.1788  12.1789  12.3614  12.3615  12.6436  12.6437
    12.8646  12.8646  13.2153  13.2154

          k = 0.0381 0.0677 0.0000 ( 14957 PWs)   bands (ev):

   -12.5955 -12.5955 -12.0641 -12.0641 -10.9986 -10.9986  -8.3001  -8.3001
    -7.0164  -7.0164  -2.6374  -2.6369  -2.4778  -2.4759  -2.0082  -2.0077
    -1.8291  -1.8279  -1.6551  -1.6546  -1.4449  -1.4438  -1.1008  -1.1002
    -0.8755  -0.8750  -0.4970  -0.4962   0.1847   0.1855   0.6091   0.6096
     0.9020   0.9025   1.3905   1.3914   1.9913   1.9919   2.1877   2.1878
     4.2161   4.2162   4.3521   4.3522   4.9805   4.9806   5.2210   5.2211
     5.4996   5.4997   5.7554   5.7555   6.3895   6.3899   6.5046   6.5046
     6.6123   6.6126   6.7804   6.7806   7.2065   7.2066   7.6765   7.6768
     7.7022   7.7025   8.0929   8.0930   8.2454   8.2455   8.6643   8.6643
     8.8066   8.8067   9.0234   9.0235   9.3730   9.3730   9.8778   9.8779
    10.0863  10.0864  10.7536  10.7536  10.9458  10.9458  11.3490  11.3490
    11.7200  11.7200  12.1872  12.1872  12.3422  12.3423  12.6607  12.6608
    12.8603  12.8604  13.2536  13.2536

          k = 0.0333 0.0593 0.0000 ( 14961 PWs)   bands (ev):

   -12.6040 -12.6040 -12.0718 -12.0718 -11.0031 -11.0031  -8.2980  -8.2980
    -7.0007  -7.0007  -2.6191  -2.6187  -2.4184  -2.4168  -1.9483  -1.9479
    -1.8121  -1.8111  -1.6381  -1.6375  -1.4221  -1.4209  -1.0881  -1.0874
    -0.9078  -0.9073  -0.5302  -0.5294   0.1463   0.1472   0.6070   0.6074
     0.8849   0.8854   1.3611   1.3618   1.9812   1.9817   2.1605   2.1606
     4.2020   4.2021   4.3498   4.3498   4.9845   4.9846   5.2394   5.2395
     5.5005   5.5006   5.7583   5.7584   6.4035   6.4038   6.5082   6.5084
     6.5981   6.5986   6.7549   6.7552   7.1976   7.1977   7.6541   7.6543
     7.7075   7.7077   8.0457   8.0458   8.2016   8.2017   8.6554   8.6555
     8.8012   8.8013   9.0389   9.0390   9.3806   9.3807   9.8116   9.8118
    10.0310  10.0311  10.7580  10.7580  10.9198  10.9198  11.3973  11.3973
    11.7799  11.7800  12.1780  12.1780  12.3179  12.3180  12.6751  12.6751
    12.8599  12.8599  13.2976  13.2976

          k = 0.0286 0.0508 0.0000 ( 14953 PWs)   bands (ev):

   -12.6114 -12.6114 -12.0785 -12.0785 -11.0070 -11.0070  -8.2963  -8.2963
    -6.9870  -6.9870  -2.6043  -2.6040  -2.3609  -2.3595  -1.8946  -1.8944
    -1.7969  -1.7960  -1.6204  -1.6199  -1.4036  -1.4023  -1.0822  -1.0814
    -0.9285  -0.9280  -0.5672  -0.5665   0.1063   0.1070   0.6058   0.6061
     0.8789   0.8794   1.3314   1.3320   1.9665   1.9669   2.1416   2.1418
     4.1895   4.1895   4.3476   4.3477   4.9864   4.9864   5.2557   5.2557
     5.5012   5.5013   5.7678   5.7679   6.4118   6.4119   6.5039   6.5045
     6.5969   6.5978   6.7314   6.7317   7.1921   7.1922   7.6226   7.6227
     7.7135   7.7136   8.0123   8.0124   8.1613   8.1614   8.6265   8.6265
     8.8168   8.8169   9.0651   9.0651   9.3887   9.3887   9.7474   9.7475
     9.9726   9.9727  10.7643  10.7643  10.8968  10.8968  11.4456  11.4456
    11.8469  11.8469  12.1586  12.1586  12.2911  12.2912  12.6557  12.6557
    12.8953  12.8953  13.3222  13.3222

          k = 0.0238 0.0423 0.0000 ( 14947 PWs)   bands (ev):

   -12.6176 -12.6176 -12.0842 -12.0842 -11.0103 -11.0103  -8.2949  -8.2949
    -6.9755  -6.9755  -2.5922  -2.5921  -2.3071  -2.3058  -1.8565  -1.8561
    -1.7736  -1.7725  -1.6032  -1.6026  -1.3917  -1.3903  -1.0870  -1.0864
    -0.9329  -0.9323  -0.6045  -0.6038   0.0642   0.0649   0.6049   0.6052
     0.8846   0.8851   1.3003   1.3008   1.9484   1.9487   2.1305   2.1306
     4.1787   4.1787   4.3458   4.3459   4.9867   4.9867   5.2691   5.2692
     5.5018   5.5019   5.7824   5.7825   6.4080   6.4080   6.5013   6.5020
     6.6044   6.6055   6.7117   6.7122   7.1900   7.1901   7.5887   7.5887
     7.7119   7.7119   7.9941   7.9941   8.1256   8.1258   8.5936   8.5937
     8.8356   8.8357   9.1023   9.1023   9.3976   9.3977   9.6858   9.6859
     9.9123   9.9124  10.7711  10.7711  10.8769  10.8769  11.4950  11.4950
    11.9174  11.9175  12.1325  12.1326  12.2655  12.2656  12.6116  12.6116
    12.9523  12.9523  13.3220  13.3220

          k = 0.0190 0.0339 0.0000 ( 14959 PWs)   bands (ev):

   -12.6227 -12.6227 -12.0888 -12.0888 -11.0130 -11.0130  -8.2938  -8.2938
    -6.9660  -6.9660  -2.5826  -2.5826  -2.2585  -2.2575  -1.8416  -1.8410
    -1.7337  -1.7325  -1.5869  -1.5862  -1.3887  -1.3872  -1.1008  -1.1002
    -0.9233  -0.9229  -0.6379  -0.6373   0.0215   0.0221   0.6041   0.6043
     0.9007   0.9013   1.2677   1.2681   1.9295   1.9298   2.1250   2.1251
     4.1697   4.1698   4.3443   4.3443   4.9861   4.9861   5.2796   5.2796
     5.5025   5.5026   5.8001   5.8002   6.3915   6.3916   6.5063   6.5071
     6.6133   6.6145   6.6980   6.6986   7.1911   7.1912   7.5544   7.5544
     7.7033   7.7034   7.9885   7.9886   8.0954   8.0955   8.5643   8.5644
     8.8508   8.8509   9.1487   9.1487   9.4078   9.4080   9.6277   9.6278
     9.8520   9.8521  10.7775  10.7776  10.8603  10.8603  11.5457  11.5457
    11.9863  11.9864  12.1027  12.1029  12.2439  12.2439  12.5610  12.5610
    13.0014  13.0015  13.3202  13.3203

          k = 0.0143 0.0254 0.0000 ( 14972 PWs)   bands (ev):

   -12.6267 -12.6267 -12.0924 -12.0924 -11.0152 -11.0152  -8.2929  -8.2929
    -6.9587  -6.9587  -2.5753  -2.5752  -2.2170  -2.2161  -1.8404  -1.8398
    -1.6871  -1.6859  -1.5712  -1.5706  -1.3955  -1.3941  -1.1169  -1.1164
    -0.9083  -0.9080  -0.6640  -0.6635  -0.0188  -0.0183   0.6032   0.6034
     0.9246   0.9251   1.2340   1.2344   1.9125   1.9127   2.1229   2.1230
     4.1626   4.1627   4.3431   4.3431   4.9851   4.9852   5.2871   5.2872
     5.5034   5.5034   5.8186   5.8187   6.3698   6.3698   6.5151   6.5158
     6.6185   6.6196   6.6922   6.6927   7.1943   7.1944   7.5225   7.5225
     7.6915   7.6915   7.9907   7.9908   8.0709   8.0711   8.5410   8.5411
     8.8616   8.8616   9.2006   9.2007   9.4190   9.4192   9.5742   9.5743
     9.7943   9.7944  10.7831  10.7831  10.8471  10.8472  11.5965  11.5965
    12.0313  12.0315  12.0891  12.0894  12.2273  12.2273  12.5122  12.5122
    13.0217  13.0218  13.3443  13.3444

          k = 0.0095 0.0169 0.0000 ( 14967 PWs)   bands (ev):

   -12.6296 -12.6296 -12.0950 -12.0950 -11.0167 -11.0167  -8.2923  -8.2923
    -6.9534  -6.9534  -2.5701  -2.5701  -2.1845  -2.1839  -1.8440  -1.8436
    -1.6451  -1.6441  -1.5546  -1.5540  -1.4115  -1.4103  -1.1303  -1.1300
    -0.8954  -0.8952  -0.6802  -0.6799  -0.0526  -0.0523   0.6025   0.6026
     0.9519   0.9523   1.2015   1.2018   1.8992   1.8993   2.1225   2.1226
     4.1575   4.1576   4.3422   4.3422   4.9842   4.9842   5.2921   5.2921
     5.5042   5.5043   5.8350   5.8351   6.3496   6.3496   6.5235   6.5240
     6.6189   6.6197   6.6932   6.6937   7.1984   7.1985   7.4963   7.4963
     7.6802   7.6802   7.9958   7.9960   8.0527   8.0529   8.5245   8.5245
     8.8686   8.8686   9.2533   9.2535   9.4286   9.4289   9.5283   9.5284
     9.7435   9.7435  10.7874  10.7874  10.8374  10.8375  11.6439  11.6439
    12.0109  12.0110  12.1324  12.1326  12.2158  12.2159  12.4693  12.4694
    13.0154  13.0154  13.3955  13.3956

          k = 0.0048 0.0085 0.0000 ( 14967 PWs)   bands (ev):

   -12.6313 -12.6313 -12.0966 -12.0966 -11.0176 -11.0176  -8.2919  -8.2919
    -6.9502  -6.9502  -2.5670  -2.5670  -2.1634  -2.1631  -1.8479  -1.8477
    -1.6169  -1.6164  -1.5353  -1.5349  -1.4324  -1.4315  -1.1389  -1.1387
    -0.8878  -0.8877  -0.6876  -0.6874  -0.0755  -0.0753   0.6020   0.6021
     0.9757   0.9759   1.1753   1.1755   1.8909   1.8910   2.1227   2.1227
     4.1545   4.1545   4.3416   4.3417   4.9835   4.9835   5.2948   5.2948
     5.5049   5.5049   5.8465   5.8465   6.3354   6.3355   6.5294   6.5296
     6.6171   6.6176   6.6967   6.6969   7.2018   7.2018   7.4790   7.4790
     7.6722   7.6723   8.0006   8.0007   8.0411   8.0413   8.5147   8.5148
     8.8726   8.8726   9.2999   9.3001   9.4281   9.4284   9.4985   9.4987
     9.7063   9.7063  10.7902  10.7902  10.8314  10.8314  11.6809  11.6809
    11.9817  11.9817  12.1758  12.1760  12.2089  12.2091  12.4371  12.4371
    13.0020  13.0020  13.4499  13.4499

          k = 0.0000 0.0000 0.0000 ( 14963 PWs)   bands (ev):

   -12.6319 -12.6319 -12.0971 -12.0971 -11.0179 -11.0179  -8.2918  -8.2918
    -6.9492  -6.9492  -2.5660  -2.5660  -2.1560  -2.1560  -1.8495  -1.8495
    -1.6075  -1.6075  -1.5233  -1.5233  -1.4441  -1.4441  -1.1417  -1.1417
    -0.8854  -0.8854  -0.6893  -0.6893  -0.0835  -0.0835   0.6018   0.6018
     0.9859   0.9859   1.1646   1.1646   1.8881   1.8881   2.1228   2.1228
     4.1534   4.1534   4.3415   4.3415   4.9833   4.9833   5.2957   5.2957
     5.5051   5.5051   5.8506   5.8506   6.3304   6.3304   6.5315   6.5315
     6.6163   6.6163   6.6984   6.6984   7.2031   7.2031   7.4730   7.4730
     7.6694   7.6694   8.0027   8.0027   8.0371   8.0371   8.5115   8.5115
     8.8739   8.8739   9.3226   9.3226   9.4203   9.4203   9.4911   9.4911
     9.6922   9.6922  10.7912  10.7912  10.8293  10.8293  11.6956  11.6956
    11.9691  11.9691  12.1940  12.1940  12.2060  12.2060  12.4242  12.4242
    12.9959  12.9959  13.4748  13.4748

     Writing all to output data dir tmp/Sb2Te3-uatsx-c6-soc-4.0.save/ :
     XML data file, pseudopotentials, collected wavefunctions

     init_run     :      1.88s CPU      1.89s WALL (       1 calls)
     electrons    :   2288.33s CPU   1237.97s WALL (       1 calls)

     Called by init_run:
     wfcinit      :      0.00s CPU      0.00s WALL (       1 calls)
     wfcinit:atom :      0.14s CPU      0.08s WALL (     211 calls)
     wfcinit:wfcr :     44.91s CPU     23.48s WALL (     211 calls)
     potinit      :      0.50s CPU      0.48s WALL (       1 calls)
     hinit0       :      0.73s CPU      0.76s WALL (       1 calls)

     Called by electrons:
     c_bands      :   2288.32s CPU   1237.95s WALL (       1 calls)
     v_of_rho     :      0.05s CPU      0.03s WALL (       1 calls)
     v_h          :      0.00s CPU      0.00s WALL (       1 calls)
     v_xc         :      0.04s CPU      0.03s WALL (       1 calls)
     newd         :      0.55s CPU      0.54s WALL (       1 calls)

     Called by c_bands:
     init_us_2    :      0.23s CPU      0.19s WALL (     211 calls)
     cegterg      :   2235.73s CPU   1207.45s WALL (     888 calls)

     Called by sum_band:

     Called by *egterg:
     cdiaghg      :    342.52s CPU    229.96s WALL (   15938 calls)
     cegterg:over :    127.16s CPU     67.40s WALL (   15727 calls)
     cegterg:upda :     72.79s CPU     34.50s WALL (   15727 calls)
     cegterg:last :    174.69s CPU     87.99s WALL (    7858 calls)
     h_psi        :   1407.82s CPU    722.41s WALL (   16826 calls)
     s_psi        :     95.89s CPU     54.39s WALL (   16826 calls)
     g_psi        :      7.62s CPU      5.17s WALL (   15727 calls)

     Called by h_psi:
     h_psi:calbec :     76.08s CPU     38.19s WALL (   16826 calls)
     vloc_psi     :   1246.26s CPU    633.41s WALL (   16826 calls)
     add_vuspsi   :     80.91s CPU     48.39s WALL (   16826 calls)

     General routines
     calbec       :     76.00s CPU     38.15s WALL (   16826 calls)
     fft          :      0.64s CPU      0.64s WALL (      19 calls)
     ffts         :      0.42s CPU      0.42s WALL (       4 calls)
     fftw         :    907.81s CPU    460.70s WALL ( 3121584 calls)
     interpolate  :      0.43s CPU      0.43s WALL (       4 calls)
     davcio       :      0.26s CPU      1.61s WALL (     422 calls)

     Parallel routines

     PWSCF        :  38m27.15s CPU  22m 9.77s WALL


   This run was terminated on:  23:46:31  22Aug2025            

=------------------------------------------------------------------------------=
   JOB DONE.
=------------------------------------------------------------------------------=
