
     Program PWSCF v.7.4.1 starts on 14Aug2025 at 21: 3:13 

     This program is part of the open-source Quantum ESPRESSO suite
     for quantum simulation of materials; please cite
         "P. Giannozzi et al., J. Phys.:Condens. Matter 21 395502 (2009);
         "P. Giannozzi et al., J. Phys.:Condens. Matter 29 465901 (2017);
         "P. Giannozzi et al., J. Chem. Phys. 152 154105 (2020);
          URL http://www.quantum-espresso.org", 
     in publications or presentations arising from this work. More details at
     http://www.quantum-espresso.org/quote

     Parallel version (MPI & OpenMP), running on      48 processor cores
     Number of MPI processes:                24
     Threads/MPI process:                     2

     MPI processes distributed on     2 nodes
     106715 MiB available memory on the printing compute node when the environment starts

     Waiting for input...
     Reading input from standard input

     Current dimensions of program PWSCF are:
     Max number of different atomic species (ntypx) = 10
     Max number of k-points (npk) =  40000
     Max angular momentum in pseudopotentials (lmaxx) =  4
Error reading attribute index: expected integer, found *
Error reading attribute index: expected integer, found *

     IMPORTANT: XC functional enforced from input :
     Exchange-correlation= PBE
                           (   1   4   3   4   0   0   0)
     Any further DFT definition will be discarded
     Please, verify this is what you really want


     Atomic positions and unit cell read from directory:
     tmp/Sb2Te3-uatsx-c4-soc-1.0.save/

     Message from routine setup:
     no reason to have ecutrho>4*ecutwfc

     R & G space division:  proc/nbgrp/npool/nimage =      24
     Subspace diagonalization in iterative solution of the eigenvalue problem:
     a serial algorithm will be used


     Parallelization info
     --------------------
     sticks:   dense  smooth     PW     G-vecs:    dense   smooth      PW
     Min          96      38     10                19112     4832     726
     Max          97      39     11                19125     4855     757
     Sum        2311     925    261               458817   116185   17833

     Using Slab Decomposition



     bravais-lattice index     =            0
     lattice parameter (alat)  =       8.2271  a.u.
     unit-cell volume          =    2430.6623 (a.u.)^3
     number of atoms/cell      =            5
     number of atomic types    =            2
     number of electrons       =        78.00
     number of Kohn-Sham states=          100
     kinetic-energy cutoff     =      50.0000  Ry
     charge density cutoff     =     500.0000  Ry
     Exchange-correlation= PBE
                           (   1   4   3   4   0   0   0)
     Non magnetic calculation with spin-orbit


     celldm(1)=   8.227090  celldm(2)=   0.000000  celldm(3)=   0.000000
     celldm(4)=   0.000000  celldm(5)=   0.000000  celldm(6)=   0.000000

     crystal axes: (cart. coord. in units of alat)
               a(1) = (   1.000000   0.000000   0.000000 )  
               a(2) = (  -0.495050   0.857443   0.000000 )  
               a(3) = (   0.000000   0.000000   5.090739 )  

     reciprocal axes: (cart. coord. in units 2 pi/alat)
               b(1) = (  1.000000  0.577356 -0.000000 )  
               b(2) = (  0.000000  1.166259  0.000000 )  
               b(3) = (  0.000000 -0.000000  0.196435 )  


     PseudoPot. # 1 for Sb read from file:
     /zfs-home/202401017n1/pseudos/Sb_ONCV_PBE_FR-1.1.upf
     MD5 check sum: 7dc1726f2158e3c51e4807d42b9c5c65
     Pseudo is Norm-conserving, Zval = 15.0
     Generated using ONCVPSP code by D. R. Hamann
     Using radial grid of  602 points, 10 beta functions with: 
                l(1) =   0
                l(2) =   0
                l(3) =   1
                l(4) =   1
                l(5) =   1
                l(6) =   1
                l(7) =   2
                l(8) =   2
                l(9) =   2
               l(10) =   2

     PseudoPot. # 2 for Te read from file:
     /zfs-home/202401017n1/pseudos/Te_ONCV_PBE_FR-1.1.upf
     MD5 check sum: c6e17480449037a9a9d16e6377b5c7c4
     Pseudo is Norm-conserving, Zval = 16.0
     Generated using ONCVPSP code by D. R. Hamann
     Using radial grid of  602 points, 10 beta functions with: 
                l(1) =   0
                l(2) =   0
                l(3) =   1
                l(4) =   1
                l(5) =   1
                l(6) =   1
                l(7) =   2
                l(8) =   2
                l(9) =   2
               l(10) =   2

     atomic species   valence    mass     pseudopotential
     Sb               15.00   121.76000     Sb( 1.00)
     Te               16.00   127.60000     Te( 1.00)

     No symmetry found


                                    s                        frac. trans.

      isym =  1     identity                                     

 cryst.   s( 1) = (     1          0          0      )
                  (     0          1          0      )
                  (     0          0          1      )

 cart.    s( 1) = (  1.0000000  0.0000000  0.0000000 )
                  (  0.0000000  1.0000000  0.0000000 )
                  (  0.0000000  0.0000000  1.0000000 )


   Cartesian axes

     site n.     atom                  positions (alat units)
         1        Sb     tau(   1) = (   0.5788554   0.4207610   3.0040749  )
         2        Te     tau(   2) = (   0.5752577   0.4138624   1.6972962  )
         3        Sb     tau(   3) = (   0.0743102   0.1298379   2.0866212  )
         4        Te     tau(   4) = (   0.0782247   0.1361538   3.3933943  )
         5        Te     tau(   5) = (   0.0792404   0.7036244   2.5453648  )

     -------------------------------------------------
     Parameters for Dispersion (Grimme-D2) Correction:
     -------------------------------------------------
       atom      VdW radius       C_6     

        Sb         3.555       1333.532
        Te         3.575       1101.101

   Crystallographic axes

     site n.     atom                  positions (cryst. coord.)
         1        Sb     tau(   1) = (  0.8217842  0.4907162  0.5901058  )
         2        Te     tau(   2) = (  0.8142035  0.4826706  0.3334086  )
         3        Sb     tau(   3) = (  0.1492728  0.1514246  0.4098857  )
         4        Te     tau(   4) = (  0.1568340  0.1587906  0.6665818  )
         5        Te     tau(   5) = (  0.4854821  0.8206082  0.4999990  )

     number of k points=   211
                       cart. coord. in units 2pi/alat
        k(    1) = (   0.0000000   0.0000000   0.0000000), wk =   0.0047393
        k(    2) = (   0.0071429   0.0041240   0.0000000), wk =   0.0047393
        k(    3) = (   0.0142857   0.0082479   0.0000000), wk =   0.0047393
        k(    4) = (   0.0214286   0.0123719   0.0000000), wk =   0.0047393
        k(    5) = (   0.0285714   0.0164959   0.0000000), wk =   0.0047393
        k(    6) = (   0.0357143   0.0206199   0.0000000), wk =   0.0047393
        k(    7) = (   0.0428571   0.0247438   0.0000000), wk =   0.0047393
        k(    8) = (   0.0500000   0.0288678   0.0000000), wk =   0.0047393
        k(    9) = (   0.0571429   0.0329918   0.0000000), wk =   0.0047393
        k(   10) = (   0.0642857   0.0371157   0.0000000), wk =   0.0047393
        k(   11) = (   0.0714286   0.0412397   0.0000000), wk =   0.0047393
        k(   12) = (   0.0785714   0.0453637   0.0000000), wk =   0.0047393
        k(   13) = (   0.0857143   0.0494876   0.0000000), wk =   0.0047393
        k(   14) = (   0.0928571   0.0536116   0.0000000), wk =   0.0047393
        k(   15) = (   0.1000000   0.0577356   0.0000000), wk =   0.0047393
        k(   16) = (   0.1071429   0.0618596   0.0000000), wk =   0.0047393
        k(   17) = (   0.1142857   0.0659835   0.0000000), wk =   0.0047393
        k(   18) = (   0.1214286   0.0701075   0.0000000), wk =   0.0047393
        k(   19) = (   0.1285714   0.0742315   0.0000000), wk =   0.0047393
        k(   20) = (   0.1357143   0.0783554   0.0000000), wk =   0.0047393
        k(   21) = (   0.1428571   0.0824794   0.0000000), wk =   0.0047393
        k(   22) = (   0.1500000   0.0866034   0.0000000), wk =   0.0047393
        k(   23) = (   0.1571429   0.0907273   0.0000000), wk =   0.0047393
        k(   24) = (   0.1642857   0.0948513   0.0000000), wk =   0.0047393
        k(   25) = (   0.1714286   0.0989753   0.0000000), wk =   0.0047393
        k(   26) = (   0.1785714   0.1030993   0.0000000), wk =   0.0047393
        k(   27) = (   0.1857143   0.1072232   0.0000000), wk =   0.0047393
        k(   28) = (   0.1928571   0.1113472   0.0000000), wk =   0.0047393
        k(   29) = (   0.2000000   0.1154712   0.0000000), wk =   0.0047393
        k(   30) = (   0.2071429   0.1195951   0.0000000), wk =   0.0047393
        k(   31) = (   0.2142857   0.1237191   0.0000000), wk =   0.0047393
        k(   32) = (   0.2214286   0.1278431   0.0000000), wk =   0.0047393
        k(   33) = (   0.2285714   0.1319671   0.0000000), wk =   0.0047393
        k(   34) = (   0.2357143   0.1360910   0.0000000), wk =   0.0047393
        k(   35) = (   0.2428571   0.1402150   0.0000000), wk =   0.0047393
        k(   36) = (   0.2500000   0.1443390   0.0000000), wk =   0.0047393
        k(   37) = (   0.2571429   0.1484629   0.0000000), wk =   0.0047393
        k(   38) = (   0.2642857   0.1525869   0.0000000), wk =   0.0047393
        k(   39) = (   0.2714286   0.1567109   0.0000000), wk =   0.0047393
        k(   40) = (   0.2785714   0.1608348   0.0000000), wk =   0.0047393
        k(   41) = (   0.2857143   0.1649588   0.0000000), wk =   0.0047393
        k(   42) = (   0.2928571   0.1690828   0.0000000), wk =   0.0047393
        k(   43) = (   0.3000000   0.1732068   0.0000000), wk =   0.0047393
        k(   44) = (   0.3071429   0.1773307   0.0000000), wk =   0.0047393
        k(   45) = (   0.3142857   0.1814547   0.0000000), wk =   0.0047393
        k(   46) = (   0.3214286   0.1855787   0.0000000), wk =   0.0047393
        k(   47) = (   0.3285714   0.1897026   0.0000000), wk =   0.0047393
        k(   48) = (   0.3357143   0.1938266   0.0000000), wk =   0.0047393
        k(   49) = (   0.3428571   0.1979506   0.0000000), wk =   0.0047393
        k(   50) = (   0.3500000   0.2020745   0.0000000), wk =   0.0047393
        k(   51) = (   0.3571429   0.2061985   0.0000000), wk =   0.0047393
        k(   52) = (   0.3642857   0.2103225   0.0000000), wk =   0.0047393
        k(   53) = (   0.3714286   0.2144465   0.0000000), wk =   0.0047393
        k(   54) = (   0.3785714   0.2185704   0.0000000), wk =   0.0047393
        k(   55) = (   0.3857143   0.2226944   0.0000000), wk =   0.0047393
        k(   56) = (   0.3928571   0.2268184   0.0000000), wk =   0.0047393
        k(   57) = (   0.4000000   0.2309423   0.0000000), wk =   0.0047393
        k(   58) = (   0.4071429   0.2350663   0.0000000), wk =   0.0047393
        k(   59) = (   0.4142857   0.2391903   0.0000000), wk =   0.0047393
        k(   60) = (   0.4214286   0.2433143   0.0000000), wk =   0.0047393
        k(   61) = (   0.4285714   0.2474382   0.0000000), wk =   0.0047393
        k(   62) = (   0.4357143   0.2515622   0.0000000), wk =   0.0047393
        k(   63) = (   0.4428571   0.2556862   0.0000000), wk =   0.0047393
        k(   64) = (   0.4500000   0.2598101   0.0000000), wk =   0.0047393
        k(   65) = (   0.4571429   0.2639341   0.0000000), wk =   0.0047393
        k(   66) = (   0.4642857   0.2680581   0.0000000), wk =   0.0047393
        k(   67) = (   0.4714286   0.2721820   0.0000000), wk =   0.0047393
        k(   68) = (   0.4785714   0.2763060   0.0000000), wk =   0.0047393
        k(   69) = (   0.4857143   0.2804300   0.0000000), wk =   0.0047393
        k(   70) = (   0.4928571   0.2845540   0.0000000), wk =   0.0047393
        k(   71) = (   0.5000000   0.2886779   0.0000000), wk =   0.0047393
        k(   72) = (   0.4976190   0.2928569   0.0000000), wk =   0.0047393
        k(   73) = (   0.4952381   0.2970358   0.0000000), wk =   0.0047393
        k(   74) = (   0.4928571   0.3012148   0.0000000), wk =   0.0047393
        k(   75) = (   0.4904762   0.3053938   0.0000000), wk =   0.0047393
        k(   76) = (   0.4880952   0.3095727   0.0000000), wk =   0.0047393
        k(   77) = (   0.4857143   0.3137517   0.0000000), wk =   0.0047393
        k(   78) = (   0.4833333   0.3179306   0.0000000), wk =   0.0047393
        k(   79) = (   0.4809524   0.3221096   0.0000000), wk =   0.0047393
        k(   80) = (   0.4785714   0.3262885   0.0000000), wk =   0.0047393
        k(   81) = (   0.4761905   0.3304675   0.0000000), wk =   0.0047393
        k(   82) = (   0.4738095   0.3346464   0.0000000), wk =   0.0047393
        k(   83) = (   0.4714286   0.3388254   0.0000000), wk =   0.0047393
        k(   84) = (   0.4690476   0.3430044   0.0000000), wk =   0.0047393
        k(   85) = (   0.4666667   0.3471833   0.0000000), wk =   0.0047393
        k(   86) = (   0.4642857   0.3513623   0.0000000), wk =   0.0047393
        k(   87) = (   0.4619048   0.3555412   0.0000000), wk =   0.0047393
        k(   88) = (   0.4595238   0.3597202   0.0000000), wk =   0.0047393
        k(   89) = (   0.4571429   0.3638991   0.0000000), wk =   0.0047393
        k(   90) = (   0.4547619   0.3680781   0.0000000), wk =   0.0047393
        k(   91) = (   0.4523810   0.3722571   0.0000000), wk =   0.0047393
        k(   92) = (   0.4500000   0.3764360   0.0000000), wk =   0.0047393
        k(   93) = (   0.4476190   0.3806150   0.0000000), wk =   0.0047393
        k(   94) = (   0.4452381   0.3847939   0.0000000), wk =   0.0047393
        k(   95) = (   0.4428571   0.3889729   0.0000000), wk =   0.0047393
        k(   96) = (   0.4404762   0.3931518   0.0000000), wk =   0.0047393
        k(   97) = (   0.4380952   0.3973308   0.0000000), wk =   0.0047393
        k(   98) = (   0.4357143   0.4015098   0.0000000), wk =   0.0047393
        k(   99) = (   0.4333333   0.4056887   0.0000000), wk =   0.0047393
        k(  100) = (   0.4309524   0.4098677   0.0000000), wk =   0.0047393
        k(  101) = (   0.4285714   0.4140466   0.0000000), wk =   0.0047393
        k(  102) = (   0.4261905   0.4182256   0.0000000), wk =   0.0047393
        k(  103) = (   0.4238095   0.4224045   0.0000000), wk =   0.0047393
        k(  104) = (   0.4214286   0.4265835   0.0000000), wk =   0.0047393
        k(  105) = (   0.4190476   0.4307625   0.0000000), wk =   0.0047393
        k(  106) = (   0.4166667   0.4349414   0.0000000), wk =   0.0047393
        k(  107) = (   0.4142857   0.4391204   0.0000000), wk =   0.0047393
        k(  108) = (   0.4119048   0.4432993   0.0000000), wk =   0.0047393
        k(  109) = (   0.4095238   0.4474783   0.0000000), wk =   0.0047393
        k(  110) = (   0.4071429   0.4516572   0.0000000), wk =   0.0047393
        k(  111) = (   0.4047619   0.4558362   0.0000000), wk =   0.0047393
        k(  112) = (   0.4023810   0.4600151   0.0000000), wk =   0.0047393
        k(  113) = (   0.4000000   0.4641941   0.0000000), wk =   0.0047393
        k(  114) = (   0.3976190   0.4683731   0.0000000), wk =   0.0047393
        k(  115) = (   0.3952381   0.4725520   0.0000000), wk =   0.0047393
        k(  116) = (   0.3928571   0.4767310   0.0000000), wk =   0.0047393
        k(  117) = (   0.3904762   0.4809099   0.0000000), wk =   0.0047393
        k(  118) = (   0.3880952   0.4850889   0.0000000), wk =   0.0047393
        k(  119) = (   0.3857143   0.4892678   0.0000000), wk =   0.0047393
        k(  120) = (   0.3833333   0.4934468   0.0000000), wk =   0.0047393
        k(  121) = (   0.3809524   0.4976258   0.0000000), wk =   0.0047393
        k(  122) = (   0.3785714   0.5018047   0.0000000), wk =   0.0047393
        k(  123) = (   0.3761905   0.5059837   0.0000000), wk =   0.0047393
        k(  124) = (   0.3738095   0.5101626   0.0000000), wk =   0.0047393
        k(  125) = (   0.3714286   0.5143416   0.0000000), wk =   0.0047393
        k(  126) = (   0.3690476   0.5185205   0.0000000), wk =   0.0047393
        k(  127) = (   0.3666667   0.5226995   0.0000000), wk =   0.0047393
        k(  128) = (   0.3642857   0.5268785   0.0000000), wk =   0.0047393
        k(  129) = (   0.3619048   0.5310574   0.0000000), wk =   0.0047393
        k(  130) = (   0.3595238   0.5352364   0.0000000), wk =   0.0047393
        k(  131) = (   0.3571429   0.5394153   0.0000000), wk =   0.0047393
        k(  132) = (   0.3547619   0.5435943   0.0000000), wk =   0.0047393
        k(  133) = (   0.3523810   0.5477732   0.0000000), wk =   0.0047393
        k(  134) = (   0.3500000   0.5519522   0.0000000), wk =   0.0047393
        k(  135) = (   0.3476190   0.5561312   0.0000000), wk =   0.0047393
        k(  136) = (   0.3452381   0.5603101   0.0000000), wk =   0.0047393
        k(  137) = (   0.3428571   0.5644891   0.0000000), wk =   0.0047393
        k(  138) = (   0.3404762   0.5686680   0.0000000), wk =   0.0047393
        k(  139) = (   0.3380952   0.5728470   0.0000000), wk =   0.0047393
        k(  140) = (   0.3357143   0.5770259   0.0000000), wk =   0.0047393
        k(  141) = (   0.3333333   0.5812049   0.0000000), wk =   0.0047393
        k(  142) = (   0.3285714   0.5729020   0.0000000), wk =   0.0047393
        k(  143) = (   0.3238095   0.5645990   0.0000000), wk =   0.0047393
        k(  144) = (   0.3190476   0.5562961   0.0000000), wk =   0.0047393
        k(  145) = (   0.3142857   0.5479932   0.0000000), wk =   0.0047393
        k(  146) = (   0.3095238   0.5396903   0.0000000), wk =   0.0047393
        k(  147) = (   0.3047619   0.5313873   0.0000000), wk =   0.0047393
        k(  148) = (   0.3000000   0.5230844   0.0000000), wk =   0.0047393
        k(  149) = (   0.2952381   0.5147815   0.0000000), wk =   0.0047393
        k(  150) = (   0.2904762   0.5064785   0.0000000), wk =   0.0047393
        k(  151) = (   0.2857143   0.4981756   0.0000000), wk =   0.0047393
        k(  152) = (   0.2809524   0.4898727   0.0000000), wk =   0.0047393
        k(  153) = (   0.2761905   0.4815698   0.0000000), wk =   0.0047393
        k(  154) = (   0.2714286   0.4732668   0.0000000), wk =   0.0047393
        k(  155) = (   0.2666667   0.4649639   0.0000000), wk =   0.0047393
        k(  156) = (   0.2619048   0.4566610   0.0000000), wk =   0.0047393
        k(  157) = (   0.2571429   0.4483581   0.0000000), wk =   0.0047393
        k(  158) = (   0.2523810   0.4400551   0.0000000), wk =   0.0047393
        k(  159) = (   0.2476190   0.4317522   0.0000000), wk =   0.0047393
        k(  160) = (   0.2428571   0.4234493   0.0000000), wk =   0.0047393
        k(  161) = (   0.2380952   0.4151464   0.0000000), wk =   0.0047393
        k(  162) = (   0.2333333   0.4068434   0.0000000), wk =   0.0047393
        k(  163) = (   0.2285714   0.3985405   0.0000000), wk =   0.0047393
        k(  164) = (   0.2238095   0.3902376   0.0000000), wk =   0.0047393
        k(  165) = (   0.2190476   0.3819346   0.0000000), wk =   0.0047393
        k(  166) = (   0.2142857   0.3736317   0.0000000), wk =   0.0047393
        k(  167) = (   0.2095238   0.3653288   0.0000000), wk =   0.0047393
        k(  168) = (   0.2047619   0.3570259   0.0000000), wk =   0.0047393
        k(  169) = (   0.2000000   0.3487229   0.0000000), wk =   0.0047393
        k(  170) = (   0.1952381   0.3404200   0.0000000), wk =   0.0047393
        k(  171) = (   0.1904762   0.3321171   0.0000000), wk =   0.0047393
        k(  172) = (   0.1857143   0.3238142   0.0000000), wk =   0.0047393
        k(  173) = (   0.1809524   0.3155112   0.0000000), wk =   0.0047393
        k(  174) = (   0.1761905   0.3072083   0.0000000), wk =   0.0047393
        k(  175) = (   0.1714286   0.2989054   0.0000000), wk =   0.0047393
        k(  176) = (   0.1666667   0.2906024   0.0000000), wk =   0.0047393
        k(  177) = (   0.1619048   0.2822995   0.0000000), wk =   0.0047393
        k(  178) = (   0.1571429   0.2739966   0.0000000), wk =   0.0047393
        k(  179) = (   0.1523810   0.2656937   0.0000000), wk =   0.0047393
        k(  180) = (   0.1476190   0.2573907   0.0000000), wk =   0.0047393
        k(  181) = (   0.1428571   0.2490878   0.0000000), wk =   0.0047393
        k(  182) = (   0.1380952   0.2407849   0.0000000), wk =   0.0047393
        k(  183) = (   0.1333333   0.2324820   0.0000000), wk =   0.0047393
        k(  184) = (   0.1285714   0.2241790   0.0000000), wk =   0.0047393
        k(  185) = (   0.1238095   0.2158761   0.0000000), wk =   0.0047393
        k(  186) = (   0.1190476   0.2075732   0.0000000), wk =   0.0047393
        k(  187) = (   0.1142857   0.1992702   0.0000000), wk =   0.0047393
        k(  188) = (   0.1095238   0.1909673   0.0000000), wk =   0.0047393
        k(  189) = (   0.1047619   0.1826644   0.0000000), wk =   0.0047393
        k(  190) = (   0.1000000   0.1743615   0.0000000), wk =   0.0047393
        k(  191) = (   0.0952381   0.1660585   0.0000000), wk =   0.0047393
        k(  192) = (   0.0904762   0.1577556   0.0000000), wk =   0.0047393
        k(  193) = (   0.0857143   0.1494527   0.0000000), wk =   0.0047393
        k(  194) = (   0.0809524   0.1411498   0.0000000), wk =   0.0047393
        k(  195) = (   0.0761905   0.1328468   0.0000000), wk =   0.0047393
        k(  196) = (   0.0714286   0.1245439   0.0000000), wk =   0.0047393
        k(  197) = (   0.0666667   0.1162410   0.0000000), wk =   0.0047393
        k(  198) = (   0.0619048   0.1079381   0.0000000), wk =   0.0047393
        k(  199) = (   0.0571429   0.0996351   0.0000000), wk =   0.0047393
        k(  200) = (   0.0523810   0.0913322   0.0000000), wk =   0.0047393
        k(  201) = (   0.0476190   0.0830293   0.0000000), wk =   0.0047393
        k(  202) = (   0.0428571   0.0747263   0.0000000), wk =   0.0047393
        k(  203) = (   0.0380952   0.0664234   0.0000000), wk =   0.0047393
        k(  204) = (   0.0333333   0.0581205   0.0000000), wk =   0.0047393
        k(  205) = (   0.0285714   0.0498176   0.0000000), wk =   0.0047393
        k(  206) = (   0.0238095   0.0415146   0.0000000), wk =   0.0047393
        k(  207) = (   0.0190476   0.0332117   0.0000000), wk =   0.0047393
        k(  208) = (   0.0142857   0.0249088   0.0000000), wk =   0.0047393
        k(  209) = (   0.0095238   0.0166059   0.0000000), wk =   0.0047393
        k(  210) = (   0.0047619   0.0083029   0.0000000), wk =   0.0047393
        k(  211) = (   0.0000000   0.0000000   0.0000000), wk =   0.0047393

                       cryst. coord.
        k(    1) = (   0.0000000   0.0000000   0.0000000), wk =   0.0047393
        k(    2) = (   0.0071429   0.0000000   0.0000000), wk =   0.0047393
        k(    3) = (   0.0142857   0.0000000   0.0000000), wk =   0.0047393
        k(    4) = (   0.0214286   0.0000000   0.0000000), wk =   0.0047393
        k(    5) = (   0.0285714   0.0000000   0.0000000), wk =   0.0047393
        k(    6) = (   0.0357143  -0.0000000   0.0000000), wk =   0.0047393
        k(    7) = (   0.0428571   0.0000000   0.0000000), wk =   0.0047393
        k(    8) = (   0.0500000   0.0000000   0.0000000), wk =   0.0047393
        k(    9) = (   0.0571429   0.0000000   0.0000000), wk =   0.0047393
        k(   10) = (   0.0642857   0.0000000   0.0000000), wk =   0.0047393
        k(   11) = (   0.0714286  -0.0000000   0.0000000), wk =   0.0047393
        k(   12) = (   0.0785714  -0.0000000   0.0000000), wk =   0.0047393
        k(   13) = (   0.0857143   0.0000000   0.0000000), wk =   0.0047393
        k(   14) = (   0.0928571   0.0000000   0.0000000), wk =   0.0047393
        k(   15) = (   0.1000000   0.0000000   0.0000000), wk =   0.0047393
        k(   16) = (   0.1071429  -0.0000000   0.0000000), wk =   0.0047393
        k(   17) = (   0.1142857   0.0000000   0.0000000), wk =   0.0047393
        k(   18) = (   0.1214286   0.0000000   0.0000000), wk =   0.0047393
        k(   19) = (   0.1285714   0.0000000   0.0000000), wk =   0.0047393
        k(   20) = (   0.1357143   0.0000000   0.0000000), wk =   0.0047393
        k(   21) = (   0.1428571  -0.0000000   0.0000000), wk =   0.0047393
        k(   22) = (   0.1500000  -0.0000000   0.0000000), wk =   0.0047393
        k(   23) = (   0.1571429  -0.0000000   0.0000000), wk =   0.0047393
        k(   24) = (   0.1642857   0.0000000   0.0000000), wk =   0.0047393
        k(   25) = (   0.1714286   0.0000000   0.0000000), wk =   0.0047393
        k(   26) = (   0.1785714   0.0000000   0.0000000), wk =   0.0047393
        k(   27) = (   0.1857143   0.0000000   0.0000000), wk =   0.0047393
        k(   28) = (   0.1928571   0.0000000   0.0000000), wk =   0.0047393
        k(   29) = (   0.2000000   0.0000000   0.0000000), wk =   0.0047393
        k(   30) = (   0.2071429   0.0000000   0.0000000), wk =   0.0047393
        k(   31) = (   0.2142857  -0.0000000   0.0000000), wk =   0.0047393
        k(   32) = (   0.2214286   0.0000000   0.0000000), wk =   0.0047393
        k(   33) = (   0.2285714   0.0000000   0.0000000), wk =   0.0047393
        k(   34) = (   0.2357143   0.0000000   0.0000000), wk =   0.0047393
        k(   35) = (   0.2428571   0.0000000   0.0000000), wk =   0.0047393
        k(   36) = (   0.2500000   0.0000000   0.0000000), wk =   0.0047393
        k(   37) = (   0.2571429   0.0000000   0.0000000), wk =   0.0047393
        k(   38) = (   0.2642857  -0.0000000   0.0000000), wk =   0.0047393
        k(   39) = (   0.2714286   0.0000000   0.0000000), wk =   0.0047393
        k(   40) = (   0.2785714  -0.0000000   0.0000000), wk =   0.0047393
        k(   41) = (   0.2857143  -0.0000000   0.0000000), wk =   0.0047393
        k(   42) = (   0.2928571   0.0000000   0.0000000), wk =   0.0047393
        k(   43) = (   0.3000000  -0.0000000   0.0000000), wk =   0.0047393
        k(   44) = (   0.3071429   0.0000000   0.0000000), wk =   0.0047393
        k(   45) = (   0.3142857  -0.0000000   0.0000000), wk =   0.0047393
        k(   46) = (   0.3214286   0.0000000   0.0000000), wk =   0.0047393
        k(   47) = (   0.3285714   0.0000000   0.0000000), wk =   0.0047393
        k(   48) = (   0.3357143   0.0000000   0.0000000), wk =   0.0047393
        k(   49) = (   0.3428571   0.0000000   0.0000000), wk =   0.0047393
        k(   50) = (   0.3500000  -0.0000000   0.0000000), wk =   0.0047393
        k(   51) = (   0.3571429   0.0000000   0.0000000), wk =   0.0047393
        k(   52) = (   0.3642857   0.0000000   0.0000000), wk =   0.0047393
        k(   53) = (   0.3714286   0.0000000   0.0000000), wk =   0.0047393
        k(   54) = (   0.3785714   0.0000000   0.0000000), wk =   0.0047393
        k(   55) = (   0.3857143   0.0000000   0.0000000), wk =   0.0047393
        k(   56) = (   0.3928571   0.0000000   0.0000000), wk =   0.0047393
        k(   57) = (   0.4000000   0.0000000   0.0000000), wk =   0.0047393
        k(   58) = (   0.4071429   0.0000000   0.0000000), wk =   0.0047393
        k(   59) = (   0.4142857   0.0000000   0.0000000), wk =   0.0047393
        k(   60) = (   0.4214286  -0.0000000   0.0000000), wk =   0.0047393
        k(   61) = (   0.4285714  -0.0000000   0.0000000), wk =   0.0047393
        k(   62) = (   0.4357143   0.0000000   0.0000000), wk =   0.0047393
        k(   63) = (   0.4428571   0.0000000   0.0000000), wk =   0.0047393
        k(   64) = (   0.4500000  -0.0000000   0.0000000), wk =   0.0047393
        k(   65) = (   0.4571429   0.0000000   0.0000000), wk =   0.0047393
        k(   66) = (   0.4642857  -0.0000000   0.0000000), wk =   0.0047393
        k(   67) = (   0.4714286   0.0000000   0.0000000), wk =   0.0047393
        k(   68) = (   0.4785714   0.0000000   0.0000000), wk =   0.0047393
        k(   69) = (   0.4857143   0.0000000   0.0000000), wk =   0.0047393
        k(   70) = (   0.4928571   0.0000000   0.0000000), wk =   0.0047393
        k(   71) = (   0.5000000   0.0000000   0.0000000), wk =   0.0047393
        k(   72) = (   0.4976190   0.0047619   0.0000000), wk =   0.0047393
        k(   73) = (   0.4952381   0.0095238   0.0000000), wk =   0.0047393
        k(   74) = (   0.4928571   0.0142857   0.0000000), wk =   0.0047393
        k(   75) = (   0.4904762   0.0190476   0.0000000), wk =   0.0047393
        k(   76) = (   0.4880952   0.0238095   0.0000000), wk =   0.0047393
        k(   77) = (   0.4857143   0.0285714   0.0000000), wk =   0.0047393
        k(   78) = (   0.4833333   0.0333333   0.0000000), wk =   0.0047393
        k(   79) = (   0.4809524   0.0380952   0.0000000), wk =   0.0047393
        k(   80) = (   0.4785714   0.0428571   0.0000000), wk =   0.0047393
        k(   81) = (   0.4761905   0.0476190   0.0000000), wk =   0.0047393
        k(   82) = (   0.4738095   0.0523810   0.0000000), wk =   0.0047393
        k(   83) = (   0.4714286   0.0571429   0.0000000), wk =   0.0047393
        k(   84) = (   0.4690476   0.0619048   0.0000000), wk =   0.0047393
        k(   85) = (   0.4666667   0.0666667   0.0000000), wk =   0.0047393
        k(   86) = (   0.4642857   0.0714286   0.0000000), wk =   0.0047393
        k(   87) = (   0.4619048   0.0761905   0.0000000), wk =   0.0047393
        k(   88) = (   0.4595238   0.0809524   0.0000000), wk =   0.0047393
        k(   89) = (   0.4571429   0.0857143   0.0000000), wk =   0.0047393
        k(   90) = (   0.4547619   0.0904762   0.0000000), wk =   0.0047393
        k(   91) = (   0.4523810   0.0952381   0.0000000), wk =   0.0047393
        k(   92) = (   0.4500000   0.1000000   0.0000000), wk =   0.0047393
        k(   93) = (   0.4476190   0.1047619   0.0000000), wk =   0.0047393
        k(   94) = (   0.4452381   0.1095238   0.0000000), wk =   0.0047393
        k(   95) = (   0.4428571   0.1142857   0.0000000), wk =   0.0047393
        k(   96) = (   0.4404762   0.1190476   0.0000000), wk =   0.0047393
        k(   97) = (   0.4380952   0.1238095   0.0000000), wk =   0.0047393
        k(   98) = (   0.4357143   0.1285714   0.0000000), wk =   0.0047393
        k(   99) = (   0.4333333   0.1333333   0.0000000), wk =   0.0047393
        k(  100) = (   0.4309524   0.1380952   0.0000000), wk =   0.0047393
        k(  101) = (   0.4285714   0.1428571   0.0000000), wk =   0.0047393
        k(  102) = (   0.4261905   0.1476190   0.0000000), wk =   0.0047393
        k(  103) = (   0.4238095   0.1523810   0.0000000), wk =   0.0047393
        k(  104) = (   0.4214286   0.1571429   0.0000000), wk =   0.0047393
        k(  105) = (   0.4190476   0.1619048   0.0000000), wk =   0.0047393
        k(  106) = (   0.4166667   0.1666667   0.0000000), wk =   0.0047393
        k(  107) = (   0.4142857   0.1714286   0.0000000), wk =   0.0047393
        k(  108) = (   0.4119048   0.1761905   0.0000000), wk =   0.0047393
        k(  109) = (   0.4095238   0.1809524   0.0000000), wk =   0.0047393
        k(  110) = (   0.4071429   0.1857143   0.0000000), wk =   0.0047393
        k(  111) = (   0.4047619   0.1904762   0.0000000), wk =   0.0047393
        k(  112) = (   0.4023810   0.1952381   0.0000000), wk =   0.0047393
        k(  113) = (   0.4000000   0.2000000   0.0000000), wk =   0.0047393
        k(  114) = (   0.3976190   0.2047619   0.0000000), wk =   0.0047393
        k(  115) = (   0.3952381   0.2095238   0.0000000), wk =   0.0047393
        k(  116) = (   0.3928571   0.2142857   0.0000000), wk =   0.0047393
        k(  117) = (   0.3904762   0.2190476   0.0000000), wk =   0.0047393
        k(  118) = (   0.3880952   0.2238095   0.0000000), wk =   0.0047393
        k(  119) = (   0.3857143   0.2285714   0.0000000), wk =   0.0047393
        k(  120) = (   0.3833333   0.2333333   0.0000000), wk =   0.0047393
        k(  121) = (   0.3809524   0.2380952   0.0000000), wk =   0.0047393
        k(  122) = (   0.3785714   0.2428571   0.0000000), wk =   0.0047393
        k(  123) = (   0.3761905   0.2476190   0.0000000), wk =   0.0047393
        k(  124) = (   0.3738095   0.2523810   0.0000000), wk =   0.0047393
        k(  125) = (   0.3714286   0.2571429   0.0000000), wk =   0.0047393
        k(  126) = (   0.3690476   0.2619048   0.0000000), wk =   0.0047393
        k(  127) = (   0.3666667   0.2666667   0.0000000), wk =   0.0047393
        k(  128) = (   0.3642857   0.2714286   0.0000000), wk =   0.0047393
        k(  129) = (   0.3619048   0.2761905   0.0000000), wk =   0.0047393
        k(  130) = (   0.3595238   0.2809524   0.0000000), wk =   0.0047393
        k(  131) = (   0.3571429   0.2857143   0.0000000), wk =   0.0047393
        k(  132) = (   0.3547619   0.2904762   0.0000000), wk =   0.0047393
        k(  133) = (   0.3523810   0.2952381   0.0000000), wk =   0.0047393
        k(  134) = (   0.3500000   0.3000000   0.0000000), wk =   0.0047393
        k(  135) = (   0.3476190   0.3047619   0.0000000), wk =   0.0047393
        k(  136) = (   0.3452381   0.3095238   0.0000000), wk =   0.0047393
        k(  137) = (   0.3428571   0.3142857   0.0000000), wk =   0.0047393
        k(  138) = (   0.3404762   0.3190476   0.0000000), wk =   0.0047393
        k(  139) = (   0.3380952   0.3238095   0.0000000), wk =   0.0047393
        k(  140) = (   0.3357143   0.3285714   0.0000000), wk =   0.0047393
        k(  141) = (   0.3333333   0.3333333   0.0000000), wk =   0.0047393
        k(  142) = (   0.3285714   0.3285714   0.0000000), wk =   0.0047393
        k(  143) = (   0.3238095   0.3238095   0.0000000), wk =   0.0047393
        k(  144) = (   0.3190476   0.3190476   0.0000000), wk =   0.0047393
        k(  145) = (   0.3142857   0.3142857   0.0000000), wk =   0.0047393
        k(  146) = (   0.3095238   0.3095238   0.0000000), wk =   0.0047393
        k(  147) = (   0.3047619   0.3047619   0.0000000), wk =   0.0047393
        k(  148) = (   0.3000000   0.3000000   0.0000000), wk =   0.0047393
        k(  149) = (   0.2952381   0.2952381   0.0000000), wk =   0.0047393
        k(  150) = (   0.2904762   0.2904762   0.0000000), wk =   0.0047393
        k(  151) = (   0.2857143   0.2857143   0.0000000), wk =   0.0047393
        k(  152) = (   0.2809524   0.2809524   0.0000000), wk =   0.0047393
        k(  153) = (   0.2761905   0.2761905   0.0000000), wk =   0.0047393
        k(  154) = (   0.2714286   0.2714286   0.0000000), wk =   0.0047393
        k(  155) = (   0.2666667   0.2666667   0.0000000), wk =   0.0047393
        k(  156) = (   0.2619048   0.2619048   0.0000000), wk =   0.0047393
        k(  157) = (   0.2571429   0.2571429   0.0000000), wk =   0.0047393
        k(  158) = (   0.2523810   0.2523810   0.0000000), wk =   0.0047393
        k(  159) = (   0.2476190   0.2476190   0.0000000), wk =   0.0047393
        k(  160) = (   0.2428571   0.2428571   0.0000000), wk =   0.0047393
        k(  161) = (   0.2380952   0.2380952   0.0000000), wk =   0.0047393
        k(  162) = (   0.2333333   0.2333333   0.0000000), wk =   0.0047393
        k(  163) = (   0.2285714   0.2285714   0.0000000), wk =   0.0047393
        k(  164) = (   0.2238095   0.2238095   0.0000000), wk =   0.0047393
        k(  165) = (   0.2190476   0.2190476   0.0000000), wk =   0.0047393
        k(  166) = (   0.2142857   0.2142857   0.0000000), wk =   0.0047393
        k(  167) = (   0.2095238   0.2095238   0.0000000), wk =   0.0047393
        k(  168) = (   0.2047619   0.2047619   0.0000000), wk =   0.0047393
        k(  169) = (   0.2000000   0.2000000   0.0000000), wk =   0.0047393
        k(  170) = (   0.1952381   0.1952381   0.0000000), wk =   0.0047393
        k(  171) = (   0.1904762   0.1904762   0.0000000), wk =   0.0047393
        k(  172) = (   0.1857143   0.1857143   0.0000000), wk =   0.0047393
        k(  173) = (   0.1809524   0.1809524   0.0000000), wk =   0.0047393
        k(  174) = (   0.1761905   0.1761905   0.0000000), wk =   0.0047393
        k(  175) = (   0.1714286   0.1714286   0.0000000), wk =   0.0047393
        k(  176) = (   0.1666667   0.1666667   0.0000000), wk =   0.0047393
        k(  177) = (   0.1619048   0.1619048   0.0000000), wk =   0.0047393
        k(  178) = (   0.1571429   0.1571429   0.0000000), wk =   0.0047393
        k(  179) = (   0.1523810   0.1523810   0.0000000), wk =   0.0047393
        k(  180) = (   0.1476190   0.1476190   0.0000000), wk =   0.0047393
        k(  181) = (   0.1428571   0.1428571   0.0000000), wk =   0.0047393
        k(  182) = (   0.1380952   0.1380952   0.0000000), wk =   0.0047393
        k(  183) = (   0.1333333   0.1333333   0.0000000), wk =   0.0047393
        k(  184) = (   0.1285714   0.1285714   0.0000000), wk =   0.0047393
        k(  185) = (   0.1238095   0.1238095   0.0000000), wk =   0.0047393
        k(  186) = (   0.1190476   0.1190476   0.0000000), wk =   0.0047393
        k(  187) = (   0.1142857   0.1142857   0.0000000), wk =   0.0047393
        k(  188) = (   0.1095238   0.1095238   0.0000000), wk =   0.0047393
        k(  189) = (   0.1047619   0.1047619   0.0000000), wk =   0.0047393
        k(  190) = (   0.1000000   0.1000000   0.0000000), wk =   0.0047393
        k(  191) = (   0.0952381   0.0952381   0.0000000), wk =   0.0047393
        k(  192) = (   0.0904762   0.0904762   0.0000000), wk =   0.0047393
        k(  193) = (   0.0857143   0.0857143   0.0000000), wk =   0.0047393
        k(  194) = (   0.0809524   0.0809524   0.0000000), wk =   0.0047393
        k(  195) = (   0.0761905   0.0761905   0.0000000), wk =   0.0047393
        k(  196) = (   0.0714286   0.0714286   0.0000000), wk =   0.0047393
        k(  197) = (   0.0666667   0.0666667   0.0000000), wk =   0.0047393
        k(  198) = (   0.0619048   0.0619048   0.0000000), wk =   0.0047393
        k(  199) = (   0.0571429   0.0571429   0.0000000), wk =   0.0047393
        k(  200) = (   0.0523810   0.0523810   0.0000000), wk =   0.0047393
        k(  201) = (   0.0476190   0.0476190   0.0000000), wk =   0.0047393
        k(  202) = (   0.0428571   0.0428571   0.0000000), wk =   0.0047393
        k(  203) = (   0.0380952   0.0380952   0.0000000), wk =   0.0047393
        k(  204) = (   0.0333333   0.0333333   0.0000000), wk =   0.0047393
        k(  205) = (   0.0285714   0.0285714   0.0000000), wk =   0.0047393
        k(  206) = (   0.0238095   0.0238095   0.0000000), wk =   0.0047393
        k(  207) = (   0.0190476   0.0190476   0.0000000), wk =   0.0047393
        k(  208) = (   0.0142857   0.0142857   0.0000000), wk =   0.0047393
        k(  209) = (   0.0095238   0.0095238   0.0000000), wk =   0.0047393
        k(  210) = (   0.0047619   0.0047619   0.0000000), wk =   0.0047393
        k(  211) = (   0.0000000   0.0000000   0.0000000), wk =   0.0047393

     Dense  grid:   458817 G-vectors     FFT dimensions: (  60,  60, 300)

     Smooth grid:   116185 G-vectors     FFT dimensions: (  40,  40, 192)

     Dynamical RAM for                 wfc:       1.84 MB

     Dynamical RAM for     wfc (w. buffer):       1.84 MB

     Dynamical RAM for           str. fact:       0.58 MB

     Dynamical RAM for           local pot:       0.00 MB

     Dynamical RAM for          nlocal pot:       1.57 MB

     Dynamical RAM for                qrad:       9.40 MB

     Dynamical RAM for          rho,v,vnew:       7.78 MB

     Dynamical RAM for           G-vectors:       1.13 MB

     Dynamical RAM for          h,s,v(r/c):       1.83 MB

     Dynamical RAM for          <psi|beta>:       0.52 MB

     Dynamical RAM for                 psi:       3.69 MB

     Dynamical RAM for                hpsi:       3.69 MB

     Dynamical RAM for      wfcinit/wfcrot:       2.99 MB

     Estimated static dynamical RAM per process >      26.04 MB

     Estimated max dynamical RAM per process >      35.76 MB

     Estimated total dynamical RAM >     858.31 MB

     The potential is recalculated from file :
     tmp/Sb2Te3-uatsx-c4-soc-1.0.save/charge-density

     Starting wfcs are random

     Band Structure Calculation
     Davidson diagonalization with overlap

     Computing kpt #:     1  of   211
     total cpu time spent up to now is        5.8 secs

     Computing kpt #:     2  of   211
     total cpu time spent up to now is       10.0 secs

     Computing kpt #:     3  of   211
     total cpu time spent up to now is       14.2 secs

     Computing kpt #:     4  of   211
     total cpu time spent up to now is       18.3 secs

     Computing kpt #:     5  of   211
     total cpu time spent up to now is       22.4 secs

     Computing kpt #:     6  of   211
     total cpu time spent up to now is       26.4 secs

     Computing kpt #:     7  of   211
     total cpu time spent up to now is       30.5 secs

     Computing kpt #:     8  of   211
     total cpu time spent up to now is       34.4 secs

     Computing kpt #:     9  of   211
     total cpu time spent up to now is       38.6 secs

     Computing kpt #:    10  of   211
     total cpu time spent up to now is       42.5 secs

     Computing kpt #:    11  of   211
     total cpu time spent up to now is       46.6 secs

     Computing kpt #:    12  of   211
     total cpu time spent up to now is       50.5 secs

     Computing kpt #:    13  of   211
     total cpu time spent up to now is       54.7 secs

     Computing kpt #:    14  of   211
     total cpu time spent up to now is       58.6 secs

     Computing kpt #:    15  of   211
     total cpu time spent up to now is       62.5 secs

     Computing kpt #:    16  of   211
     total cpu time spent up to now is       66.4 secs

     Computing kpt #:    17  of   211
     total cpu time spent up to now is       70.3 secs

     Computing kpt #:    18  of   211
     total cpu time spent up to now is       74.2 secs

     Computing kpt #:    19  of   211
     total cpu time spent up to now is       78.1 secs

     Computing kpt #:    20  of   211
     total cpu time spent up to now is       82.0 secs

     Computing kpt #:    21  of   211
     total cpu time spent up to now is       85.8 secs

     Computing kpt #:    22  of   211
     total cpu time spent up to now is       89.9 secs

     Computing kpt #:    23  of   211
     total cpu time spent up to now is       93.7 secs

     Computing kpt #:    24  of   211
     total cpu time spent up to now is       97.6 secs

     Computing kpt #:    25  of   211
     total cpu time spent up to now is      101.5 secs

     Computing kpt #:    26  of   211
     total cpu time spent up to now is      105.3 secs

     Computing kpt #:    27  of   211
     total cpu time spent up to now is      109.2 secs

     Computing kpt #:    28  of   211
     total cpu time spent up to now is      113.1 secs

     Computing kpt #:    29  of   211
     total cpu time spent up to now is      117.1 secs

     Computing kpt #:    30  of   211
     total cpu time spent up to now is      121.0 secs

     Computing kpt #:    31  of   211
     total cpu time spent up to now is      124.9 secs

     Computing kpt #:    32  of   211
     total cpu time spent up to now is      128.9 secs

     Computing kpt #:    33  of   211
     total cpu time spent up to now is      132.9 secs

     Computing kpt #:    34  of   211
     total cpu time spent up to now is      136.8 secs

     Computing kpt #:    35  of   211
     total cpu time spent up to now is      141.0 secs

     Computing kpt #:    36  of   211
     total cpu time spent up to now is      145.0 secs

     Computing kpt #:    37  of   211
     total cpu time spent up to now is      148.9 secs

     Computing kpt #:    38  of   211
     total cpu time spent up to now is      153.0 secs

     Computing kpt #:    39  of   211
     total cpu time spent up to now is      157.1 secs

     Computing kpt #:    40  of   211
     total cpu time spent up to now is      161.1 secs

     Computing kpt #:    41  of   211
     total cpu time spent up to now is      165.1 secs

     Computing kpt #:    42  of   211
     total cpu time spent up to now is      169.1 secs

     Computing kpt #:    43  of   211
     total cpu time spent up to now is      173.1 secs

     Computing kpt #:    44  of   211
     total cpu time spent up to now is      177.0 secs

     Computing kpt #:    45  of   211
     total cpu time spent up to now is      181.0 secs

     Computing kpt #:    46  of   211
     total cpu time spent up to now is      185.0 secs

     Computing kpt #:    47  of   211
     total cpu time spent up to now is      189.0 secs

     Computing kpt #:    48  of   211
     total cpu time spent up to now is      192.9 secs

     Computing kpt #:    49  of   211
     total cpu time spent up to now is      196.9 secs

     Computing kpt #:    50  of   211
     total cpu time spent up to now is      200.8 secs

     Computing kpt #:    51  of   211
     total cpu time spent up to now is      204.8 secs

     Computing kpt #:    52  of   211
     total cpu time spent up to now is      209.0 secs

     Computing kpt #:    53  of   211
     total cpu time spent up to now is      213.0 secs

     Computing kpt #:    54  of   211
     total cpu time spent up to now is      216.9 secs

     Computing kpt #:    55  of   211
     total cpu time spent up to now is      220.9 secs

     Computing kpt #:    56  of   211
     total cpu time spent up to now is      224.8 secs

     Computing kpt #:    57  of   211
     total cpu time spent up to now is      228.8 secs

     Computing kpt #:    58  of   211
     total cpu time spent up to now is      232.7 secs

     Computing kpt #:    59  of   211
     total cpu time spent up to now is      236.7 secs

     Computing kpt #:    60  of   211
     total cpu time spent up to now is      240.7 secs

     Computing kpt #:    61  of   211
     total cpu time spent up to now is      244.7 secs

     Computing kpt #:    62  of   211
     total cpu time spent up to now is      248.6 secs

     Computing kpt #:    63  of   211
     total cpu time spent up to now is      252.6 secs

     Computing kpt #:    64  of   211
     total cpu time spent up to now is      256.6 secs

     Computing kpt #:    65  of   211
     total cpu time spent up to now is      260.6 secs

     Computing kpt #:    66  of   211
     total cpu time spent up to now is      264.5 secs

     Computing kpt #:    67  of   211
     total cpu time spent up to now is      268.4 secs

     Computing kpt #:    68  of   211
     total cpu time spent up to now is      272.3 secs

     Computing kpt #:    69  of   211
     total cpu time spent up to now is      276.4 secs

     Computing kpt #:    70  of   211
     total cpu time spent up to now is      280.4 secs

     Computing kpt #:    71  of   211
     total cpu time spent up to now is      284.6 secs

     Computing kpt #:    72  of   211
     total cpu time spent up to now is      288.6 secs

     Computing kpt #:    73  of   211
     total cpu time spent up to now is      292.6 secs

     Computing kpt #:    74  of   211
     total cpu time spent up to now is      296.5 secs

     Computing kpt #:    75  of   211
     total cpu time spent up to now is      300.5 secs

     Computing kpt #:    76  of   211
     total cpu time spent up to now is      304.5 secs

     Computing kpt #:    77  of   211
     total cpu time spent up to now is      308.5 secs

     Computing kpt #:    78  of   211
     total cpu time spent up to now is      312.5 secs

     Computing kpt #:    79  of   211
     total cpu time spent up to now is      316.5 secs

     Computing kpt #:    80  of   211
     total cpu time spent up to now is      320.5 secs

     Computing kpt #:    81  of   211
     total cpu time spent up to now is      324.6 secs

     Computing kpt #:    82  of   211
     total cpu time spent up to now is      328.7 secs

     Computing kpt #:    83  of   211
     total cpu time spent up to now is      332.7 secs

     Computing kpt #:    84  of   211
     total cpu time spent up to now is      336.8 secs

     Computing kpt #:    85  of   211
     total cpu time spent up to now is      340.8 secs

     Computing kpt #:    86  of   211
     total cpu time spent up to now is      344.8 secs

     Computing kpt #:    87  of   211
     total cpu time spent up to now is      348.8 secs

     Computing kpt #:    88  of   211
     total cpu time spent up to now is      353.3 secs

     Computing kpt #:    89  of   211
     total cpu time spent up to now is      357.3 secs

     Computing kpt #:    90  of   211
     total cpu time spent up to now is      361.4 secs

     Computing kpt #:    91  of   211
     total cpu time spent up to now is      365.6 secs

     Computing kpt #:    92  of   211
     total cpu time spent up to now is      369.6 secs

     Computing kpt #:    93  of   211
     total cpu time spent up to now is      373.6 secs

     Computing kpt #:    94  of   211
     total cpu time spent up to now is      377.7 secs

     Computing kpt #:    95  of   211
     total cpu time spent up to now is      382.1 secs

     Computing kpt #:    96  of   211
     total cpu time spent up to now is      386.7 secs

     Computing kpt #:    97  of   211
     total cpu time spent up to now is      390.9 secs

     Computing kpt #:    98  of   211
     total cpu time spent up to now is      395.3 secs

     Computing kpt #:    99  of   211
     total cpu time spent up to now is      399.7 secs

     Computing kpt #:   100  of   211
     total cpu time spent up to now is      404.2 secs

     Computing kpt #:   101  of   211
     total cpu time spent up to now is      408.7 secs

     Computing kpt #:   102  of   211
     total cpu time spent up to now is      413.6 secs

     Computing kpt #:   103  of   211
     total cpu time spent up to now is      417.7 secs

     Computing kpt #:   104  of   211
     total cpu time spent up to now is      422.3 secs

     Computing kpt #:   105  of   211
     total cpu time spent up to now is      426.7 secs

     Computing kpt #:   106  of   211
     total cpu time spent up to now is      431.2 secs

     Computing kpt #:   107  of   211
     total cpu time spent up to now is      435.7 secs

     Computing kpt #:   108  of   211
     total cpu time spent up to now is      440.3 secs

     Computing kpt #:   109  of   211
     total cpu time spent up to now is      444.8 secs

     Computing kpt #:   110  of   211
     total cpu time spent up to now is      449.3 secs

     Computing kpt #:   111  of   211
     total cpu time spent up to now is      453.8 secs

     Computing kpt #:   112  of   211
     total cpu time spent up to now is      458.3 secs

     Computing kpt #:   113  of   211
     total cpu time spent up to now is      462.9 secs

     Computing kpt #:   114  of   211
     total cpu time spent up to now is      467.4 secs

     Computing kpt #:   115  of   211
     total cpu time spent up to now is      472.0 secs

     Computing kpt #:   116  of   211
     total cpu time spent up to now is      476.0 secs

     Computing kpt #:   117  of   211
     total cpu time spent up to now is      480.4 secs

     Computing kpt #:   118  of   211
     total cpu time spent up to now is      484.9 secs

     Computing kpt #:   119  of   211
     total cpu time spent up to now is      489.1 secs

     Computing kpt #:   120  of   211
     total cpu time spent up to now is      493.3 secs

     Computing kpt #:   121  of   211
     total cpu time spent up to now is      497.4 secs

     Computing kpt #:   122  of   211
     total cpu time spent up to now is      501.5 secs

     Computing kpt #:   123  of   211
     total cpu time spent up to now is      505.6 secs

     Computing kpt #:   124  of   211
     total cpu time spent up to now is      509.6 secs

     Computing kpt #:   125  of   211
     total cpu time spent up to now is      513.6 secs

     Computing kpt #:   126  of   211
     total cpu time spent up to now is      517.7 secs

     Computing kpt #:   127  of   211
     total cpu time spent up to now is      521.8 secs

     Computing kpt #:   128  of   211
     total cpu time spent up to now is      525.7 secs

     Computing kpt #:   129  of   211
     total cpu time spent up to now is      529.7 secs

     Computing kpt #:   130  of   211
     total cpu time spent up to now is      533.7 secs

     Computing kpt #:   131  of   211
     total cpu time spent up to now is      537.7 secs

     Computing kpt #:   132  of   211
     total cpu time spent up to now is      541.8 secs

     Computing kpt #:   133  of   211
     total cpu time spent up to now is      546.0 secs

     Computing kpt #:   134  of   211
     total cpu time spent up to now is      550.0 secs

     Computing kpt #:   135  of   211
     total cpu time spent up to now is      554.1 secs

     Computing kpt #:   136  of   211
     total cpu time spent up to now is      558.2 secs

     Computing kpt #:   137  of   211
     total cpu time spent up to now is      562.3 secs

     Computing kpt #:   138  of   211
     total cpu time spent up to now is      566.7 secs

     Computing kpt #:   139  of   211
     total cpu time spent up to now is      570.8 secs

     Computing kpt #:   140  of   211
     total cpu time spent up to now is      575.0 secs

     Computing kpt #:   141  of   211
     total cpu time spent up to now is      579.1 secs

     Computing kpt #:   142  of   211
     total cpu time spent up to now is      583.1 secs

     Computing kpt #:   143  of   211
     total cpu time spent up to now is      587.3 secs

     Computing kpt #:   144  of   211
     total cpu time spent up to now is      591.3 secs

     Computing kpt #:   145  of   211
     total cpu time spent up to now is      595.5 secs

     Computing kpt #:   146  of   211
     total cpu time spent up to now is      599.6 secs

     Computing kpt #:   147  of   211
     total cpu time spent up to now is      603.8 secs

     Computing kpt #:   148  of   211
     total cpu time spent up to now is      607.9 secs

     Computing kpt #:   149  of   211
     total cpu time spent up to now is      612.1 secs

     Computing kpt #:   150  of   211
     total cpu time spent up to now is      616.2 secs

     Computing kpt #:   151  of   211
     total cpu time spent up to now is      620.9 secs

     Computing kpt #:   152  of   211
     total cpu time spent up to now is      624.9 secs

     Computing kpt #:   153  of   211
     total cpu time spent up to now is      628.9 secs

     Computing kpt #:   154  of   211
     total cpu time spent up to now is      633.0 secs

     Computing kpt #:   155  of   211
     total cpu time spent up to now is      637.1 secs

     Computing kpt #:   156  of   211
     total cpu time spent up to now is      641.2 secs

     Computing kpt #:   157  of   211
     total cpu time spent up to now is      645.4 secs

     Computing kpt #:   158  of   211
     total cpu time spent up to now is      649.8 secs

     Computing kpt #:   159  of   211
     total cpu time spent up to now is      654.2 secs

     Computing kpt #:   160  of   211
     total cpu time spent up to now is      658.3 secs

     Computing kpt #:   161  of   211
     total cpu time spent up to now is      662.4 secs

     Computing kpt #:   162  of   211
     total cpu time spent up to now is      666.5 secs

     Computing kpt #:   163  of   211
     total cpu time spent up to now is      670.5 secs

     Computing kpt #:   164  of   211
     total cpu time spent up to now is      674.4 secs

     Computing kpt #:   165  of   211
     total cpu time spent up to now is      678.3 secs

     Computing kpt #:   166  of   211
     total cpu time spent up to now is      682.2 secs

     Computing kpt #:   167  of   211
     total cpu time spent up to now is      686.0 secs

     Computing kpt #:   168  of   211
     total cpu time spent up to now is      689.9 secs

     Computing kpt #:   169  of   211
     total cpu time spent up to now is      693.8 secs

     Computing kpt #:   170  of   211
     total cpu time spent up to now is      697.8 secs

     Computing kpt #:   171  of   211
     total cpu time spent up to now is      701.6 secs

     Computing kpt #:   172  of   211
     total cpu time spent up to now is      705.5 secs

     Computing kpt #:   173  of   211
     total cpu time spent up to now is      709.4 secs

     Computing kpt #:   174  of   211
     total cpu time spent up to now is      713.3 secs

     Computing kpt #:   175  of   211
     total cpu time spent up to now is      717.1 secs

     Computing kpt #:   176  of   211
     total cpu time spent up to now is      721.1 secs

     Computing kpt #:   177  of   211
     total cpu time spent up to now is      725.1 secs

     Computing kpt #:   178  of   211
     total cpu time spent up to now is      729.1 secs

     Computing kpt #:   179  of   211
     total cpu time spent up to now is      733.1 secs

     Computing kpt #:   180  of   211
     total cpu time spent up to now is      737.0 secs

     Computing kpt #:   181  of   211
     total cpu time spent up to now is      741.6 secs

     Computing kpt #:   182  of   211
     total cpu time spent up to now is      746.5 secs

     Computing kpt #:   183  of   211
     total cpu time spent up to now is      750.8 secs

     Computing kpt #:   184  of   211
     total cpu time spent up to now is      754.9 secs

     Computing kpt #:   185  of   211
     total cpu time spent up to now is      758.9 secs

     Computing kpt #:   186  of   211
     total cpu time spent up to now is      762.9 secs

     Computing kpt #:   187  of   211
     total cpu time spent up to now is      766.7 secs

     Computing kpt #:   188  of   211
     total cpu time spent up to now is      770.6 secs

     Computing kpt #:   189  of   211
     total cpu time spent up to now is      774.5 secs

     Computing kpt #:   190  of   211
     total cpu time spent up to now is      778.3 secs

     Computing kpt #:   191  of   211
     total cpu time spent up to now is      782.2 secs

     Computing kpt #:   192  of   211
     total cpu time spent up to now is      786.1 secs

     Computing kpt #:   193  of   211
     total cpu time spent up to now is      789.9 secs

     Computing kpt #:   194  of   211
     total cpu time spent up to now is      793.8 secs

     Computing kpt #:   195  of   211
     total cpu time spent up to now is      797.7 secs

     Computing kpt #:   196  of   211
     total cpu time spent up to now is      801.6 secs

     Computing kpt #:   197  of   211
     total cpu time spent up to now is      805.5 secs

     Computing kpt #:   198  of   211
     total cpu time spent up to now is      809.3 secs

     Computing kpt #:   199  of   211
     total cpu time spent up to now is      813.3 secs

     Computing kpt #:   200  of   211
     total cpu time spent up to now is      817.3 secs

     Computing kpt #:   201  of   211
     total cpu time spent up to now is      821.3 secs

     Computing kpt #:   202  of   211
     total cpu time spent up to now is      825.3 secs

     Computing kpt #:   203  of   211
     total cpu time spent up to now is      829.2 secs

     Computing kpt #:   204  of   211
     total cpu time spent up to now is      833.2 secs

     Computing kpt #:   205  of   211
     total cpu time spent up to now is      837.3 secs

     Computing kpt #:   206  of   211
     total cpu time spent up to now is      841.5 secs

     Computing kpt #:   207  of   211
     total cpu time spent up to now is      845.4 secs

     Computing kpt #:   208  of   211
     total cpu time spent up to now is      849.5 secs

     Computing kpt #:   209  of   211
     total cpu time spent up to now is      853.6 secs

     Computing kpt #:   210  of   211
     total cpu time spent up to now is      858.0 secs

     Computing kpt #:   211  of   211
     total cpu time spent up to now is      862.0 secs

     ethr =  1.28E-10,  avg # of iterations = 51.8

     total cpu time spent up to now is      862.0 secs

     End of band structure calculation

          k = 0.0000 0.0000 0.0000 ( 14485 PWs)   bands (ev):

   -35.4354 -35.4354 -35.4294 -35.4294 -35.4093 -35.4093 -35.4033 -35.4033
   -35.3214 -35.3214 -35.2859 -35.2859 -33.9756 -33.9756 -33.9696 -33.9696
   -33.9534 -33.9534 -33.9475 -33.9475 -33.9417 -33.9417 -33.9357 -33.9357
   -33.8588 -33.8588 -33.8434 -33.8434 -33.8128 -33.8128 -28.0602 -28.0602
   -28.0561 -28.0561 -28.0514 -28.0514 -28.0474 -28.0474 -26.8211 -26.8211
   -26.8171 -26.8171 -26.8111 -26.8111 -26.8099 -26.8099 -26.8071 -26.8071
   -26.8059 -26.8059 -10.5850 -10.5850 -10.0588 -10.0588  -8.9735  -8.9735
    -6.2138  -6.2138  -4.7968  -4.7968  -0.4448  -0.4448   0.0771   0.0771
     0.3200   0.3200   0.5906   0.5906   0.6801   0.6801   0.7905   0.7905
     1.0059   1.0059   1.3907   1.3907   1.5319   1.5319   2.2425   2.2425
     2.8526   2.8526   3.1735   3.1735   3.4029   3.4029   4.1655   4.1655
     4.2690   4.2690   6.2642   6.2642   6.4626   6.4626   7.0258   7.0258
     7.6763   7.6763   7.7327   7.7327

          k = 0.0071 0.0041 0.0000 ( 14485 PWs)   bands (ev):

   -35.4354 -35.4354 -35.4294 -35.4294 -35.4093 -35.4093 -35.4033 -35.4033
   -35.3214 -35.3214 -35.2859 -35.2859 -33.9756 -33.9756 -33.9696 -33.9696
   -33.9534 -33.9534 -33.9475 -33.9475 -33.9417 -33.9417 -33.9357 -33.9357
   -33.8588 -33.8588 -33.8434 -33.8434 -33.8128 -33.8128 -28.0602 -28.0602
   -28.0561 -28.0561 -28.0514 -28.0514 -28.0474 -28.0474 -26.8211 -26.8211
   -26.8171 -26.8170 -26.8111 -26.8111 -26.8099 -26.8099 -26.8071 -26.8071
   -26.8059 -26.8059 -10.5845 -10.5845 -10.0584 -10.0584  -8.9732  -8.9732
    -6.2138  -6.2138  -4.7975  -4.7975  -0.4454  -0.4454   0.0707   0.0714
     0.3206   0.3213   0.5883   0.5886   0.6637   0.6664   0.7983   0.8015
     1.0093   1.0099   1.3866   1.3870   1.5355   1.5359   2.2482   2.2486
     2.8527   2.8530   3.1671   3.1679   3.4089   3.4097   4.1680   4.1682
     4.2685   4.2686   6.2650   6.2651   6.4628   6.4628   7.0260   7.0260
     7.6760   7.6761   7.7293   7.7294

          k = 0.0143 0.0082 0.0000 ( 14491 PWs)   bands (ev):

   -35.4354 -35.4354 -35.4294 -35.4294 -35.4093 -35.4093 -35.4033 -35.4033
   -35.3214 -35.3214 -35.2859 -35.2859 -33.9756 -33.9756 -33.9696 -33.9696
   -33.9534 -33.9534 -33.9475 -33.9475 -33.9417 -33.9417 -33.9357 -33.9357
   -33.8588 -33.8588 -33.8434 -33.8434 -33.8128 -33.8128 -28.0602 -28.0602
   -28.0561 -28.0561 -28.0514 -28.0514 -28.0474 -28.0474 -26.8211 -26.8211
   -26.8170 -26.8170 -26.8111 -26.8111 -26.8099 -26.8099 -26.8071 -26.8071
   -26.8059 -26.8059 -10.5832 -10.5832 -10.0572 -10.0572  -8.9725  -8.9725
    -6.2140  -6.2140  -4.7997  -4.7997  -0.4473  -0.4473   0.0531   0.0543
     0.3224   0.3236   0.5804   0.5814   0.6299   0.6334   0.8154   0.8200
     1.0197   1.0209   1.3751   1.3759   1.5470   1.5477   2.2649   2.2656
     2.8533   2.8539   3.1513   3.1525   3.4256   3.4270   4.1757   4.1761
     4.2671   4.2673   6.2675   6.2675   6.4633   6.4634   7.0268   7.0268
     7.6747   7.6748   7.7197   7.7199

          k = 0.0214 0.0124 0.0000 ( 14486 PWs)   bands (ev):

   -35.4354 -35.4354 -35.4294 -35.4294 -35.4093 -35.4093 -35.4033 -35.4033
   -35.3214 -35.3214 -35.2859 -35.2859 -33.9756 -33.9756 -33.9696 -33.9696
   -33.9534 -33.9534 -33.9475 -33.9475 -33.9417 -33.9417 -33.9357 -33.9357
   -33.8588 -33.8588 -33.8434 -33.8434 -33.8128 -33.8128 -28.0602 -28.0602
   -28.0561 -28.0561 -28.0514 -28.0514 -28.0474 -28.0474 -26.8211 -26.8211
   -26.8170 -26.8170 -26.8111 -26.8111 -26.8099 -26.8099 -26.8071 -26.8071
   -26.8059 -26.8058 -10.5810 -10.5810 -10.0552 -10.0552  -8.9712  -8.9712
    -6.2142  -6.2141  -4.8034  -4.8034  -0.4505  -0.4505   0.0259   0.0275
     0.3236   0.3252   0.5596   0.5625   0.5973   0.6005   0.8303   0.8354
     1.0361   1.0376   1.3579   1.3592   1.5661   1.5672   2.2906   2.2916
     2.8543   2.8552   3.1310   3.1325   3.4486   3.4504   4.1880   4.1886
     4.2652   4.2655   6.2716   6.2716   6.4643   6.4644   7.0279   7.0279
     7.6703   7.6705   7.7066   7.7069

          k = 0.0286 0.0165 0.0000 ( 14495 PWs)   bands (ev):

   -35.4354 -35.4354 -35.4294 -35.4294 -35.4093 -35.4093 -35.4033 -35.4033
   -35.3214 -35.3214 -35.2859 -35.2859 -33.9756 -33.9756 -33.9696 -33.9696
   -33.9534 -33.9534 -33.9475 -33.9475 -33.9417 -33.9417 -33.9357 -33.9357
   -33.8588 -33.8588 -33.8434 -33.8434 -33.8128 -33.8128 -28.0602 -28.0602
   -28.0561 -28.0561 -28.0514 -28.0514 -28.0474 -28.0474 -26.8211 -26.8211
   -26.8170 -26.8170 -26.8111 -26.8111 -26.8099 -26.8099 -26.8071 -26.8071
   -26.8059 -26.8058 -10.5779 -10.5779 -10.0524 -10.0524  -8.9694  -8.9694
    -6.2145  -6.2145  -4.8086  -4.8086  -0.4551  -0.4550  -0.0090  -0.0072
     0.3226   0.3244   0.5187   0.5227   0.5790   0.5816   0.8395   0.8447
     1.0556   1.0576   1.3385   1.3402   1.5920   1.5934   2.3224   2.3236
     2.8558   2.8568   3.1110   3.1127   3.4745   3.4765   4.2036   4.2044
     4.2642   4.2646   6.2772   6.2773   6.4657   6.4657   7.0294   7.0294
     7.6573   7.6575   7.6964   7.6967

          k = 0.0357 0.0206 0.0000 ( 14492 PWs)   bands (ev):

   -35.4354 -35.4354 -35.4294 -35.4294 -35.4093 -35.4093 -35.4033 -35.4033
   -35.3214 -35.3214 -35.2859 -35.2859 -33.9756 -33.9756 -33.9696 -33.9696
   -33.9534 -33.9534 -33.9475 -33.9475 -33.9417 -33.9417 -33.9357 -33.9357
   -33.8588 -33.8588 -33.8434 -33.8434 -33.8128 -33.8128 -28.0602 -28.0602
   -28.0561 -28.0561 -28.0514 -28.0514 -28.0474 -28.0474 -26.8211 -26.8211
   -26.8170 -26.8170 -26.8111 -26.8111 -26.8099 -26.8098 -26.8071 -26.8071
   -26.8059 -26.8058 -10.5740 -10.5740 -10.0487 -10.0487  -8.9672  -8.9671
    -6.2149  -6.2149  -4.8153  -4.8152  -0.4612  -0.4611  -0.0502  -0.0481
     0.3179   0.3198   0.4694   0.4736   0.5657   0.5682   0.8423   0.8475
     1.0747   1.0770   1.3216   1.3236   1.6231   1.6245   2.3570   2.3585
     2.8578   2.8588   3.0951   3.0967   3.5009   3.5030   4.2189   4.2200
     4.2676   4.2680   6.2845   6.2845   6.4674   6.4675   7.0310   7.0310
     7.6332   7.6334   7.6926   7.6929

          k = 0.0429 0.0247 0.0000 ( 14478 PWs)   bands (ev):

   -35.4354 -35.4354 -35.4294 -35.4294 -35.4093 -35.4093 -35.4033 -35.4033
   -35.3214 -35.3214 -35.2859 -35.2859 -33.9756 -33.9756 -33.9696 -33.9696
   -33.9534 -33.9534 -33.9475 -33.9475 -33.9417 -33.9417 -33.9357 -33.9357
   -33.8588 -33.8588 -33.8434 -33.8434 -33.8128 -33.8128 -28.0602 -28.0602
   -28.0561 -28.0561 -28.0514 -28.0514 -28.0474 -28.0474 -26.8211 -26.8211
   -26.8170 -26.8170 -26.8111 -26.8111 -26.8099 -26.8098 -26.8071 -26.8071
   -26.8059 -26.8058 -10.5691 -10.5691 -10.0442 -10.0442  -8.9643  -8.9643
    -6.2154  -6.2154  -4.8234  -4.8234  -0.4689  -0.4687  -0.0964  -0.0941
     0.3085   0.3104   0.4182   0.4223   0.5526   0.5550   0.8386   0.8437
     1.0894   1.0919   1.3126   1.3148   1.6572   1.6587   2.3913   2.3929
     2.8615   2.8623   3.0857   3.0871   3.5267   3.5289   4.2270   4.2284
     4.2817   4.2824   6.2932   6.2933   6.4695   6.4696   7.0325   7.0325
     7.6027   7.6027   7.6922   7.6924

          k = 0.0500 0.0289 0.0000 ( 14481 PWs)   bands (ev):

   -35.4354 -35.4354 -35.4294 -35.4294 -35.4093 -35.4093 -35.4033 -35.4033
   -35.3214 -35.3214 -35.2859 -35.2859 -33.9756 -33.9756 -33.9696 -33.9696
   -33.9534 -33.9534 -33.9475 -33.9475 -33.9417 -33.9417 -33.9357 -33.9357
   -33.8588 -33.8588 -33.8434 -33.8434 -33.8128 -33.8128 -28.0602 -28.0602
   -28.0561 -28.0561 -28.0514 -28.0514 -28.0474 -28.0474 -26.8211 -26.8211
   -26.8170 -26.8170 -26.8112 -26.8111 -26.8099 -26.8098 -26.8071 -26.8071
   -26.8059 -26.8058 -10.5634 -10.5634 -10.0390 -10.0390  -8.9611  -8.9611
    -6.2160  -6.2160  -4.8330  -4.8330  -0.4784  -0.4782  -0.1467  -0.1442
     0.2934   0.2949   0.3681   0.3720   0.5386   0.5410   0.8282   0.8329
     1.0972   1.0998   1.3155   1.3177   1.6922   1.6937   2.4222   2.4238
     2.8684   2.8687   3.0844   3.0854   3.5513   3.5534   4.2273   4.2288
     4.3075   4.3083   6.3034   6.3035   6.4718   6.4720   7.0336   7.0337
     7.5690   7.5690   7.6929   7.6931

          k = 0.0571 0.0330 0.0000 ( 14477 PWs)   bands (ev):

   -35.4354 -35.4354 -35.4294 -35.4294 -35.4093 -35.4093 -35.4033 -35.4033
   -35.3214 -35.3214 -35.2859 -35.2859 -33.9756 -33.9756 -33.9696 -33.9696
   -33.9534 -33.9534 -33.9475 -33.9475 -33.9417 -33.9417 -33.9357 -33.9357
   -33.8588 -33.8588 -33.8434 -33.8434 -33.8128 -33.8128 -28.0602 -28.0602
   -28.0561 -28.0561 -28.0514 -28.0514 -28.0474 -28.0474 -26.8211 -26.8211
   -26.8170 -26.8170 -26.8112 -26.8111 -26.8099 -26.8098 -26.8071 -26.8071
   -26.8059 -26.8058 -10.5568 -10.5568 -10.0329 -10.0329  -8.9573  -8.9573
    -6.2168  -6.2168  -4.8441  -4.8441  -0.4901  -0.4898  -0.2000  -0.1973
     0.2696   0.2710   0.3231   0.3262   0.5231   0.5254   0.8109   0.8152
     1.0993   1.1018   1.3305   1.3325   1.7258   1.7273   2.4477   2.4493
     2.8800   2.8805   3.0915   3.0921   3.5744   3.5766   4.2246   4.2261
     4.3398   4.3407   6.3149   6.3150   6.4745   6.4746   7.0339   7.0340
     7.5342   7.5343   7.6941   7.6943

          k = 0.0643 0.0371 0.0000 ( 14482 PWs)   bands (ev):

   -35.4354 -35.4354 -35.4294 -35.4294 -35.4093 -35.4093 -35.4033 -35.4033
   -35.3214 -35.3214 -35.2859 -35.2859 -33.9756 -33.9756 -33.9696 -33.9696
   -33.9534 -33.9534 -33.9475 -33.9475 -33.9417 -33.9417 -33.9357 -33.9357
   -33.8588 -33.8588 -33.8434 -33.8434 -33.8128 -33.8128 -28.0602 -28.0602
   -28.0561 -28.0561 -28.0514 -28.0514 -28.0474 -28.0474 -26.8211 -26.8211
   -26.8170 -26.8170 -26.8112 -26.8111 -26.8099 -26.8098 -26.8071 -26.8071
   -26.8059 -26.8058 -10.5494 -10.5494 -10.0261 -10.0261  -8.9531  -8.9531
    -6.2177  -6.2177  -4.8568  -4.8567  -0.5045  -0.5040  -0.2553  -0.2524
     0.2323   0.2350   0.2879   0.2903   0.5057   0.5079   0.7872   0.7910
     1.0990   1.1012   1.3546   1.3564   1.7557   1.7570   2.4674   2.4689
     2.8976   2.8988   3.1065   3.1071   3.5963   3.5984   4.2213   4.2229
     4.3758   4.3768   6.3277   6.3279   6.4774   6.4775   7.0329   7.0330
     7.5000   7.5002   7.6956   7.6957

          k = 0.0714 0.0412 0.0000 ( 14479 PWs)   bands (ev):

   -35.4354 -35.4354 -35.4294 -35.4294 -35.4093 -35.4093 -35.4033 -35.4033
   -35.3214 -35.3214 -35.2859 -35.2859 -33.9756 -33.9756 -33.9696 -33.9696
   -33.9534 -33.9534 -33.9475 -33.9475 -33.9417 -33.9417 -33.9357 -33.9357
   -33.8588 -33.8588 -33.8434 -33.8434 -33.8128 -33.8128 -28.0602 -28.0601
   -28.0561 -28.0561 -28.0514 -28.0514 -28.0474 -28.0474 -26.8210 -26.8210
   -26.8170 -26.8170 -26.8112 -26.8111 -26.8099 -26.8098 -26.8071 -26.8071
   -26.8059 -26.8058 -10.5410 -10.5410 -10.0184 -10.0184  -8.9484  -8.9484
    -6.2188  -6.2188  -4.8708  -4.8708  -0.5224  -0.5217  -0.3114  -0.3083
     0.1855   0.1890   0.2602   0.2625   0.4859   0.4880   0.7586   0.7618
     1.0989   1.1010   1.3842   1.3859   1.7794   1.7807   2.4830   2.4844
     2.9211   2.9229   3.1287   3.1296   3.6172   3.6193   4.2187   4.2205
     4.4142   4.4151   6.3418   6.3419   6.4804   6.4806   7.0299   7.0300
     7.4679   7.4680   7.6971   7.6973

          k = 0.0786 0.0454 0.0000 ( 14497 PWs)   bands (ev):

   -35.4354 -35.4354 -35.4294 -35.4294 -35.4093 -35.4093 -35.4033 -35.4033
   -35.3214 -35.3214 -35.2859 -35.2859 -33.9756 -33.9756 -33.9696 -33.9696
   -33.9534 -33.9534 -33.9475 -33.9475 -33.9417 -33.9417 -33.9357 -33.9357
   -33.8588 -33.8588 -33.8434 -33.8434 -33.8128 -33.8128 -28.0601 -28.0601
   -28.0561 -28.0561 -28.0514 -28.0514 -28.0474 -28.0474 -26.8210 -26.8210
   -26.8169 -26.8169 -26.8112 -26.8111 -26.8099 -26.8098 -26.8072 -26.8071
   -26.8059 -26.8058 -10.5319 -10.5319 -10.0100 -10.0100  -8.9432  -8.9432
    -6.2201  -6.2201  -4.8865  -4.8864  -0.5454  -0.5444  -0.3663  -0.3629
     0.1352   0.1390   0.2348   0.2370   0.4631   0.4652   0.7269   0.7295
     1.1003   1.1021   1.4170   1.4186   1.7950   1.7962   2.4973   2.4985
     2.9492   2.9514   3.1572   3.1585   3.6379   3.6398   4.2178   4.2196
     4.4538   4.4547   6.3569   6.3571   6.4835   6.4837   7.0243   7.0244
     7.4391   7.4393   7.6988   7.6989

          k = 0.0857 0.0495 0.0000 ( 14485 PWs)   bands (ev):

   -35.4354 -35.4354 -35.4294 -35.4294 -35.4093 -35.4093 -35.4033 -35.4033
   -35.3214 -35.3214 -35.2859 -35.2859 -33.9756 -33.9756 -33.9696 -33.9696
   -33.9534 -33.9534 -33.9475 -33.9475 -33.9417 -33.9417 -33.9357 -33.9357
   -33.8588 -33.8588 -33.8434 -33.8434 -33.8128 -33.8128 -28.0601 -28.0601
   -28.0561 -28.0561 -28.0515 -28.0514 -28.0474 -28.0474 -26.8210 -26.8210
   -26.8169 -26.8169 -26.8112 -26.8112 -26.8099 -26.8098 -26.8072 -26.8071
   -26.8058 -26.8058 -10.5218 -10.5218 -10.0007 -10.0007  -8.9375  -8.9375
    -6.2216  -6.2216  -4.9035  -4.9034  -0.5756  -0.5744  -0.4173  -0.4137
     0.0837   0.0876   0.2098   0.2119   0.4370   0.4391   0.6942   0.6961
     1.1031   1.1047   1.4512   1.4528   1.8010   1.8022   2.5134   2.5145
     2.9800   2.9825   3.1905   3.1919   3.6589   3.6608   4.2191   4.2209
     4.4939   4.4948   6.3729   6.3732   6.4865   6.4868   7.0154   7.0156
     7.4150   7.4151   7.7005   7.7006

          k = 0.0929 0.0536 0.0000 ( 14477 PWs)   bands (ev):

   -35.4354 -35.4354 -35.4294 -35.4293 -35.4093 -35.4093 -35.4033 -35.4033
   -35.3214 -35.3214 -35.2859 -35.2859 -33.9756 -33.9756 -33.9696 -33.9695
   -33.9534 -33.9534 -33.9475 -33.9475 -33.9417 -33.9417 -33.9357 -33.9357
   -33.8588 -33.8588 -33.8434 -33.8434 -33.8128 -33.8128 -28.0601 -28.0601
   -28.0561 -28.0560 -28.0515 -28.0514 -28.0474 -28.0474 -26.8210 -26.8210
   -26.8169 -26.8169 -26.8112 -26.8112 -26.8099 -26.8098 -26.8072 -26.8071
   -26.8058 -26.8058 -10.5108 -10.5108  -9.9907  -9.9907  -8.9314  -8.9314
    -6.2233  -6.2233  -4.9220  -4.9219  -0.6155  -0.6142  -0.4614  -0.4578
     0.0317   0.0356   0.1847   0.1866   0.4075   0.4097   0.6620   0.6633
     1.1070   1.1083   1.4857   1.4873   1.7969   1.7983   2.5332   2.5341
     3.0125   3.0150   3.2264   3.2280   3.6815   3.6831   4.2233   4.2251
     4.5340   4.5348   6.3897   6.3900   6.4894   6.4896   7.0031   7.0032
     7.3964   7.3965   7.7024   7.7025

          k = 0.1000 0.0577 0.0000 ( 14477 PWs)   bands (ev):

   -35.4354 -35.4353 -35.4293 -35.4293 -35.4093 -35.4093 -35.4033 -35.4033
   -35.3214 -35.3214 -35.2859 -35.2859 -33.9756 -33.9756 -33.9695 -33.9695
   -33.9534 -33.9534 -33.9475 -33.9475 -33.9417 -33.9417 -33.9357 -33.9357
   -33.8588 -33.8588 -33.8434 -33.8434 -33.8128 -33.8128 -28.0601 -28.0601
   -28.0560 -28.0560 -28.0515 -28.0514 -28.0474 -28.0474 -26.8210 -26.8210
   -26.8169 -26.8169 -26.8112 -26.8112 -26.8098 -26.8098 -26.8072 -26.8071
   -26.8058 -26.8058 -10.4990 -10.4990  -9.9799  -9.9799  -8.9249  -8.9249
    -6.2253  -6.2253  -4.9419  -4.9419  -0.6655  -0.6644  -0.4977  -0.4943
    -0.0207  -0.0169   0.1595   0.1612   0.3748   0.3772   0.6313   0.6324
     1.1112   1.1124   1.5193   1.5209   1.7837   1.7853   2.5573   2.5581
     3.0461   3.0485   3.2626   3.2643   3.7066   3.7081   4.2308   4.2326
     4.5734   4.5742   6.4069   6.4072   6.4919   6.4922   6.9873   6.9874
     7.3838   7.3839   7.7046   7.7046

          k = 0.1071 0.0619 0.0000 ( 14483 PWs)   bands (ev):

   -35.4353 -35.4353 -35.4293 -35.4293 -35.4093 -35.4093 -35.4033 -35.4033
   -35.3214 -35.3214 -35.2859 -35.2859 -33.9756 -33.9756 -33.9695 -33.9695
   -33.9534 -33.9534 -33.9475 -33.9475 -33.9417 -33.9416 -33.9357 -33.9357
   -33.8588 -33.8588 -33.8435 -33.8435 -33.8128 -33.8128 -28.0601 -28.0601
   -28.0560 -28.0560 -28.0515 -28.0514 -28.0475 -28.0474 -26.8209 -26.8209
   -26.8169 -26.8169 -26.8113 -26.8112 -26.8098 -26.8098 -26.8072 -26.8072
   -26.8058 -26.8058 -10.4864 -10.4864  -9.9683  -9.9683  -8.9180  -8.9180
    -6.2276  -6.2276  -4.9633  -4.9633  -0.7236  -0.7228  -0.5279  -0.5248
    -0.0735  -0.0698   0.1341   0.1356   0.3396   0.3422   0.6027   0.6038
     1.1155   1.1164   1.5508   1.5525   1.7635   1.7652   2.5853   2.5860
     3.0808   3.0830   3.2969   3.2987   3.7353   3.7366   4.2421   4.2438
     4.6117   4.6124   6.4240   6.4244   6.4942   6.4945   6.9690   6.9691
     7.3771   7.3772   7.7072   7.7073

          k = 0.1143 0.0660 0.0000 ( 14481 PWs)   bands (ev):

   -35.4353 -35.4353 -35.4293 -35.4293 -35.4093 -35.4093 -35.4033 -35.4033
   -35.3214 -35.3214 -35.2859 -35.2859 -33.9755 -33.9755 -33.9695 -33.9695
   -33.9534 -33.9534 -33.9475 -33.9475 -33.9417 -33.9416 -33.9357 -33.9357
   -33.8588 -33.8588 -33.8435 -33.8435 -33.8127 -33.8127 -28.0601 -28.0601
   -28.0560 -28.0560 -28.0515 -28.0514 -28.0475 -28.0474 -26.8209 -26.8209
   -26.8168 -26.8168 -26.8113 -26.8112 -26.8098 -26.8098 -26.8072 -26.8072
   -26.8058 -26.8057 -10.4729 -10.4729  -9.9560  -9.9560  -8.9106  -8.9106
    -6.2302  -6.2301  -4.9862  -4.9861  -0.7871  -0.7865  -0.5545  -0.5518
    -0.1269  -0.1232   0.1084   0.1097   0.3027   0.3055   0.5763   0.5777
     1.1191   1.1201   1.5773   1.5792   1.7400   1.7420   2.6158   2.6165
     3.1167   3.1186   3.3274   3.3293   3.7683   3.7694   4.2576   4.2591
     4.6486   4.6492   6.4397   6.4401   6.4968   6.4972   6.9494   6.9495
     7.3759   7.3760   7.7105   7.7106

          k = 0.1214 0.0701 0.0000 ( 14479 PWs)   bands (ev):

   -35.4353 -35.4353 -35.4293 -35.4293 -35.4093 -35.4092 -35.4033 -35.4033
   -35.3214 -35.3214 -35.2859 -35.2859 -33.9755 -33.9755 -33.9695 -33.9695
   -33.9534 -33.9534 -33.9475 -33.9475 -33.9417 -33.9416 -33.9357 -33.9357
   -33.8588 -33.8588 -33.8435 -33.8435 -33.8127 -33.8127 -28.0601 -28.0601
   -28.0560 -28.0560 -28.0515 -28.0514 -28.0475 -28.0474 -26.8209 -26.8209
   -26.8168 -26.8168 -26.8113 -26.8112 -26.8098 -26.8098 -26.8073 -26.8072
   -26.8058 -26.8057 -10.4585 -10.4585  -9.9429  -9.9429  -8.9028  -8.9028
    -6.2331  -6.2331  -5.0105  -5.0104  -0.8537  -0.8533  -0.5794  -0.5768
    -0.1808  -0.1772   0.0822   0.0833   0.2653   0.2682   0.5521   0.5538
     1.1219   1.1229   1.5928   1.5948   1.7208   1.7231   2.6476   2.6482
     3.1538   3.1555   3.3534   3.3553   3.8055   3.8064   4.2777   4.2790
     4.6837   4.6842   6.4511   6.4515   6.5019   6.5022   6.9300   6.9302
     7.3794   7.3795   7.7147   7.7148

          k = 0.1286 0.0742 0.0000 ( 14484 PWs)   bands (ev):

   -35.4353 -35.4353 -35.4293 -35.4293 -35.4093 -35.4092 -35.4033 -35.4033
   -35.3214 -35.3214 -35.2859 -35.2859 -33.9755 -33.9755 -33.9695 -33.9695
   -33.9534 -33.9534 -33.9475 -33.9475 -33.9417 -33.9416 -33.9357 -33.9357
   -33.8588 -33.8588 -33.8435 -33.8435 -33.8127 -33.8127 -28.0601 -28.0601
   -28.0560 -28.0560 -28.0515 -28.0514 -28.0475 -28.0474 -26.8209 -26.8209
   -26.8168 -26.8168 -26.8113 -26.8112 -26.8098 -26.8097 -26.8073 -26.8072
   -26.8058 -26.8057 -10.4434 -10.4433  -9.9291  -9.9291  -8.8947  -8.8947
    -6.2365  -6.2364  -5.0361  -5.0361  -0.9223  -0.9219  -0.6033  -0.6009
    -0.2353  -0.2319   0.0553   0.0561   0.2283   0.2312   0.5299   0.5319
     1.1234   1.1245   1.5874   1.5894   1.7174   1.7196   2.6791   2.6797
     3.1922   3.1936   3.3751   3.3771   3.8462   3.8469   4.3025   4.3036
     4.7169   4.7174   6.4545   6.4548   6.5124   6.5126   6.9127   6.9128
     7.3869   7.3870   7.7201   7.7201

          k = 0.1357 0.0784 0.0000 ( 14496 PWs)   bands (ev):

   -35.4353 -35.4353 -35.4293 -35.4293 -35.4093 -35.4092 -35.4033 -35.4033
   -35.3214 -35.3214 -35.2859 -35.2859 -33.9755 -33.9755 -33.9695 -33.9695
   -33.9534 -33.9534 -33.9475 -33.9475 -33.9417 -33.9416 -33.9357 -33.9357
   -33.8588 -33.8588 -33.8435 -33.8435 -33.8127 -33.8127 -28.0601 -28.0600
   -28.0560 -28.0560 -28.0515 -28.0514 -28.0475 -28.0474 -26.8208 -26.8208
   -26.8168 -26.8167 -26.8113 -26.8113 -26.8098 -26.8097 -26.8073 -26.8072
   -26.8058 -26.8057 -10.4273 -10.4273  -9.9145  -9.9145  -8.8862  -8.8862
    -6.2402  -6.2402  -5.0632  -5.0632  -0.9919  -0.9916  -0.6268  -0.6246
    -0.2905  -0.2872   0.0272   0.0278   0.1925   0.1954   0.5095   0.5117
     1.1231   1.1246   1.5608   1.5629   1.7309   1.7327   2.7091   2.7097
     3.2315   3.2326   3.3937   3.3957   3.8890   3.8896   4.3324   4.3332
     4.7482   4.7485   6.4491   6.4493   6.5284   6.5285   6.8988   6.8989
[...]
    -6.2402  -6.2401  -5.0765  -5.0764  -0.9537  -0.9530  -0.6515  -0.6494
    -0.4614  -0.4602  -0.0358  -0.0322   0.2953   0.2961   0.5479   0.5480
     0.9119   0.9126   1.6504   1.6531   1.7601   1.7628   2.7447   2.7460
     3.1485   3.1493   3.3578   3.3586   4.0166   4.0183   4.3551   4.3565
     4.7626   4.7631   6.5156   6.5165   6.5339   6.5348   6.9323   6.9325
     7.2219   7.2221   7.7270   7.7271

          k = 0.0762 0.1328 0.0000 ( 14490 PWs)   bands (ev):

   -35.4353 -35.4353 -35.4293 -35.4293 -35.4093 -35.4092 -35.4033 -35.4033
   -35.3214 -35.3214 -35.2859 -35.2859 -33.9755 -33.9755 -33.9695 -33.9695
   -33.9534 -33.9534 -33.9475 -33.9475 -33.9417 -33.9416 -33.9357 -33.9356
   -33.8588 -33.8588 -33.8435 -33.8435 -33.8127 -33.8127 -28.0601 -28.0600
   -28.0560 -28.0560 -28.0515 -28.0514 -28.0475 -28.0474 -26.8208 -26.8208
   -26.8168 -26.8167 -26.8113 -26.8112 -26.8099 -26.8097 -26.8073 -26.8072
   -26.8059 -26.8057 -10.4344 -10.4344  -9.9207  -9.9206  -8.8892  -8.8892
    -6.2359  -6.2359  -5.0448  -5.0447  -0.8837  -0.8831  -0.6161  -0.6136
    -0.3905  -0.3894   0.0059   0.0098   0.3228   0.3237   0.5707   0.5708
     0.9366   0.9373   1.6486   1.6514   1.7488   1.7518   2.7375   2.7389
     3.0916   3.0924   3.3302   3.3312   3.9830   3.9852   4.3027   4.3045
     4.7296   4.7300   6.5028   6.5042   6.5168   6.5181   6.9539   6.9540
     7.2405   7.2407   7.7114   7.7114

          k = 0.0714 0.1245 0.0000 ( 14501 PWs)   bands (ev):

   -35.4353 -35.4353 -35.4293 -35.4293 -35.4093 -35.4092 -35.4033 -35.4033
   -35.3214 -35.3214 -35.2859 -35.2859 -33.9755 -33.9755 -33.9695 -33.9695
   -33.9534 -33.9534 -33.9475 -33.9475 -33.9417 -33.9416 -33.9357 -33.9357
   -33.8588 -33.8588 -33.8435 -33.8435 -33.8127 -33.8127 -28.0601 -28.0601
   -28.0560 -28.0560 -28.0515 -28.0514 -28.0475 -28.0474 -26.8209 -26.8209
   -26.8168 -26.8168 -26.8113 -26.8112 -26.8099 -26.8097 -26.8072 -26.8072
   -26.8059 -26.8057 -10.4525 -10.4525  -9.9372  -9.9372  -8.8990  -8.8990
    -6.2322  -6.2322  -5.0150  -5.0149  -0.8146  -0.8141  -0.5831  -0.5802
    -0.3175  -0.3163   0.0486   0.0528   0.3474   0.3483   0.5936   0.5939
     0.9615   0.9622   1.6298   1.6321   1.7511   1.7538   2.7267   2.7281
     3.0354   3.0361   3.3065   3.3075   3.9396   3.9421   4.2634   4.2655
     4.6944   4.6948   6.4789   6.4795   6.5120   6.5126   6.9734   6.9735
     7.2639   7.2642   7.6985   7.6985

          k = 0.0667 0.1162 0.0000 ( 14503 PWs)   bands (ev):

   -35.4353 -35.4353 -35.4293 -35.4293 -35.4093 -35.4093 -35.4033 -35.4033
   -35.3214 -35.3214 -35.2859 -35.2859 -33.9755 -33.9755 -33.9695 -33.9695
   -33.9534 -33.9534 -33.9475 -33.9475 -33.9417 -33.9416 -33.9357 -33.9357
   -33.8588 -33.8588 -33.8435 -33.8435 -33.8127 -33.8127 -28.0601 -28.0601
   -28.0560 -28.0560 -28.0515 -28.0514 -28.0475 -28.0474 -26.8209 -26.8209
   -26.8168 -26.8168 -26.8113 -26.8112 -26.8099 -26.8098 -26.8072 -26.8072
   -26.8059 -26.8057 -10.4695 -10.4695  -9.9527  -9.9527  -8.9083  -8.9082
    -6.2290  -6.2290  -4.9869  -4.9869  -0.7478  -0.7472  -0.5503  -0.5469
    -0.2442  -0.2430   0.0926   0.0969   0.3692   0.3702   0.6170   0.6174
     0.9862   0.9869   1.5977   1.5994   1.7624   1.7647   2.7097   2.7111
     2.9847   2.9856   3.2839   3.2850   3.8886   3.8913   4.2367   4.2390
     4.6569   4.6572   6.4544   6.4549   6.5076   6.5080   6.9904   6.9906
     7.2918   7.2921   7.6886   7.6886

          k = 0.0619 0.1079 0.0000 ( 14501 PWs)   bands (ev):

   -35.4353 -35.4353 -35.4293 -35.4293 -35.4093 -35.4093 -35.4033 -35.4033
   -35.3214 -35.3214 -35.2859 -35.2859 -33.9756 -33.9755 -33.9695 -33.9695
   -33.9534 -33.9534 -33.9475 -33.9475 -33.9417 -33.9416 -33.9357 -33.9357
   -33.8588 -33.8588 -33.8434 -33.8434 -33.8128 -33.8128 -28.0601 -28.0601
   -28.0560 -28.0560 -28.0515 -28.0514 -28.0475 -28.0474 -26.8209 -26.8209
   -26.8169 -26.8168 -26.8112 -26.8112 -26.8099 -26.8098 -26.8072 -26.8071
   -26.8059 -26.8058 -10.4853 -10.4853  -9.9672  -9.9672  -8.9170  -8.9170
    -6.2262  -6.2262  -4.9608  -4.9607  -0.6855  -0.6845  -0.5152  -0.5113
    -0.1717  -0.1705   0.1377   0.1421   0.3888   0.3899   0.6409   0.6416
     1.0101   1.0108   1.5583   1.5596   1.7758   1.7778   2.6843   2.6858
     2.9439   2.9449   3.2601   3.2612   3.8341   3.8369   4.2201   4.2224
     4.6169   4.6173   6.4308   6.4312   6.5029   6.5032   7.0047   7.0048
     7.3238   7.3241   7.6816   7.6816

          k = 0.0571 0.0996 0.0000 ( 14499 PWs)   bands (ev):

   -35.4354 -35.4354 -35.4293 -35.4293 -35.4093 -35.4093 -35.4033 -35.4033
   -35.3214 -35.3214 -35.2859 -35.2859 -33.9756 -33.9756 -33.9695 -33.9695
   -33.9534 -33.9534 -33.9475 -33.9475 -33.9417 -33.9417 -33.9357 -33.9357
   -33.8588 -33.8588 -33.8434 -33.8434 -33.8128 -33.8128 -28.0601 -28.0601
   -28.0560 -28.0560 -28.0515 -28.0514 -28.0475 -28.0474 -26.8210 -26.8209
   -26.8169 -26.8169 -26.8112 -26.8112 -26.8099 -26.8098 -26.8072 -26.8071
   -26.8059 -26.8058 -10.5000 -10.5000  -9.9807  -9.9807  -8.9251  -8.9251
    -6.2239  -6.2238  -4.9365  -4.9365  -0.6307  -0.6294  -0.4749  -0.4706
    -0.1006  -0.0994   0.1833   0.1878   0.4068   0.4078   0.6654   0.6665
     1.0331   1.0338   1.5150   1.5161   1.7869   1.7888   2.6506   2.6522
     2.9149   2.9161   3.2336   3.2347   3.7802   3.7830   4.2109   4.2132
     4.5748   4.5752   6.4083   6.4086   6.4980   6.4983   7.0160   7.0161
     7.3594   7.3597   7.6773   7.6773

          k = 0.0524 0.0913 0.0000 ( 14491 PWs)   bands (ev):

   -35.4354 -35.4354 -35.4294 -35.4294 -35.4093 -35.4093 -35.4033 -35.4033
   -35.3214 -35.3214 -35.2859 -35.2859 -33.9756 -33.9756 -33.9696 -33.9695
   -33.9534 -33.9534 -33.9475 -33.9475 -33.9417 -33.9417 -33.9357 -33.9357
   -33.8588 -33.8588 -33.8434 -33.8434 -33.8128 -33.8128 -28.0601 -28.0601
   -28.0561 -28.0560 -28.0515 -28.0514 -28.0474 -28.0474 -26.8210 -26.8210
   -26.8169 -26.8169 -26.8112 -26.8112 -26.8099 -26.8098 -26.8072 -26.8071
   -26.8059 -26.8058 -10.5135 -10.5135  -9.9931  -9.9931  -8.9326  -8.9326
    -6.2218  -6.2218  -4.9142  -4.9141  -0.5860  -0.5846  -0.4270  -0.4225
    -0.0312  -0.0299   0.2282   0.2327   0.4237   0.4247   0.6908   0.6923
     1.0550   1.0557   1.4698   1.4708   1.7926   1.7944   2.6114   2.6130
     2.8966   2.8980   3.2037   3.2048   3.7302   3.7328   4.2070   4.2092
     4.5308   4.5312   6.3870   6.3873   6.4931   6.4933   7.0244   7.0246
     7.3980   7.3983   7.6753   7.6754

          k = 0.0476 0.0830 0.0000 ( 14485 PWs)   bands (ev):

   -35.4354 -35.4354 -35.4294 -35.4294 -35.4093 -35.4093 -35.4033 -35.4033
   -35.3214 -35.3214 -35.2859 -35.2859 -33.9756 -33.9756 -33.9696 -33.9696
   -33.9534 -33.9534 -33.9475 -33.9475 -33.9417 -33.9417 -33.9357 -33.9357
   -33.8588 -33.8588 -33.8434 -33.8434 -33.8128 -33.8128 -28.0601 -28.0601
   -28.0561 -28.0561 -28.0515 -28.0514 -28.0474 -28.0474 -26.8210 -26.8210
   -26.8169 -26.8169 -26.8112 -26.8111 -26.8099 -26.8098 -26.8072 -26.8071
   -26.8059 -26.8058 -10.5259 -10.5259 -10.0044 -10.0044  -8.9396  -8.9396
    -6.2201  -6.2201  -4.8938  -4.8937  -0.5517  -0.5505  -0.3716  -0.3673
     0.0365   0.0377   0.2711   0.2754   0.4404   0.4415   0.7169   0.7189
     1.0755   1.0764   1.4243   1.4253   1.7904   1.7922   2.5706   2.5723
     2.8862   2.8877   3.1711   3.1722   3.6855   3.6881   4.2069   4.2089
     4.4857   4.4862   6.3671   6.3673   6.4884   6.4885   7.0302   7.0303
     7.4390   7.4393   7.6753   7.6754

          k = 0.0429 0.0747 0.0000 ( 14481 PWs)   bands (ev):

   -35.4354 -35.4354 -35.4294 -35.4294 -35.4093 -35.4093 -35.4033 -35.4033
   -35.3214 -35.3214 -35.2859 -35.2859 -33.9756 -33.9756 -33.9696 -33.9696
   -33.9534 -33.9534 -33.9475 -33.9475 -33.9417 -33.9417 -33.9357 -33.9357
   -33.8588 -33.8588 -33.8434 -33.8434 -33.8128 -33.8128 -28.0602 -28.0601
   -28.0561 -28.0561 -28.0514 -28.0514 -28.0474 -28.0474 -26.8210 -26.8210
   -26.8170 -26.8169 -26.8112 -26.8111 -26.8099 -26.8098 -26.8071 -26.8071
   -26.8059 -26.8058 -10.5370 -10.5370 -10.0147 -10.0147  -8.9459  -8.9459
    -6.2187  -6.2187  -4.8753  -4.8753  -0.5256  -0.5247  -0.3118  -0.3078
     0.1021   0.1033   0.3103   0.3142   0.4580   0.4590   0.7433   0.7459
     1.0942   1.0954   1.3804   1.3816   1.7787   1.7804   2.5308   2.5328
     2.8812   2.8827   3.1380   3.1391   3.6464   3.6488   4.2093   4.2111
     4.4403   4.4408   6.3486   6.3488   6.4838   6.4840   7.0335   7.0336
     7.4817   7.4818   7.6767   7.6768

          k = 0.0381 0.0664 0.0000 ( 14482 PWs)   bands (ev):

   -35.4354 -35.4354 -35.4294 -35.4294 -35.4093 -35.4093 -35.4033 -35.4033
   -35.3214 -35.3214 -35.2859 -35.2859 -33.9756 -33.9756 -33.9696 -33.9696
   -33.9534 -33.9534 -33.9475 -33.9475 -33.9417 -33.9417 -33.9357 -33.9357
   -33.8588 -33.8588 -33.8434 -33.8434 -33.8128 -33.8128 -28.0602 -28.0602
   -28.0561 -28.0561 -28.0514 -28.0514 -28.0474 -28.0474 -26.8211 -26.8210
   -26.8170 -26.8170 -26.8112 -26.8111 -26.8099 -26.8098 -26.8071 -26.8071
   -26.8059 -26.8058 -10.5471 -10.5471 -10.0239 -10.0239  -8.9517  -8.9517
    -6.2175  -6.2175  -4.8588  -4.8588  -0.5052  -0.5046  -0.2505  -0.2468
     0.1647   0.1660   0.3449   0.3484   0.4771   0.4781   0.7692   0.7724
     1.1097   1.1112   1.3411   1.3426   1.7571   1.7588   2.4929   2.4949
     2.8793   2.8807   3.1081   3.1092   3.6119   3.6141   4.2134   4.2150
     4.3957   4.3962   6.3317   6.3318   6.4796   6.4797   7.0350   7.0350
     7.5249   7.5251   7.6790   7.6791

          k = 0.0333 0.0581 0.0000 ( 14485 PWs)   bands (ev):

   -35.4354 -35.4354 -35.4294 -35.4294 -35.4093 -35.4093 -35.4033 -35.4033
   -35.3214 -35.3214 -35.2859 -35.2859 -33.9756 -33.9756 -33.9696 -33.9696
   -33.9534 -33.9534 -33.9475 -33.9475 -33.9417 -33.9417 -33.9357 -33.9357
   -33.8588 -33.8588 -33.8434 -33.8434 -33.8128 -33.8128 -28.0602 -28.0602
   -28.0561 -28.0561 -28.0514 -28.0514 -28.0474 -28.0474 -26.8211 -26.8211
   -26.8170 -26.8170 -26.8112 -26.8111 -26.8099 -26.8098 -26.8071 -26.8071
   -26.8059 -26.8058 -10.5559 -10.5559 -10.0321 -10.0321  -8.9567  -8.9567
    -6.2165  -6.2165  -4.8443  -4.8442  -0.4891  -0.4887  -0.1899  -0.1866
     0.2220   0.2235   0.3763   0.3793   0.4979   0.4990   0.7931   0.7970
     1.1184   1.1204   1.3114   1.3133   1.7267   1.7284   2.4558   2.4579
     2.8782   2.8795   3.0859   3.0872   3.5804   3.5825   4.2180   4.2194
     4.3535   4.3539   6.3164   6.3166   6.4758   6.4759   7.0349   7.0350
     7.5675   7.5677   7.6817   7.6819

          k = 0.0286 0.0498 0.0000 ( 14487 PWs)   bands (ev):

   -35.4354 -35.4354 -35.4294 -35.4294 -35.4093 -35.4093 -35.4033 -35.4033
   -35.3214 -35.3214 -35.2859 -35.2859 -33.9756 -33.9756 -33.9696 -33.9696
   -33.9534 -33.9534 -33.9475 -33.9475 -33.9417 -33.9417 -33.9357 -33.9357
   -33.8588 -33.8588 -33.8434 -33.8434 -33.8128 -33.8128 -28.0602 -28.0602
   -28.0561 -28.0561 -28.0514 -28.0514 -28.0474 -28.0474 -26.8211 -26.8211
   -26.8170 -26.8170 -26.8111 -26.8111 -26.8099 -26.8098 -26.8071 -26.8071
   -26.8059 -26.8058 -10.5636 -10.5636 -10.0392 -10.0392  -8.9612  -8.9611
    -6.2157  -6.2157  -4.8317  -4.8316  -0.4763  -0.4760  -0.1318  -0.1288
     0.2693   0.2711   0.4094   0.4121   0.5194   0.5206   0.8132   0.8176
     1.1150   1.1174   1.2984   1.3005   1.6901   1.6918   2.4180   2.4201
     2.8760   2.8773   3.0756   3.0771   3.5504   3.5522   4.2215   4.2227
     4.3157   4.3160   6.3030   6.3031   6.4723   6.4724   7.0338   7.0339
     7.6076   7.6077   7.6848   7.6850

          k = 0.0238 0.0415 0.0000 ( 14481 PWs)   bands (ev):

   -35.4354 -35.4354 -35.4294 -35.4294 -35.4093 -35.4093 -35.4033 -35.4033
   -35.3214 -35.3214 -35.2859 -35.2859 -33.9756 -33.9756 -33.9696 -33.9696
   -33.9534 -33.9534 -33.9475 -33.9475 -33.9417 -33.9417 -33.9357 -33.9357
   -33.8588 -33.8588 -33.8434 -33.8434 -33.8128 -33.8128 -28.0602 -28.0602
   -28.0561 -28.0561 -28.0514 -28.0514 -28.0474 -28.0474 -26.8211 -26.8211
   -26.8170 -26.8170 -26.8111 -26.8111 -26.8099 -26.8098 -26.8071 -26.8071
   -26.8059 -26.8058 -10.5701 -10.5701 -10.0452 -10.0452  -8.9649  -8.9649
    -6.2151  -6.2151  -4.8210  -4.8209  -0.4661  -0.4659  -0.0775  -0.0748
     0.3009   0.3030   0.4504   0.4530   0.5403   0.5418   0.8272   0.8321
     1.0980   1.1002   1.3046   1.3065   1.6505   1.6522   2.3789   2.3808
     2.8717   2.8729   3.0790   3.0808   3.5205   3.5222   4.2208   4.2217
     4.2863   4.2865   6.2914   6.2914   6.4694   6.4695   7.0322   7.0322
     7.6421   7.6422   7.6890   7.6892

          k = 0.0190 0.0332 0.0000 ( 14482 PWs)   bands (ev):

   -35.4354 -35.4354 -35.4294 -35.4294 -35.4093 -35.4093 -35.4033 -35.4033
   -35.3214 -35.3214 -35.2859 -35.2859 -33.9756 -33.9756 -33.9696 -33.9696
   -33.9534 -33.9534 -33.9475 -33.9475 -33.9417 -33.9417 -33.9357 -33.9357
   -33.8588 -33.8588 -33.8434 -33.8434 -33.8128 -33.8128 -28.0602 -28.0602
   -28.0561 -28.0561 -28.0514 -28.0514 -28.0474 -28.0474 -26.8211 -26.8211
   -26.8170 -26.8170 -26.8111 -26.8111 -26.8099 -26.8098 -26.8071 -26.8071
   -26.8059 -26.8058 -10.5755 -10.5755 -10.0501 -10.0501  -8.9680  -8.9680
    -6.2146  -6.2146  -4.8122  -4.8122  -0.4581  -0.4580  -0.0284  -0.0260
     0.3171   0.3190   0.4997   0.5021   0.5599   0.5620   0.8333   0.8384
     1.0728   1.0746   1.3240   1.3255   1.6119   1.6134   2.3393   2.3410
     2.8660   2.8671   3.0946   3.0964   3.4902   3.4918   4.2109   4.2115
     4.2706   4.2709   6.2817   6.2818   6.4670   6.4670   7.0303   7.0303
     7.6649   7.6650   7.6979   7.6982

          k = 0.0143 0.0249 0.0000 ( 14490 PWs)   bands (ev):

   -35.4354 -35.4354 -35.4294 -35.4294 -35.4093 -35.4093 -35.4033 -35.4033
   -35.3214 -35.3214 -35.2859 -35.2859 -33.9756 -33.9756 -33.9696 -33.9696
   -33.9534 -33.9534 -33.9475 -33.9475 -33.9417 -33.9417 -33.9357 -33.9357
   -33.8588 -33.8588 -33.8434 -33.8434 -33.8128 -33.8128 -28.0602 -28.0602
   -28.0561 -28.0561 -28.0514 -28.0514 -28.0474 -28.0474 -26.8211 -26.8211
   -26.8170 -26.8170 -26.8111 -26.8111 -26.8099 -26.8098 -26.8071 -26.8071
   -26.8059 -26.8058 -10.5796 -10.5796 -10.0539 -10.0539  -8.9704  -8.9704
    -6.2142  -6.2142  -4.8055  -4.8055  -0.4522  -0.4521   0.0139   0.0159
     0.3226   0.3243   0.5485   0.5508   0.5806   0.5843   0.8303   0.8353
     1.0466   1.0481   1.3482   1.3494   1.5780   1.5793   2.3020   2.3033
     2.8605   2.8613   3.1180   3.1197   3.4601   3.4615   4.1944   4.1947
     4.2667   4.2670   6.2741   6.2742   6.4650   6.4651   7.0285   7.0285
     7.6735   7.6736   7.7122   7.7124

          k = 0.0095 0.0166 0.0000 ( 14488 PWs)   bands (ev):

   -35.4354 -35.4354 -35.4294 -35.4294 -35.4093 -35.4093 -35.4033 -35.4033
   -35.3214 -35.3214 -35.2859 -35.2859 -33.9756 -33.9756 -33.9696 -33.9696
   -33.9534 -33.9534 -33.9475 -33.9475 -33.9417 -33.9417 -33.9357 -33.9357
   -33.8588 -33.8588 -33.8434 -33.8434 -33.8128 -33.8128 -28.0602 -28.0602
   -28.0561 -28.0561 -28.0514 -28.0514 -28.0474 -28.0474 -26.8211 -26.8211
   -26.8170 -26.8170 -26.8111 -26.8111 -26.8099 -26.8099 -26.8071 -26.8071
   -26.8059 -26.8058 -10.5826 -10.5826 -10.0566 -10.0566  -8.9721  -8.9721
    -6.2140  -6.2140  -4.8006  -4.8006  -0.4480  -0.4480   0.0473   0.0487
     0.3226   0.3238   0.5766   0.5779   0.6178   0.6216   0.8179   0.8225
     1.0247   1.0258   1.3703   1.3712   1.5522   1.5532   2.2708   2.2717
     2.8561   2.8566   3.1437   3.1450   3.4322   3.4333   4.1790   4.1793
     4.2673   4.2675   6.2686   6.2687   6.4637   6.4637   7.0270   7.0271
     7.6757   7.6758   7.7241   7.7242

          k = 0.0048 0.0083 0.0000 ( 14490 PWs)   bands (ev):

   -35.4354 -35.4354 -35.4294 -35.4294 -35.4093 -35.4093 -35.4033 -35.4033
   -35.3214 -35.3214 -35.2859 -35.2859 -33.9756 -33.9756 -33.9696 -33.9696
   -33.9534 -33.9534 -33.9475 -33.9475 -33.9417 -33.9417 -33.9357 -33.9357
   -33.8588 -33.8588 -33.8434 -33.8434 -33.8128 -33.8128 -28.0602 -28.0602
   -28.0561 -28.0561 -28.0514 -28.0514 -28.0474 -28.0474 -26.8211 -26.8211
   -26.8170 -26.8170 -26.8111 -26.8111 -26.8099 -26.8099 -26.8071 -26.8071
   -26.8059 -26.8059 -10.5844 -10.5844 -10.0583 -10.0583  -8.9731  -8.9731
    -6.2138  -6.2138  -4.7978  -4.7978  -0.4456  -0.4456   0.0691   0.0699
     0.3208   0.3215   0.5873   0.5878   0.6596   0.6622   0.8000   0.8032
     1.0105   1.0111   1.3854   1.3858   1.5368   1.5373   2.2498   2.2503
     2.8534   2.8537   3.1648   3.1656   3.4110   3.4117   4.1689   4.1691
     4.2685   4.2686   6.2653   6.2653   6.4628   6.4628   7.0261   7.0261
     7.6762   7.6763   7.7307   7.7307

          k = 0.0000 0.0000 0.0000 ( 14485 PWs)   bands (ev):

   -35.4354 -35.4354 -35.4294 -35.4294 -35.4093 -35.4093 -35.4033 -35.4033
   -35.3214 -35.3214 -35.2859 -35.2859 -33.9756 -33.9756 -33.9696 -33.9696
   -33.9534 -33.9534 -33.9475 -33.9475 -33.9417 -33.9417 -33.9357 -33.9357
   -33.8588 -33.8588 -33.8434 -33.8434 -33.8128 -33.8128 -28.0602 -28.0602
   -28.0561 -28.0561 -28.0514 -28.0514 -28.0474 -28.0474 -26.8211 -26.8211
   -26.8171 -26.8171 -26.8111 -26.8111 -26.8099 -26.8099 -26.8071 -26.8071
   -26.8059 -26.8059 -10.5850 -10.5850 -10.0588 -10.0588  -8.9735  -8.9735
    -6.2138  -6.2138  -4.7968  -4.7968  -0.4448  -0.4448   0.0771   0.0771
     0.3200   0.3200   0.5906   0.5906   0.6801   0.6801   0.7905   0.7905
     1.0059   1.0059   1.3907   1.3907   1.5319   1.5319   2.2425   2.2425
     2.8526   2.8526   3.1735   3.1735   3.4029   3.4029   4.1655   4.1655
     4.2690   4.2690   6.2642   6.2642   6.4626   6.4626   7.0258   7.0258
     7.6763   7.6763   7.7327   7.7327

     Writing all to output data dir tmp/Sb2Te3-uatsx-c4-soc-1.0.save/ :
     XML data file, pseudopotentials, collected wavefunctions

     init_run     :      1.16s CPU      1.16s WALL (       1 calls)
     electrons    :   1586.76s CPU    860.30s WALL (       1 calls)

     Called by init_run:
     wfcinit      :      0.00s CPU      0.01s WALL (       1 calls)
     wfcinit:wfcr :     40.38s CPU     20.99s WALL (     211 calls)
     potinit      :      0.51s CPU      0.48s WALL (       1 calls)
     hinit0       :      0.55s CPU      0.56s WALL (       1 calls)

     Called by electrons:
     c_bands      :   1586.74s CPU    860.29s WALL (       1 calls)
     v_of_rho     :      0.05s CPU      0.03s WALL (       1 calls)
     v_h          :      0.00s CPU      0.00s WALL (       1 calls)
     v_xc         :      0.04s CPU      0.03s WALL (       1 calls)

     Called by c_bands:
     init_us_2    :      0.20s CPU      0.17s WALL (     211 calls)
     cegterg      :   1538.74s CPU    832.68s WALL (     662 calls)

     Called by sum_band:

     Called by *egterg:
     cdiaghg      :    253.89s CPU    171.55s WALL (   11140 calls)
     cegterg:over :    100.95s CPU     53.15s WALL (   10929 calls)
     cegterg:upda :     49.79s CPU     23.79s WALL (   10929 calls)
     cegterg:last :     81.64s CPU     41.09s WALL (    5696 calls)
     h_psi        :   1042.45s CPU    536.73s WALL (   11802 calls)
     g_psi        :      6.26s CPU      3.96s WALL (   10929 calls)

     Called by h_psi:
     h_psi:calbec :     57.04s CPU     29.04s WALL (   11802 calls)
     vloc_psi     :    923.89s CPU    470.03s WALL (   11802 calls)
     add_vuspsi   :     58.47s CPU     35.91s WALL (   11802 calls)

     General routines
     calbec       :     56.97s CPU     29.01s WALL (   11802 calls)
     fft          :      0.58s CPU      0.58s WALL (      17 calls)
     ffts         :      0.42s CPU      0.42s WALL (       4 calls)
     fftw         :    669.11s CPU    342.83s WALL ( 2426868 calls)
     interpolate  :      0.43s CPU      0.43s WALL (       4 calls)
     davcio       :      0.21s CPU      0.93s WALL (     422 calls)

     Parallel routines

     PWSCF        :  26m43.22s CPU  16m25.77s WALL


   This run was terminated on:  21:19:39  14Aug2025            

=------------------------------------------------------------------------------=
   JOB DONE.
=------------------------------------------------------------------------------=
