
     Program PWSCF v.7.4.1 starts on 14Aug2025 at 13:49:55 

     This program is part of the open-source Quantum ESPRESSO suite
     for quantum simulation of materials; please cite
         "P. Giannozzi et al., J. Phys.:Condens. Matter 21 395502 (2009);
         "P. Giannozzi et al., J. Phys.:Condens. Matter 29 465901 (2017);
         "P. Giannozzi et al., J. Chem. Phys. 152 154105 (2020);
          URL http://www.quantum-espresso.org", 
     in publications or presentations arising from this work. More details at
     http://www.quantum-espresso.org/quote

     Parallel version (MPI & OpenMP), running on      48 processor cores
     Number of MPI processes:                24
     Threads/MPI process:                     2

     MPI processes distributed on     2 nodes
     116099 MiB available memory on the printing compute node when the environment starts

     Waiting for input...
     Reading input from standard input

     Current dimensions of program PWSCF are:
     Max number of different atomic species (ntypx) = 10
     Max number of k-points (npk) =  40000
     Max angular momentum in pseudopotentials (lmaxx) =  4
Error reading attribute index: expected integer, found *
Error reading attribute index: expected integer, found *

     IMPORTANT: XC functional enforced from input :
     Exchange-correlation= PBE
                           (   1   4   3   4   0   0   0)
     Any further DFT definition will be discarded
     Please, verify this is what you really want


     Atomic positions and unit cell read from directory:
     tmp/Sb2Te3-uatsx-c2-soc-0.0.save/

     Message from routine setup:
     no reason to have ecutrho>4*ecutwfc

     R & G space division:  proc/nbgrp/npool/nimage =      24
     Subspace diagonalization in iterative solution of the eigenvalue problem:
     a serial algorithm will be used


     Parallelization info
     --------------------
     sticks:   dense  smooth     PW     G-vecs:    dense   smooth      PW
     Min          94      38     10                18908     4792     720
     Max          95      39     11                18933     4815     753
     Sum        2275     925    253               454177   115133   17665

     Using Slab Decomposition



     bravais-lattice index     =            0
     lattice parameter (alat)  =       8.1456  a.u.
     unit-cell volume          =    2407.5243 (a.u.)^3
     number of atoms/cell      =            5
     number of atomic types    =            2
     number of electrons       =        78.00
     number of Kohn-Sham states=          100
     kinetic-energy cutoff     =      50.0000  Ry
     charge density cutoff     =     500.0000  Ry
     Exchange-correlation= PBE
                           (   1   4   3   4   0   0   0)
     Non magnetic calculation with spin-orbit


     celldm(1)=   8.145633  celldm(2)=   0.000000  celldm(3)=   0.000000
     celldm(4)=   0.000000  celldm(5)=   0.000000  celldm(6)=   0.000000

     crystal axes: (cart. coord. in units of alat)
               a(1) = (   1.000000   0.000000   0.000000 )  
               a(2) = (  -0.500000   0.866351   0.000000 )  
               a(3) = (   0.000000   0.000000   5.141647 )  

     reciprocal axes: (cart. coord. in units 2 pi/alat)
               b(1) = (  1.000000  0.577133 -0.000000 )  
               b(2) = (  0.000000  1.154267  0.000000 )  
               b(3) = (  0.000000 -0.000000  0.194490 )  


     PseudoPot. # 1 for Sb read from file:
     /zfs-home/202401017n1/pseudos/Sb_ONCV_PBE_FR-1.1.upf
     MD5 check sum: 7dc1726f2158e3c51e4807d42b9c5c65
     Pseudo is Norm-conserving, Zval = 15.0
     Generated using ONCVPSP code by D. R. Hamann
     Using radial grid of  602 points, 10 beta functions with: 
                l(1) =   0
                l(2) =   0
                l(3) =   1
                l(4) =   1
                l(5) =   1
                l(6) =   1
                l(7) =   2
                l(8) =   2
                l(9) =   2
               l(10) =   2

     PseudoPot. # 2 for Te read from file:
     /zfs-home/202401017n1/pseudos/Te_ONCV_PBE_FR-1.1.upf
     MD5 check sum: c6e17480449037a9a9d16e6377b5c7c4
     Pseudo is Norm-conserving, Zval = 16.0
     Generated using ONCVPSP code by D. R. Hamann
     Using radial grid of  602 points, 10 beta functions with: 
                l(1) =   0
                l(2) =   0
                l(3) =   1
                l(4) =   1
                l(5) =   1
                l(6) =   1
                l(7) =   2
                l(8) =   2
                l(9) =   2
               l(10) =   2

     atomic species   valence    mass     pseudopotential
     Sb               15.00   121.76000     Sb( 1.00)
     Te               16.00   127.60000     Te( 1.00)

     No symmetry found


                                    s                        frac. trans.

      isym =  1     identity                                     

 cryst.   s( 1) = (     1          0          0      )
                  (     0          1          0      )
                  (     0          0          1      )

 cart.    s( 1) = (  1.0000000  0.0000000  0.0000000 )
                  (  0.0000000  1.0000000  0.0000000 )
                  (  0.0000000  0.0000000  1.0000000 )


   Cartesian axes

     site n.     atom                  positions (alat units)
         1        Sb     tau(   1) = (   0.5754431   0.4220521   3.0333851  )
         2        Te     tau(   2) = (   0.5747551   0.4223309   1.7144876  )
         3        Sb     tau(   3) = (   0.0752910   0.1326355   2.1082148  )
         4        Te     tau(   4) = (   0.0751205   0.1338578   3.4271228  )
         5        Te     tau(   5) = (   0.0748618   0.7114055   2.5708084  )

   Crystallographic axes

     site n.     atom                  positions (cryst. coord.)
         1        Sb     tau(   1) = (  0.8190235  0.4871607  0.5899637  )
         2        Te     tau(   2) = (  0.8184963  0.4874825  0.3334511  )
         3        Sb     tau(   3) = (  0.1518394  0.1530967  0.4100271  )
         4        Te     tau(   4) = (  0.1523743  0.1545076  0.6665418  )
         5        Te     tau(   5) = (  0.4854376  0.8211517  0.4999971  )

     number of k points=   211
                       cart. coord. in units 2pi/alat
        k(    1) = (   0.0000000   0.0000000   0.0000000), wk =   0.0047393
        k(    2) = (   0.0071429   0.0041224   0.0000000), wk =   0.0047393
        k(    3) = (   0.0142857   0.0082448   0.0000000), wk =   0.0047393
        k(    4) = (   0.0214286   0.0123671   0.0000000), wk =   0.0047393
        k(    5) = (   0.0285714   0.0164895   0.0000000), wk =   0.0047393
        k(    6) = (   0.0357143   0.0206119   0.0000000), wk =   0.0047393
        k(    7) = (   0.0428571   0.0247343   0.0000000), wk =   0.0047393
        k(    8) = (   0.0500000   0.0288567   0.0000000), wk =   0.0047393
        k(    9) = (   0.0571429   0.0329790   0.0000000), wk =   0.0047393
        k(   10) = (   0.0642857   0.0371014   0.0000000), wk =   0.0047393
        k(   11) = (   0.0714286   0.0412238   0.0000000), wk =   0.0047393
        k(   12) = (   0.0785714   0.0453462   0.0000000), wk =   0.0047393
        k(   13) = (   0.0857143   0.0494686   0.0000000), wk =   0.0047393
        k(   14) = (   0.0928571   0.0535910   0.0000000), wk =   0.0047393
        k(   15) = (   0.1000000   0.0577133   0.0000000), wk =   0.0047393
        k(   16) = (   0.1071429   0.0618357   0.0000000), wk =   0.0047393
        k(   17) = (   0.1142857   0.0659581   0.0000000), wk =   0.0047393
        k(   18) = (   0.1214286   0.0700805   0.0000000), wk =   0.0047393
        k(   19) = (   0.1285714   0.0742029   0.0000000), wk =   0.0047393
        k(   20) = (   0.1357143   0.0783252   0.0000000), wk =   0.0047393
        k(   21) = (   0.1428571   0.0824476   0.0000000), wk =   0.0047393
        k(   22) = (   0.1500000   0.0865700   0.0000000), wk =   0.0047393
        k(   23) = (   0.1571429   0.0906924   0.0000000), wk =   0.0047393
        k(   24) = (   0.1642857   0.0948148   0.0000000), wk =   0.0047393
        k(   25) = (   0.1714286   0.0989371   0.0000000), wk =   0.0047393
        k(   26) = (   0.1785714   0.1030595   0.0000000), wk =   0.0047393
        k(   27) = (   0.1857143   0.1071819   0.0000000), wk =   0.0047393
        k(   28) = (   0.1928571   0.1113043   0.0000000), wk =   0.0047393
        k(   29) = (   0.2000000   0.1154267   0.0000000), wk =   0.0047393
        k(   30) = (   0.2071429   0.1195490   0.0000000), wk =   0.0047393
        k(   31) = (   0.2142857   0.1236714   0.0000000), wk =   0.0047393
        k(   32) = (   0.2214286   0.1277938   0.0000000), wk =   0.0047393
        k(   33) = (   0.2285714   0.1319162   0.0000000), wk =   0.0047393
        k(   34) = (   0.2357143   0.1360386   0.0000000), wk =   0.0047393
        k(   35) = (   0.2428571   0.1401610   0.0000000), wk =   0.0047393
        k(   36) = (   0.2500000   0.1442833   0.0000000), wk =   0.0047393
        k(   37) = (   0.2571429   0.1484057   0.0000000), wk =   0.0047393
        k(   38) = (   0.2642857   0.1525281   0.0000000), wk =   0.0047393
        k(   39) = (   0.2714286   0.1566505   0.0000000), wk =   0.0047393
        k(   40) = (   0.2785714   0.1607729   0.0000000), wk =   0.0047393
        k(   41) = (   0.2857143   0.1648952   0.0000000), wk =   0.0047393
        k(   42) = (   0.2928571   0.1690176   0.0000000), wk =   0.0047393
        k(   43) = (   0.3000000   0.1731400   0.0000000), wk =   0.0047393
        k(   44) = (   0.3071429   0.1772624   0.0000000), wk =   0.0047393
        k(   45) = (   0.3142857   0.1813848   0.0000000), wk =   0.0047393
        k(   46) = (   0.3214286   0.1855071   0.0000000), wk =   0.0047393
        k(   47) = (   0.3285714   0.1896295   0.0000000), wk =   0.0047393
        k(   48) = (   0.3357143   0.1937519   0.0000000), wk =   0.0047393
        k(   49) = (   0.3428571   0.1978743   0.0000000), wk =   0.0047393
        k(   50) = (   0.3500000   0.2019967   0.0000000), wk =   0.0047393
        k(   51) = (   0.3571429   0.2061190   0.0000000), wk =   0.0047393
        k(   52) = (   0.3642857   0.2102414   0.0000000), wk =   0.0047393
        k(   53) = (   0.3714286   0.2143638   0.0000000), wk =   0.0047393
        k(   54) = (   0.3785714   0.2184862   0.0000000), wk =   0.0047393
        k(   55) = (   0.3857143   0.2226086   0.0000000), wk =   0.0047393
        k(   56) = (   0.3928571   0.2267309   0.0000000), wk =   0.0047393
        k(   57) = (   0.4000000   0.2308533   0.0000000), wk =   0.0047393
        k(   58) = (   0.4071429   0.2349757   0.0000000), wk =   0.0047393
        k(   59) = (   0.4142857   0.2390981   0.0000000), wk =   0.0047393
        k(   60) = (   0.4214286   0.2432205   0.0000000), wk =   0.0047393
        k(   61) = (   0.4285714   0.2473429   0.0000000), wk =   0.0047393
        k(   62) = (   0.4357143   0.2514652   0.0000000), wk =   0.0047393
        k(   63) = (   0.4428571   0.2555876   0.0000000), wk =   0.0047393
        k(   64) = (   0.4500000   0.2597100   0.0000000), wk =   0.0047393
        k(   65) = (   0.4571429   0.2638324   0.0000000), wk =   0.0047393
        k(   66) = (   0.4642857   0.2679548   0.0000000), wk =   0.0047393
        k(   67) = (   0.4714286   0.2720771   0.0000000), wk =   0.0047393
        k(   68) = (   0.4785714   0.2761995   0.0000000), wk =   0.0047393
        k(   69) = (   0.4857143   0.2803219   0.0000000), wk =   0.0047393
        k(   70) = (   0.4928571   0.2844443   0.0000000), wk =   0.0047393
        k(   71) = (   0.5000000   0.2885667   0.0000000), wk =   0.0047393
        k(   72) = (   0.4976190   0.2926890   0.0000000), wk =   0.0047393
        k(   73) = (   0.4952381   0.2968114   0.0000000), wk =   0.0047393
        k(   74) = (   0.4928571   0.3009338   0.0000000), wk =   0.0047393
        k(   75) = (   0.4904762   0.3050562   0.0000000), wk =   0.0047393
        k(   76) = (   0.4880952   0.3091786   0.0000000), wk =   0.0047393
        k(   77) = (   0.4857143   0.3133009   0.0000000), wk =   0.0047393
        k(   78) = (   0.4833333   0.3174233   0.0000000), wk =   0.0047393
        k(   79) = (   0.4809524   0.3215457   0.0000000), wk =   0.0047393
        k(   80) = (   0.4785714   0.3256681   0.0000000), wk =   0.0047393
        k(   81) = (   0.4761905   0.3297905   0.0000000), wk =   0.0047393
        k(   82) = (   0.4738095   0.3339129   0.0000000), wk =   0.0047393
        k(   83) = (   0.4714286   0.3380352   0.0000000), wk =   0.0047393
        k(   84) = (   0.4690476   0.3421576   0.0000000), wk =   0.0047393
        k(   85) = (   0.4666667   0.3462800   0.0000000), wk =   0.0047393
        k(   86) = (   0.4642857   0.3504024   0.0000000), wk =   0.0047393
        k(   87) = (   0.4619048   0.3545248   0.0000000), wk =   0.0047393
        k(   88) = (   0.4595238   0.3586471   0.0000000), wk =   0.0047393
        k(   89) = (   0.4571429   0.3627695   0.0000000), wk =   0.0047393
        k(   90) = (   0.4547619   0.3668919   0.0000000), wk =   0.0047393
        k(   91) = (   0.4523810   0.3710143   0.0000000), wk =   0.0047393
        k(   92) = (   0.4500000   0.3751367   0.0000000), wk =   0.0047393
        k(   93) = (   0.4476190   0.3792590   0.0000000), wk =   0.0047393
        k(   94) = (   0.4452381   0.3833814   0.0000000), wk =   0.0047393
        k(   95) = (   0.4428571   0.3875038   0.0000000), wk =   0.0047393
        k(   96) = (   0.4404762   0.3916262   0.0000000), wk =   0.0047393
        k(   97) = (   0.4380952   0.3957486   0.0000000), wk =   0.0047393
        k(   98) = (   0.4357143   0.3998709   0.0000000), wk =   0.0047393
        k(   99) = (   0.4333333   0.4039933   0.0000000), wk =   0.0047393
        k(  100) = (   0.4309524   0.4081157   0.0000000), wk =   0.0047393
        k(  101) = (   0.4285714   0.4122381   0.0000000), wk =   0.0047393
        k(  102) = (   0.4261905   0.4163605   0.0000000), wk =   0.0047393
        k(  103) = (   0.4238095   0.4204829   0.0000000), wk =   0.0047393
        k(  104) = (   0.4214286   0.4246052   0.0000000), wk =   0.0047393
        k(  105) = (   0.4190476   0.4287276   0.0000000), wk =   0.0047393
        k(  106) = (   0.4166667   0.4328500   0.0000000), wk =   0.0047393
        k(  107) = (   0.4142857   0.4369724   0.0000000), wk =   0.0047393
        k(  108) = (   0.4119048   0.4410948   0.0000000), wk =   0.0047393
        k(  109) = (   0.4095238   0.4452171   0.0000000), wk =   0.0047393
        k(  110) = (   0.4071429   0.4493395   0.0000000), wk =   0.0047393
        k(  111) = (   0.4047619   0.4534619   0.0000000), wk =   0.0047393
        k(  112) = (   0.4023810   0.4575843   0.0000000), wk =   0.0047393
        k(  113) = (   0.4000000   0.4617067   0.0000000), wk =   0.0047393
        k(  114) = (   0.3976190   0.4658290   0.0000000), wk =   0.0047393
        k(  115) = (   0.3952381   0.4699514   0.0000000), wk =   0.0047393
        k(  116) = (   0.3928571   0.4740738   0.0000000), wk =   0.0047393
        k(  117) = (   0.3904762   0.4781962   0.0000000), wk =   0.0047393
        k(  118) = (   0.3880952   0.4823186   0.0000000), wk =   0.0047393
        k(  119) = (   0.3857143   0.4864409   0.0000000), wk =   0.0047393
        k(  120) = (   0.3833333   0.4905633   0.0000000), wk =   0.0047393
        k(  121) = (   0.3809524   0.4946857   0.0000000), wk =   0.0047393
        k(  122) = (   0.3785714   0.4988081   0.0000000), wk =   0.0047393
        k(  123) = (   0.3761905   0.5029305   0.0000000), wk =   0.0047393
        k(  124) = (   0.3738095   0.5070529   0.0000000), wk =   0.0047393
        k(  125) = (   0.3714286   0.5111752   0.0000000), wk =   0.0047393
        k(  126) = (   0.3690476   0.5152976   0.0000000), wk =   0.0047393
        k(  127) = (   0.3666667   0.5194200   0.0000000), wk =   0.0047393
        k(  128) = (   0.3642857   0.5235424   0.0000000), wk =   0.0047393
        k(  129) = (   0.3619048   0.5276648   0.0000000), wk =   0.0047393
        k(  130) = (   0.3595238   0.5317871   0.0000000), wk =   0.0047393
        k(  131) = (   0.3571429   0.5359095   0.0000000), wk =   0.0047393
        k(  132) = (   0.3547619   0.5400319   0.0000000), wk =   0.0047393
        k(  133) = (   0.3523810   0.5441543   0.0000000), wk =   0.0047393
        k(  134) = (   0.3500000   0.5482767   0.0000000), wk =   0.0047393
        k(  135) = (   0.3476190   0.5523990   0.0000000), wk =   0.0047393
        k(  136) = (   0.3452381   0.5565214   0.0000000), wk =   0.0047393
        k(  137) = (   0.3428571   0.5606438   0.0000000), wk =   0.0047393
        k(  138) = (   0.3404762   0.5647662   0.0000000), wk =   0.0047393
        k(  139) = (   0.3380952   0.5688886   0.0000000), wk =   0.0047393
        k(  140) = (   0.3357143   0.5730109   0.0000000), wk =   0.0047393
        k(  141) = (   0.3333333   0.5771333   0.0000000), wk =   0.0047393
        k(  142) = (   0.3285714   0.5688886   0.0000000), wk =   0.0047393
        k(  143) = (   0.3238095   0.5606438   0.0000000), wk =   0.0047393
        k(  144) = (   0.3190476   0.5523990   0.0000000), wk =   0.0047393
        k(  145) = (   0.3142857   0.5441543   0.0000000), wk =   0.0047393
        k(  146) = (   0.3095238   0.5359095   0.0000000), wk =   0.0047393
        k(  147) = (   0.3047619   0.5276648   0.0000000), wk =   0.0047393
        k(  148) = (   0.3000000   0.5194200   0.0000000), wk =   0.0047393
        k(  149) = (   0.2952381   0.5111752   0.0000000), wk =   0.0047393
        k(  150) = (   0.2904762   0.5029305   0.0000000), wk =   0.0047393
        k(  151) = (   0.2857143   0.4946857   0.0000000), wk =   0.0047393
        k(  152) = (   0.2809524   0.4864409   0.0000000), wk =   0.0047393
        k(  153) = (   0.2761905   0.4781962   0.0000000), wk =   0.0047393
        k(  154) = (   0.2714286   0.4699514   0.0000000), wk =   0.0047393
        k(  155) = (   0.2666667   0.4617067   0.0000000), wk =   0.0047393
        k(  156) = (   0.2619048   0.4534619   0.0000000), wk =   0.0047393
        k(  157) = (   0.2571429   0.4452171   0.0000000), wk =   0.0047393
        k(  158) = (   0.2523810   0.4369724   0.0000000), wk =   0.0047393
        k(  159) = (   0.2476190   0.4287276   0.0000000), wk =   0.0047393
        k(  160) = (   0.2428571   0.4204829   0.0000000), wk =   0.0047393
        k(  161) = (   0.2380952   0.4122381   0.0000000), wk =   0.0047393
        k(  162) = (   0.2333333   0.4039933   0.0000000), wk =   0.0047393
        k(  163) = (   0.2285714   0.3957486   0.0000000), wk =   0.0047393
        k(  164) = (   0.2238095   0.3875038   0.0000000), wk =   0.0047393
        k(  165) = (   0.2190476   0.3792590   0.0000000), wk =   0.0047393
        k(  166) = (   0.2142857   0.3710143   0.0000000), wk =   0.0047393
        k(  167) = (   0.2095238   0.3627695   0.0000000), wk =   0.0047393
        k(  168) = (   0.2047619   0.3545248   0.0000000), wk =   0.0047393
        k(  169) = (   0.2000000   0.3462800   0.0000000), wk =   0.0047393
        k(  170) = (   0.1952381   0.3380352   0.0000000), wk =   0.0047393
        k(  171) = (   0.1904762   0.3297905   0.0000000), wk =   0.0047393
        k(  172) = (   0.1857143   0.3215457   0.0000000), wk =   0.0047393
        k(  173) = (   0.1809524   0.3133009   0.0000000), wk =   0.0047393
        k(  174) = (   0.1761905   0.3050562   0.0000000), wk =   0.0047393
        k(  175) = (   0.1714286   0.2968114   0.0000000), wk =   0.0047393
        k(  176) = (   0.1666667   0.2885667   0.0000000), wk =   0.0047393
        k(  177) = (   0.1619048   0.2803219   0.0000000), wk =   0.0047393
        k(  178) = (   0.1571429   0.2720771   0.0000000), wk =   0.0047393
        k(  179) = (   0.1523810   0.2638324   0.0000000), wk =   0.0047393
        k(  180) = (   0.1476190   0.2555876   0.0000000), wk =   0.0047393
        k(  181) = (   0.1428571   0.2473429   0.0000000), wk =   0.0047393
        k(  182) = (   0.1380952   0.2390981   0.0000000), wk =   0.0047393
        k(  183) = (   0.1333333   0.2308533   0.0000000), wk =   0.0047393
        k(  184) = (   0.1285714   0.2226086   0.0000000), wk =   0.0047393
        k(  185) = (   0.1238095   0.2143638   0.0000000), wk =   0.0047393
        k(  186) = (   0.1190476   0.2061190   0.0000000), wk =   0.0047393
        k(  187) = (   0.1142857   0.1978743   0.0000000), wk =   0.0047393
        k(  188) = (   0.1095238   0.1896295   0.0000000), wk =   0.0047393
        k(  189) = (   0.1047619   0.1813848   0.0000000), wk =   0.0047393
        k(  190) = (   0.1000000   0.1731400   0.0000000), wk =   0.0047393
        k(  191) = (   0.0952381   0.1648952   0.0000000), wk =   0.0047393
        k(  192) = (   0.0904762   0.1566505   0.0000000), wk =   0.0047393
        k(  193) = (   0.0857143   0.1484057   0.0000000), wk =   0.0047393
        k(  194) = (   0.0809524   0.1401610   0.0000000), wk =   0.0047393
        k(  195) = (   0.0761905   0.1319162   0.0000000), wk =   0.0047393
        k(  196) = (   0.0714286   0.1236714   0.0000000), wk =   0.0047393
        k(  197) = (   0.0666667   0.1154267   0.0000000), wk =   0.0047393
        k(  198) = (   0.0619048   0.1071819   0.0000000), wk =   0.0047393
        k(  199) = (   0.0571429   0.0989371   0.0000000), wk =   0.0047393
        k(  200) = (   0.0523810   0.0906924   0.0000000), wk =   0.0047393
        k(  201) = (   0.0476190   0.0824476   0.0000000), wk =   0.0047393
        k(  202) = (   0.0428571   0.0742029   0.0000000), wk =   0.0047393
        k(  203) = (   0.0380952   0.0659581   0.0000000), wk =   0.0047393
        k(  204) = (   0.0333333   0.0577133   0.0000000), wk =   0.0047393
        k(  205) = (   0.0285714   0.0494686   0.0000000), wk =   0.0047393
        k(  206) = (   0.0238095   0.0412238   0.0000000), wk =   0.0047393
        k(  207) = (   0.0190476   0.0329790   0.0000000), wk =   0.0047393
        k(  208) = (   0.0142857   0.0247343   0.0000000), wk =   0.0047393
        k(  209) = (   0.0095238   0.0164895   0.0000000), wk =   0.0047393
        k(  210) = (   0.0047619   0.0082448   0.0000000), wk =   0.0047393
        k(  211) = (   0.0000000   0.0000000   0.0000000), wk =   0.0047393

                       cryst. coord.
        k(    1) = (   0.0000000   0.0000000   0.0000000), wk =   0.0047393
        k(    2) = (   0.0071429   0.0000000   0.0000000), wk =   0.0047393
        k(    3) = (   0.0142857   0.0000000   0.0000000), wk =   0.0047393
        k(    4) = (   0.0214286   0.0000000   0.0000000), wk =   0.0047393
        k(    5) = (   0.0285714   0.0000000   0.0000000), wk =   0.0047393
        k(    6) = (   0.0357143   0.0000000   0.0000000), wk =   0.0047393
        k(    7) = (   0.0428571   0.0000000   0.0000000), wk =   0.0047393
        k(    8) = (   0.0500000  -0.0000000   0.0000000), wk =   0.0047393
        k(    9) = (   0.0571429   0.0000000   0.0000000), wk =   0.0047393
        k(   10) = (   0.0642857   0.0000000   0.0000000), wk =   0.0047393
        k(   11) = (   0.0714286   0.0000000   0.0000000), wk =   0.0047393
        k(   12) = (   0.0785714   0.0000000   0.0000000), wk =   0.0047393
        k(   13) = (   0.0857143   0.0000000   0.0000000), wk =   0.0047393
        k(   14) = (   0.0928571   0.0000000   0.0000000), wk =   0.0047393
        k(   15) = (   0.1000000  -0.0000000   0.0000000), wk =   0.0047393
        k(   16) = (   0.1071429   0.0000000   0.0000000), wk =   0.0047393
        k(   17) = (   0.1142857   0.0000000   0.0000000), wk =   0.0047393
        k(   18) = (   0.1214286   0.0000000   0.0000000), wk =   0.0047393
        k(   19) = (   0.1285714   0.0000000   0.0000000), wk =   0.0047393
        k(   20) = (   0.1357143   0.0000000   0.0000000), wk =   0.0047393
        k(   21) = (   0.1428571   0.0000000   0.0000000), wk =   0.0047393
        k(   22) = (   0.1500000   0.0000000   0.0000000), wk =   0.0047393
        k(   23) = (   0.1571429   0.0000000   0.0000000), wk =   0.0047393
        k(   24) = (   0.1642857   0.0000000   0.0000000), wk =   0.0047393
        k(   25) = (   0.1714286   0.0000000   0.0000000), wk =   0.0047393
        k(   26) = (   0.1785714   0.0000000   0.0000000), wk =   0.0047393
        k(   27) = (   0.1857143   0.0000000   0.0000000), wk =   0.0047393
        k(   28) = (   0.1928571  -0.0000000   0.0000000), wk =   0.0047393
        k(   29) = (   0.2000000  -0.0000000   0.0000000), wk =   0.0047393
        k(   30) = (   0.2071429  -0.0000000   0.0000000), wk =   0.0047393
        k(   31) = (   0.2142857   0.0000000   0.0000000), wk =   0.0047393
        k(   32) = (   0.2214286   0.0000000   0.0000000), wk =   0.0047393
        k(   33) = (   0.2285714   0.0000000   0.0000000), wk =   0.0047393
        k(   34) = (   0.2357143   0.0000000   0.0000000), wk =   0.0047393
        k(   35) = (   0.2428571   0.0000000   0.0000000), wk =   0.0047393
        k(   36) = (   0.2500000   0.0000000   0.0000000), wk =   0.0047393
        k(   37) = (   0.2571429   0.0000000   0.0000000), wk =   0.0047393
        k(   38) = (   0.2642857   0.0000000   0.0000000), wk =   0.0047393
        k(   39) = (   0.2714286   0.0000000   0.0000000), wk =   0.0047393
        k(   40) = (   0.2785714   0.0000000   0.0000000), wk =   0.0047393
        k(   41) = (   0.2857143   0.0000000   0.0000000), wk =   0.0047393
        k(   42) = (   0.2928571   0.0000000   0.0000000), wk =   0.0047393
        k(   43) = (   0.3000000   0.0000000   0.0000000), wk =   0.0047393
        k(   44) = (   0.3071429   0.0000000   0.0000000), wk =   0.0047393
        k(   45) = (   0.3142857   0.0000000   0.0000000), wk =   0.0047393
        k(   46) = (   0.3214286   0.0000000   0.0000000), wk =   0.0047393
        k(   47) = (   0.3285714   0.0000000   0.0000000), wk =   0.0047393
        k(   48) = (   0.3357143   0.0000000   0.0000000), wk =   0.0047393
        k(   49) = (   0.3428571   0.0000000   0.0000000), wk =   0.0047393
        k(   50) = (   0.3500000   0.0000000   0.0000000), wk =   0.0047393
        k(   51) = (   0.3571429   0.0000000   0.0000000), wk =   0.0047393
        k(   52) = (   0.3642857   0.0000000   0.0000000), wk =   0.0047393
        k(   53) = (   0.3714286   0.0000000   0.0000000), wk =   0.0047393
        k(   54) = (   0.3785714   0.0000000   0.0000000), wk =   0.0047393
        k(   55) = (   0.3857143  -0.0000000   0.0000000), wk =   0.0047393
        k(   56) = (   0.3928571   0.0000000   0.0000000), wk =   0.0047393
        k(   57) = (   0.4000000  -0.0000000   0.0000000), wk =   0.0047393
        k(   58) = (   0.4071429   0.0000000   0.0000000), wk =   0.0047393
        k(   59) = (   0.4142857  -0.0000000   0.0000000), wk =   0.0047393
        k(   60) = (   0.4214286   0.0000000   0.0000000), wk =   0.0047393
        k(   61) = (   0.4285714   0.0000000   0.0000000), wk =   0.0047393
        k(   62) = (   0.4357143   0.0000000   0.0000000), wk =   0.0047393
        k(   63) = (   0.4428571   0.0000000   0.0000000), wk =   0.0047393
        k(   64) = (   0.4500000   0.0000000   0.0000000), wk =   0.0047393
        k(   65) = (   0.4571429   0.0000000   0.0000000), wk =   0.0047393
        k(   66) = (   0.4642857   0.0000000   0.0000000), wk =   0.0047393
        k(   67) = (   0.4714286   0.0000000   0.0000000), wk =   0.0047393
        k(   68) = (   0.4785714   0.0000000   0.0000000), wk =   0.0047393
        k(   69) = (   0.4857143   0.0000000   0.0000000), wk =   0.0047393
        k(   70) = (   0.4928571   0.0000000   0.0000000), wk =   0.0047393
        k(   71) = (   0.5000000   0.0000000   0.0000000), wk =   0.0047393
        k(   72) = (   0.4976190   0.0047619   0.0000000), wk =   0.0047393
        k(   73) = (   0.4952381   0.0095238   0.0000000), wk =   0.0047393
        k(   74) = (   0.4928571   0.0142857   0.0000000), wk =   0.0047393
        k(   75) = (   0.4904762   0.0190476   0.0000000), wk =   0.0047393
        k(   76) = (   0.4880952   0.0238095   0.0000000), wk =   0.0047393
        k(   77) = (   0.4857143   0.0285714   0.0000000), wk =   0.0047393
        k(   78) = (   0.4833333   0.0333333   0.0000000), wk =   0.0047393
        k(   79) = (   0.4809524   0.0380952   0.0000000), wk =   0.0047393
        k(   80) = (   0.4785714   0.0428571   0.0000000), wk =   0.0047393
        k(   81) = (   0.4761905   0.0476190   0.0000000), wk =   0.0047393
        k(   82) = (   0.4738095   0.0523810   0.0000000), wk =   0.0047393
        k(   83) = (   0.4714286   0.0571429   0.0000000), wk =   0.0047393
        k(   84) = (   0.4690476   0.0619048   0.0000000), wk =   0.0047393
        k(   85) = (   0.4666667   0.0666667   0.0000000), wk =   0.0047393
        k(   86) = (   0.4642857   0.0714286   0.0000000), wk =   0.0047393
        k(   87) = (   0.4619048   0.0761905   0.0000000), wk =   0.0047393
        k(   88) = (   0.4595238   0.0809524   0.0000000), wk =   0.0047393
        k(   89) = (   0.4571429   0.0857143   0.0000000), wk =   0.0047393
        k(   90) = (   0.4547619   0.0904762   0.0000000), wk =   0.0047393
        k(   91) = (   0.4523810   0.0952381   0.0000000), wk =   0.0047393
        k(   92) = (   0.4500000   0.1000000   0.0000000), wk =   0.0047393
        k(   93) = (   0.4476190   0.1047619   0.0000000), wk =   0.0047393
        k(   94) = (   0.4452381   0.1095238   0.0000000), wk =   0.0047393
        k(   95) = (   0.4428571   0.1142857   0.0000000), wk =   0.0047393
        k(   96) = (   0.4404762   0.1190476   0.0000000), wk =   0.0047393
        k(   97) = (   0.4380952   0.1238095   0.0000000), wk =   0.0047393
        k(   98) = (   0.4357143   0.1285714   0.0000000), wk =   0.0047393
        k(   99) = (   0.4333333   0.1333333   0.0000000), wk =   0.0047393
        k(  100) = (   0.4309524   0.1380952   0.0000000), wk =   0.0047393
        k(  101) = (   0.4285714   0.1428571   0.0000000), wk =   0.0047393
        k(  102) = (   0.4261905   0.1476190   0.0000000), wk =   0.0047393
        k(  103) = (   0.4238095   0.1523810   0.0000000), wk =   0.0047393
        k(  104) = (   0.4214286   0.1571429   0.0000000), wk =   0.0047393
        k(  105) = (   0.4190476   0.1619048   0.0000000), wk =   0.0047393
        k(  106) = (   0.4166667   0.1666667   0.0000000), wk =   0.0047393
        k(  107) = (   0.4142857   0.1714286   0.0000000), wk =   0.0047393
        k(  108) = (   0.4119048   0.1761905   0.0000000), wk =   0.0047393
        k(  109) = (   0.4095238   0.1809524   0.0000000), wk =   0.0047393
        k(  110) = (   0.4071429   0.1857143   0.0000000), wk =   0.0047393
        k(  111) = (   0.4047619   0.1904762   0.0000000), wk =   0.0047393
        k(  112) = (   0.4023810   0.1952381   0.0000000), wk =   0.0047393
        k(  113) = (   0.4000000   0.2000000   0.0000000), wk =   0.0047393
        k(  114) = (   0.3976190   0.2047619   0.0000000), wk =   0.0047393
        k(  115) = (   0.3952381   0.2095238   0.0000000), wk =   0.0047393
        k(  116) = (   0.3928571   0.2142857   0.0000000), wk =   0.0047393
        k(  117) = (   0.3904762   0.2190476   0.0000000), wk =   0.0047393
        k(  118) = (   0.3880952   0.2238095   0.0000000), wk =   0.0047393
        k(  119) = (   0.3857143   0.2285714   0.0000000), wk =   0.0047393
        k(  120) = (   0.3833333   0.2333333   0.0000000), wk =   0.0047393
        k(  121) = (   0.3809524   0.2380952   0.0000000), wk =   0.0047393
        k(  122) = (   0.3785714   0.2428571   0.0000000), wk =   0.0047393
        k(  123) = (   0.3761905   0.2476190   0.0000000), wk =   0.0047393
        k(  124) = (   0.3738095   0.2523810   0.0000000), wk =   0.0047393
        k(  125) = (   0.3714286   0.2571429   0.0000000), wk =   0.0047393
        k(  126) = (   0.3690476   0.2619048   0.0000000), wk =   0.0047393
        k(  127) = (   0.3666667   0.2666667   0.0000000), wk =   0.0047393
        k(  128) = (   0.3642857   0.2714286   0.0000000), wk =   0.0047393
        k(  129) = (   0.3619048   0.2761905   0.0000000), wk =   0.0047393
        k(  130) = (   0.3595238   0.2809524   0.0000000), wk =   0.0047393
        k(  131) = (   0.3571429   0.2857143   0.0000000), wk =   0.0047393
        k(  132) = (   0.3547619   0.2904762   0.0000000), wk =   0.0047393
        k(  133) = (   0.3523810   0.2952381   0.0000000), wk =   0.0047393
        k(  134) = (   0.3500000   0.3000000   0.0000000), wk =   0.0047393
        k(  135) = (   0.3476190   0.3047619   0.0000000), wk =   0.0047393
        k(  136) = (   0.3452381   0.3095238   0.0000000), wk =   0.0047393
        k(  137) = (   0.3428571   0.3142857   0.0000000), wk =   0.0047393
        k(  138) = (   0.3404762   0.3190476   0.0000000), wk =   0.0047393
        k(  139) = (   0.3380952   0.3238095   0.0000000), wk =   0.0047393
        k(  140) = (   0.3357143   0.3285714   0.0000000), wk =   0.0047393
        k(  141) = (   0.3333333   0.3333333   0.0000000), wk =   0.0047393
        k(  142) = (   0.3285714   0.3285714   0.0000000), wk =   0.0047393
        k(  143) = (   0.3238095   0.3238095   0.0000000), wk =   0.0047393
        k(  144) = (   0.3190476   0.3190476   0.0000000), wk =   0.0047393
        k(  145) = (   0.3142857   0.3142857   0.0000000), wk =   0.0047393
        k(  146) = (   0.3095238   0.3095238   0.0000000), wk =   0.0047393
        k(  147) = (   0.3047619   0.3047619   0.0000000), wk =   0.0047393
        k(  148) = (   0.3000000   0.3000000   0.0000000), wk =   0.0047393
        k(  149) = (   0.2952381   0.2952381   0.0000000), wk =   0.0047393
        k(  150) = (   0.2904762   0.2904762   0.0000000), wk =   0.0047393
        k(  151) = (   0.2857143   0.2857143   0.0000000), wk =   0.0047393
        k(  152) = (   0.2809524   0.2809524   0.0000000), wk =   0.0047393
        k(  153) = (   0.2761905   0.2761905   0.0000000), wk =   0.0047393
        k(  154) = (   0.2714286   0.2714286   0.0000000), wk =   0.0047393
        k(  155) = (   0.2666667   0.2666667   0.0000000), wk =   0.0047393
        k(  156) = (   0.2619048   0.2619048   0.0000000), wk =   0.0047393
        k(  157) = (   0.2571429   0.2571429   0.0000000), wk =   0.0047393
        k(  158) = (   0.2523810   0.2523810   0.0000000), wk =   0.0047393
        k(  159) = (   0.2476190   0.2476190   0.0000000), wk =   0.0047393
        k(  160) = (   0.2428571   0.2428571   0.0000000), wk =   0.0047393
        k(  161) = (   0.2380952   0.2380952   0.0000000), wk =   0.0047393
        k(  162) = (   0.2333333   0.2333333   0.0000000), wk =   0.0047393
        k(  163) = (   0.2285714   0.2285714   0.0000000), wk =   0.0047393
        k(  164) = (   0.2238095   0.2238095   0.0000000), wk =   0.0047393
        k(  165) = (   0.2190476   0.2190476   0.0000000), wk =   0.0047393
        k(  166) = (   0.2142857   0.2142857   0.0000000), wk =   0.0047393
        k(  167) = (   0.2095238   0.2095238   0.0000000), wk =   0.0047393
        k(  168) = (   0.2047619   0.2047619   0.0000000), wk =   0.0047393
        k(  169) = (   0.2000000   0.2000000   0.0000000), wk =   0.0047393
        k(  170) = (   0.1952381   0.1952381   0.0000000), wk =   0.0047393
        k(  171) = (   0.1904762   0.1904762   0.0000000), wk =   0.0047393
        k(  172) = (   0.1857143   0.1857143   0.0000000), wk =   0.0047393
        k(  173) = (   0.1809524   0.1809524   0.0000000), wk =   0.0047393
        k(  174) = (   0.1761905   0.1761905   0.0000000), wk =   0.0047393
        k(  175) = (   0.1714286   0.1714286   0.0000000), wk =   0.0047393
        k(  176) = (   0.1666667   0.1666667   0.0000000), wk =   0.0047393
        k(  177) = (   0.1619048   0.1619048   0.0000000), wk =   0.0047393
        k(  178) = (   0.1571429   0.1571429   0.0000000), wk =   0.0047393
        k(  179) = (   0.1523810   0.1523810   0.0000000), wk =   0.0047393
        k(  180) = (   0.1476190   0.1476190   0.0000000), wk =   0.0047393
        k(  181) = (   0.1428571   0.1428571   0.0000000), wk =   0.0047393
        k(  182) = (   0.1380952   0.1380952   0.0000000), wk =   0.0047393
        k(  183) = (   0.1333333   0.1333333   0.0000000), wk =   0.0047393
        k(  184) = (   0.1285714   0.1285714   0.0000000), wk =   0.0047393
        k(  185) = (   0.1238095   0.1238095   0.0000000), wk =   0.0047393
        k(  186) = (   0.1190476   0.1190476   0.0000000), wk =   0.0047393
        k(  187) = (   0.1142857   0.1142857   0.0000000), wk =   0.0047393
        k(  188) = (   0.1095238   0.1095238   0.0000000), wk =   0.0047393
        k(  189) = (   0.1047619   0.1047619   0.0000000), wk =   0.0047393
        k(  190) = (   0.1000000   0.1000000   0.0000000), wk =   0.0047393
        k(  191) = (   0.0952381   0.0952381   0.0000000), wk =   0.0047393
        k(  192) = (   0.0904762   0.0904762   0.0000000), wk =   0.0047393
        k(  193) = (   0.0857143   0.0857143   0.0000000), wk =   0.0047393
        k(  194) = (   0.0809524   0.0809524   0.0000000), wk =   0.0047393
        k(  195) = (   0.0761905   0.0761905   0.0000000), wk =   0.0047393
        k(  196) = (   0.0714286   0.0714286   0.0000000), wk =   0.0047393
        k(  197) = (   0.0666667   0.0666667   0.0000000), wk =   0.0047393
        k(  198) = (   0.0619048   0.0619048   0.0000000), wk =   0.0047393
        k(  199) = (   0.0571429   0.0571429   0.0000000), wk =   0.0047393
        k(  200) = (   0.0523810   0.0523810   0.0000000), wk =   0.0047393
        k(  201) = (   0.0476190   0.0476190   0.0000000), wk =   0.0047393
        k(  202) = (   0.0428571   0.0428571   0.0000000), wk =   0.0047393
        k(  203) = (   0.0380952   0.0380952   0.0000000), wk =   0.0047393
        k(  204) = (   0.0333333   0.0333333   0.0000000), wk =   0.0047393
        k(  205) = (   0.0285714   0.0285714   0.0000000), wk =   0.0047393
        k(  206) = (   0.0238095   0.0238095   0.0000000), wk =   0.0047393
        k(  207) = (   0.0190476   0.0190476   0.0000000), wk =   0.0047393
        k(  208) = (   0.0142857   0.0142857   0.0000000), wk =   0.0047393
        k(  209) = (   0.0095238   0.0095238   0.0000000), wk =   0.0047393
        k(  210) = (   0.0047619   0.0047619   0.0000000), wk =   0.0047393
        k(  211) = (   0.0000000   0.0000000   0.0000000), wk =   0.0047393

     Dense  grid:   454177 G-vectors     FFT dimensions: (  60,  60, 300)

     Smooth grid:   115133 G-vectors     FFT dimensions: (  40,  40, 192)

     Dynamical RAM for                 wfc:       1.82 MB

     Dynamical RAM for     wfc (w. buffer):       1.82 MB

     Dynamical RAM for           str. fact:       0.58 MB

     Dynamical RAM for           local pot:       0.00 MB

     Dynamical RAM for          nlocal pot:       1.55 MB

     Dynamical RAM for                qrad:       9.40 MB

     Dynamical RAM for          rho,v,vnew:       7.75 MB

     Dynamical RAM for           G-vectors:       1.12 MB

     Dynamical RAM for          h,s,v(r/c):       1.83 MB

     Dynamical RAM for          <psi|beta>:       0.52 MB

     Dynamical RAM for                 psi:       3.65 MB

     Dynamical RAM for                hpsi:       3.65 MB

     Dynamical RAM for      wfcinit/wfcrot:       2.97 MB

     Estimated static dynamical RAM per process >      25.95 MB

     Estimated max dynamical RAM per process >      35.60 MB

     Estimated total dynamical RAM >     854.29 MB

     The potential is recalculated from file :
     tmp/Sb2Te3-uatsx-c2-soc-0.0.save/charge-density

     Starting wfcs are random

     Band Structure Calculation
     Davidson diagonalization with overlap

     Computing kpt #:     1  of   211
     total cpu time spent up to now is        6.2 secs

     Computing kpt #:     2  of   211
     total cpu time spent up to now is       10.7 secs

     Computing kpt #:     3  of   211
     total cpu time spent up to now is       15.1 secs

     Computing kpt #:     4  of   211
     total cpu time spent up to now is       19.5 secs

     Computing kpt #:     5  of   211
     total cpu time spent up to now is       23.9 secs

     Computing kpt #:     6  of   211
     total cpu time spent up to now is       28.1 secs

     Computing kpt #:     7  of   211
     total cpu time spent up to now is       32.2 secs

     Computing kpt #:     8  of   211
     total cpu time spent up to now is       36.3 secs

     Computing kpt #:     9  of   211
     total cpu time spent up to now is       40.4 secs

     Computing kpt #:    10  of   211
     total cpu time spent up to now is       44.4 secs

     Computing kpt #:    11  of   211
     total cpu time spent up to now is       48.3 secs

     Computing kpt #:    12  of   211
     total cpu time spent up to now is       52.3 secs

     Computing kpt #:    13  of   211
     total cpu time spent up to now is       56.3 secs

     Computing kpt #:    14  of   211
     total cpu time spent up to now is       60.3 secs

     Computing kpt #:    15  of   211
     total cpu time spent up to now is       64.3 secs

     Computing kpt #:    16  of   211
     total cpu time spent up to now is       68.3 secs

     Computing kpt #:    17  of   211
     total cpu time spent up to now is       72.2 secs

     Computing kpt #:    18  of   211
     total cpu time spent up to now is       76.0 secs

     Computing kpt #:    19  of   211
     total cpu time spent up to now is       79.8 secs

     Computing kpt #:    20  of   211
     total cpu time spent up to now is       83.7 secs

     Computing kpt #:    21  of   211
     total cpu time spent up to now is       87.6 secs

     Computing kpt #:    22  of   211
     total cpu time spent up to now is       91.5 secs

     Computing kpt #:    23  of   211
     total cpu time spent up to now is       95.3 secs

     Computing kpt #:    24  of   211
     total cpu time spent up to now is       99.1 secs

     Computing kpt #:    25  of   211
     total cpu time spent up to now is      102.9 secs

     Computing kpt #:    26  of   211
     total cpu time spent up to now is      106.7 secs

     Computing kpt #:    27  of   211
     total cpu time spent up to now is      110.5 secs

     Computing kpt #:    28  of   211
     total cpu time spent up to now is      114.4 secs

     Computing kpt #:    29  of   211
     total cpu time spent up to now is      118.3 secs

     Computing kpt #:    30  of   211
     total cpu time spent up to now is      122.1 secs

     Computing kpt #:    31  of   211
     total cpu time spent up to now is      126.0 secs

     Computing kpt #:    32  of   211
     total cpu time spent up to now is      129.9 secs

     Computing kpt #:    33  of   211
     total cpu time spent up to now is      133.9 secs

     Computing kpt #:    34  of   211
     total cpu time spent up to now is      137.9 secs

     Computing kpt #:    35  of   211
     total cpu time spent up to now is      142.0 secs

     Computing kpt #:    36  of   211
     total cpu time spent up to now is      146.1 secs

     Computing kpt #:    37  of   211
     total cpu time spent up to now is      150.4 secs

     Computing kpt #:    38  of   211
     total cpu time spent up to now is      154.7 secs

     Computing kpt #:    39  of   211
     total cpu time spent up to now is      158.7 secs

     Computing kpt #:    40  of   211
     total cpu time spent up to now is      162.7 secs

     Computing kpt #:    41  of   211
     total cpu time spent up to now is      167.1 secs

     Computing kpt #:    42  of   211
     total cpu time spent up to now is      171.1 secs

     Computing kpt #:    43  of   211
     total cpu time spent up to now is      175.1 secs

     Computing kpt #:    44  of   211
     total cpu time spent up to now is      179.0 secs

     Computing kpt #:    45  of   211
     total cpu time spent up to now is      183.0 secs

     Computing kpt #:    46  of   211
     total cpu time spent up to now is      187.5 secs

     Computing kpt #:    47  of   211
     total cpu time spent up to now is      191.4 secs

     Computing kpt #:    48  of   211
     total cpu time spent up to now is      195.4 secs

     Computing kpt #:    49  of   211
     total cpu time spent up to now is      199.3 secs

     Computing kpt #:    50  of   211
     total cpu time spent up to now is      203.2 secs

     Computing kpt #:    51  of   211
     total cpu time spent up to now is      207.1 secs

     Computing kpt #:    52  of   211
     total cpu time spent up to now is      211.0 secs

     Computing kpt #:    53  of   211
     total cpu time spent up to now is      215.0 secs

     Computing kpt #:    54  of   211
     total cpu time spent up to now is      219.0 secs

     Computing kpt #:    55  of   211
     total cpu time spent up to now is      222.9 secs

     Computing kpt #:    56  of   211
     total cpu time spent up to now is      226.8 secs

     Computing kpt #:    57  of   211
     total cpu time spent up to now is      230.8 secs

     Computing kpt #:    58  of   211
     total cpu time spent up to now is      234.7 secs

     Computing kpt #:    59  of   211
     total cpu time spent up to now is      238.7 secs

     Computing kpt #:    60  of   211
     total cpu time spent up to now is      242.8 secs

     Computing kpt #:    61  of   211
     total cpu time spent up to now is      246.7 secs

     Computing kpt #:    62  of   211
     total cpu time spent up to now is      250.7 secs

     Computing kpt #:    63  of   211
     total cpu time spent up to now is      254.6 secs

     Computing kpt #:    64  of   211
     total cpu time spent up to now is      258.5 secs

     Computing kpt #:    65  of   211
     total cpu time spent up to now is      262.4 secs

     Computing kpt #:    66  of   211
     total cpu time spent up to now is      266.4 secs

     Computing kpt #:    67  of   211
     total cpu time spent up to now is      270.4 secs

     Computing kpt #:    68  of   211
     total cpu time spent up to now is      274.3 secs

     Computing kpt #:    69  of   211
     total cpu time spent up to now is      278.6 secs

     Computing kpt #:    70  of   211
     total cpu time spent up to now is      282.6 secs

     Computing kpt #:    71  of   211
     total cpu time spent up to now is      286.6 secs

     Computing kpt #:    72  of   211
     total cpu time spent up to now is      290.6 secs

     Computing kpt #:    73  of   211
     total cpu time spent up to now is      294.6 secs

     Computing kpt #:    74  of   211
     total cpu time spent up to now is      298.5 secs

     Computing kpt #:    75  of   211
     total cpu time spent up to now is      302.4 secs

     Computing kpt #:    76  of   211
     total cpu time spent up to now is      306.3 secs

     Computing kpt #:    77  of   211
     total cpu time spent up to now is      310.3 secs

     Computing kpt #:    78  of   211
     total cpu time spent up to now is      314.4 secs

     Computing kpt #:    79  of   211
     total cpu time spent up to now is      318.4 secs

     Computing kpt #:    80  of   211
     total cpu time spent up to now is      322.4 secs

     Computing kpt #:    81  of   211
     total cpu time spent up to now is      326.6 secs

     Computing kpt #:    82  of   211
     total cpu time spent up to now is      330.6 secs

     Computing kpt #:    83  of   211
     total cpu time spent up to now is      334.9 secs

     Computing kpt #:    84  of   211
     total cpu time spent up to now is      338.9 secs

     Computing kpt #:    85  of   211
     total cpu time spent up to now is      343.0 secs

     Computing kpt #:    86  of   211
     total cpu time spent up to now is      347.0 secs

     Computing kpt #:    87  of   211
     total cpu time spent up to now is      351.0 secs

     Computing kpt #:    88  of   211
     total cpu time spent up to now is      355.0 secs

     Computing kpt #:    89  of   211
     total cpu time spent up to now is      359.0 secs

     Computing kpt #:    90  of   211
     total cpu time spent up to now is      363.4 secs

     Computing kpt #:    91  of   211
     total cpu time spent up to now is      367.8 secs

     Computing kpt #:    92  of   211
     total cpu time spent up to now is      372.3 secs

     Computing kpt #:    93  of   211
     total cpu time spent up to now is      376.4 secs

     Computing kpt #:    94  of   211
     total cpu time spent up to now is      380.4 secs

     Computing kpt #:    95  of   211
     total cpu time spent up to now is      385.0 secs

     Computing kpt #:    96  of   211
     total cpu time spent up to now is      389.0 secs

     Computing kpt #:    97  of   211
     total cpu time spent up to now is      393.0 secs

     Computing kpt #:    98  of   211
     total cpu time spent up to now is      397.1 secs

     Computing kpt #:    99  of   211
     total cpu time spent up to now is      401.1 secs

     Computing kpt #:   100  of   211
     total cpu time spent up to now is      405.6 secs

     Computing kpt #:   101  of   211
     total cpu time spent up to now is      409.7 secs

     Computing kpt #:   102  of   211
     total cpu time spent up to now is      414.6 secs

     Computing kpt #:   103  of   211
     total cpu time spent up to now is      418.7 secs

     Computing kpt #:   104  of   211
     total cpu time spent up to now is      423.2 secs

     Computing kpt #:   105  of   211
     total cpu time spent up to now is      427.7 secs

     Computing kpt #:   106  of   211
     total cpu time spent up to now is      432.6 secs

     Computing kpt #:   107  of   211
     total cpu time spent up to now is      437.4 secs

     Computing kpt #:   108  of   211
     total cpu time spent up to now is      441.8 secs

     Computing kpt #:   109  of   211
     total cpu time spent up to now is      446.3 secs

     Computing kpt #:   110  of   211
     total cpu time spent up to now is      451.0 secs

     Computing kpt #:   111  of   211
     total cpu time spent up to now is      455.5 secs

     Computing kpt #:   112  of   211
     total cpu time spent up to now is      459.9 secs

     Computing kpt #:   113  of   211
     total cpu time spent up to now is      464.4 secs

     Computing kpt #:   114  of   211
     total cpu time spent up to now is      469.0 secs

     Computing kpt #:   115  of   211
     total cpu time spent up to now is      473.5 secs

     Computing kpt #:   116  of   211
     total cpu time spent up to now is      478.0 secs

     Computing kpt #:   117  of   211
     total cpu time spent up to now is      482.4 secs

     Computing kpt #:   118  of   211
     total cpu time spent up to now is      486.5 secs

     Computing kpt #:   119  of   211
     total cpu time spent up to now is      490.9 secs

     Computing kpt #:   120  of   211
     total cpu time spent up to now is      495.2 secs

     Computing kpt #:   121  of   211
     total cpu time spent up to now is      499.3 secs

     Computing kpt #:   122  of   211
     total cpu time spent up to now is      503.5 secs

     Computing kpt #:   123  of   211
     total cpu time spent up to now is      507.5 secs

     Computing kpt #:   124  of   211
     total cpu time spent up to now is      511.6 secs

     Computing kpt #:   125  of   211
     total cpu time spent up to now is      515.6 secs

     Computing kpt #:   126  of   211
     total cpu time spent up to now is      519.7 secs

     Computing kpt #:   127  of   211
     total cpu time spent up to now is      524.0 secs

     Computing kpt #:   128  of   211
     total cpu time spent up to now is      528.0 secs

     Computing kpt #:   129  of   211
     total cpu time spent up to now is      532.0 secs

     Computing kpt #:   130  of   211
     total cpu time spent up to now is      535.9 secs

     Computing kpt #:   131  of   211
     total cpu time spent up to now is      539.9 secs

     Computing kpt #:   132  of   211
     total cpu time spent up to now is      543.9 secs

     Computing kpt #:   133  of   211
     total cpu time spent up to now is      547.8 secs

     Computing kpt #:   134  of   211
     total cpu time spent up to now is      551.9 secs

     Computing kpt #:   135  of   211
     total cpu time spent up to now is      555.9 secs

     Computing kpt #:   136  of   211
     total cpu time spent up to now is      560.0 secs

     Computing kpt #:   137  of   211
     total cpu time spent up to now is      564.0 secs

     Computing kpt #:   138  of   211
     total cpu time spent up to now is      568.0 secs

     Computing kpt #:   139  of   211
     total cpu time spent up to now is      572.2 secs

     Computing kpt #:   140  of   211
     total cpu time spent up to now is      576.2 secs

     Computing kpt #:   141  of   211
     total cpu time spent up to now is      580.2 secs

     Computing kpt #:   142  of   211
     total cpu time spent up to now is      584.3 secs

     Computing kpt #:   143  of   211
     total cpu time spent up to now is      588.3 secs

     Computing kpt #:   144  of   211
     total cpu time spent up to now is      592.3 secs

     Computing kpt #:   145  of   211
     total cpu time spent up to now is      596.6 secs

     Computing kpt #:   146  of   211
     total cpu time spent up to now is      600.8 secs

     Computing kpt #:   147  of   211
     total cpu time spent up to now is      604.8 secs

     Computing kpt #:   148  of   211
     total cpu time spent up to now is      608.9 secs

     Computing kpt #:   149  of   211
     total cpu time spent up to now is      612.9 secs

     Computing kpt #:   150  of   211
     total cpu time spent up to now is      617.0 secs

     Computing kpt #:   151  of   211
     total cpu time spent up to now is      621.1 secs

     Computing kpt #:   152  of   211
     total cpu time spent up to now is      625.3 secs

     Computing kpt #:   153  of   211
     total cpu time spent up to now is      629.3 secs

     Computing kpt #:   154  of   211
     total cpu time spent up to now is      633.2 secs

     Computing kpt #:   155  of   211
     total cpu time spent up to now is      637.3 secs

     Computing kpt #:   156  of   211
     total cpu time spent up to now is      641.3 secs

     Computing kpt #:   157  of   211
     total cpu time spent up to now is      645.4 secs

     Computing kpt #:   158  of   211
     total cpu time spent up to now is      649.8 secs

     Computing kpt #:   159  of   211
     total cpu time spent up to now is      654.2 secs

     Computing kpt #:   160  of   211
     total cpu time spent up to now is      658.4 secs

     Computing kpt #:   161  of   211
     total cpu time spent up to now is      662.3 secs

     Computing kpt #:   162  of   211
     total cpu time spent up to now is      666.2 secs

     Computing kpt #:   163  of   211
     total cpu time spent up to now is      670.1 secs

     Computing kpt #:   164  of   211
     total cpu time spent up to now is      674.0 secs

     Computing kpt #:   165  of   211
     total cpu time spent up to now is      677.9 secs

     Computing kpt #:   166  of   211
     total cpu time spent up to now is      681.9 secs

     Computing kpt #:   167  of   211
     total cpu time spent up to now is      685.7 secs

     Computing kpt #:   168  of   211
     total cpu time spent up to now is      689.6 secs

     Computing kpt #:   169  of   211
     total cpu time spent up to now is      693.4 secs

     Computing kpt #:   170  of   211
     total cpu time spent up to now is      697.0 secs

     Computing kpt #:   171  of   211
     total cpu time spent up to now is      700.9 secs

     Computing kpt #:   172  of   211
     total cpu time spent up to now is      704.8 secs

     Computing kpt #:   173  of   211
     total cpu time spent up to now is      708.7 secs

     Computing kpt #:   174  of   211
     total cpu time spent up to now is      712.5 secs

     Computing kpt #:   175  of   211
     total cpu time spent up to now is      716.4 secs

     Computing kpt #:   176  of   211
     total cpu time spent up to now is      720.3 secs

     Computing kpt #:   177  of   211
     total cpu time spent up to now is      724.4 secs

     Computing kpt #:   178  of   211
     total cpu time spent up to now is      728.5 secs

     Computing kpt #:   179  of   211
     total cpu time spent up to now is      732.6 secs

     Computing kpt #:   180  of   211
     total cpu time spent up to now is      737.0 secs

     Computing kpt #:   181  of   211
     total cpu time spent up to now is      742.0 secs

     Computing kpt #:   182  of   211
     total cpu time spent up to now is      746.6 secs

     Computing kpt #:   183  of   211
     total cpu time spent up to now is      751.0 secs

     Computing kpt #:   184  of   211
     total cpu time spent up to now is      754.9 secs

     Computing kpt #:   185  of   211
     total cpu time spent up to now is      758.9 secs

     Computing kpt #:   186  of   211
     total cpu time spent up to now is      762.7 secs

     Computing kpt #:   187  of   211
     total cpu time spent up to now is      766.6 secs

     Computing kpt #:   188  of   211
     total cpu time spent up to now is      770.4 secs

     Computing kpt #:   189  of   211
     total cpu time spent up to now is      774.2 secs

     Computing kpt #:   190  of   211
     total cpu time spent up to now is      778.3 secs

     Computing kpt #:   191  of   211
     total cpu time spent up to now is      782.2 secs

     Computing kpt #:   192  of   211
     total cpu time spent up to now is      785.7 secs

     Computing kpt #:   193  of   211
     total cpu time spent up to now is      789.6 secs

     Computing kpt #:   194  of   211
     total cpu time spent up to now is      793.1 secs

     Computing kpt #:   195  of   211
     total cpu time spent up to now is      797.0 secs

     Computing kpt #:   196  of   211
     total cpu time spent up to now is      800.9 secs

     Computing kpt #:   197  of   211
     total cpu time spent up to now is      804.8 secs

     Computing kpt #:   198  of   211
     total cpu time spent up to now is      808.7 secs

     Computing kpt #:   199  of   211
     total cpu time spent up to now is      812.5 secs

     Computing kpt #:   200  of   211
     total cpu time spent up to now is      816.4 secs

     Computing kpt #:   201  of   211
     total cpu time spent up to now is      820.3 secs

     Computing kpt #:   202  of   211
     total cpu time spent up to now is      824.2 secs

     Computing kpt #:   203  of   211
     total cpu time spent up to now is      828.1 secs

     Computing kpt #:   204  of   211
     total cpu time spent up to now is      832.2 secs

     Computing kpt #:   205  of   211
     total cpu time spent up to now is      836.2 secs

     Computing kpt #:   206  of   211
     total cpu time spent up to now is      840.3 secs

     Computing kpt #:   207  of   211
     total cpu time spent up to now is      844.5 secs

     Computing kpt #:   208  of   211
     total cpu time spent up to now is      848.9 secs

     Computing kpt #:   209  of   211
     total cpu time spent up to now is      853.3 secs

     Computing kpt #:   210  of   211
     total cpu time spent up to now is      857.9 secs

     Computing kpt #:   211  of   211
     total cpu time spent up to now is      862.1 secs

     ethr =  1.28E-10,  avg # of iterations = 52.8

     total cpu time spent up to now is      862.1 secs

     End of band structure calculation

          k = 0.0000 0.0000 0.0000 ( 14301 PWs)   bands (ev):

   -35.3689 -35.3689 -35.3639 -35.3639 -35.3440 -35.3440 -35.3390 -35.3390
   -35.2621 -35.2621 -35.2259 -35.2259 -33.9090 -33.9090 -33.9039 -33.9039
   -33.8879 -33.8879 -33.8828 -33.8828 -33.8766 -33.8766 -33.8716 -33.8716
   -33.7996 -33.7996 -33.7842 -33.7842 -33.7526 -33.7526 -27.9846 -27.9846
   -27.9803 -27.9803 -27.9756 -27.9756 -27.9715 -27.9715 -26.7456 -26.7456
   -26.7414 -26.7414 -26.7355 -26.7355 -26.7343 -26.7343 -26.7313 -26.7313
   -26.7301 -26.7301 -10.5754 -10.5754 -10.0382 -10.0382  -8.9430  -8.9430
    -6.1612  -6.1612  -4.7030  -4.7030  -0.3930  -0.3930   0.1609   0.1609
     0.3878   0.3878   0.6660   0.6660   0.7649   0.7649   0.8778   0.8778
     1.0807   1.0807   1.4769   1.4769   1.6319   1.6319   2.3523   2.3523
     2.9526   2.9526   3.2621   3.2621   3.5086   3.5086   4.2833   4.2833
     4.3620   4.3620   6.3219   6.3219   6.5228   6.5228   7.0760   7.0760
     7.7522   7.7522   7.8690   7.8690

          k = 0.0071 0.0041 0.0000 ( 14317 PWs)   bands (ev):

   -35.3689 -35.3689 -35.3639 -35.3639 -35.3440 -35.3440 -35.3390 -35.3390
   -35.2621 -35.2621 -35.2259 -35.2259 -33.9090 -33.9090 -33.9039 -33.9039
   -33.8879 -33.8879 -33.8828 -33.8828 -33.8766 -33.8766 -33.8716 -33.8716
   -33.7996 -33.7996 -33.7842 -33.7842 -33.7526 -33.7526 -27.9846 -27.9846
   -27.9803 -27.9803 -27.9756 -27.9756 -27.9715 -27.9715 -26.7456 -26.7456
   -26.7414 -26.7414 -26.7355 -26.7355 -26.7343 -26.7343 -26.7313 -26.7313
   -26.7301 -26.7301 -10.5749 -10.5749 -10.0379 -10.0379  -8.9428  -8.9428
    -6.1612  -6.1612  -4.7038  -4.7038  -0.3936  -0.3936   0.1546   0.1553
     0.3880   0.3891   0.6632   0.6643   0.7467   0.7535   0.8821   0.8901
     1.0839   1.0856   1.4722   1.4733   1.6356   1.6366   2.3574   2.3582
     2.9531   2.9539   3.2550   3.2570   3.5136   3.5156   4.2860   4.2864
     4.3612   4.3617   6.3227   6.3228   6.5230   6.5230   7.0763   7.0763
     7.7522   7.7522   7.8669   7.8670

          k = 0.0143 0.0082 0.0000 ( 14313 PWs)   bands (ev):

   -35.3689 -35.3689 -35.3639 -35.3639 -35.3440 -35.3440 -35.3390 -35.3390
   -35.2621 -35.2621 -35.2259 -35.2259 -33.9090 -33.9090 -33.9039 -33.9039
   -33.8879 -33.8879 -33.8828 -33.8828 -33.8766 -33.8766 -33.8716 -33.8716
   -33.7996 -33.7996 -33.7842 -33.7842 -33.7526 -33.7526 -27.9846 -27.9846
   -27.9803 -27.9803 -27.9756 -27.9756 -27.9715 -27.9715 -26.7456 -26.7456
   -26.7414 -26.7414 -26.7355 -26.7355 -26.7343 -26.7343 -26.7313 -26.7313
   -26.7301 -26.7301 -10.5735 -10.5735 -10.0366 -10.0366  -8.9420  -8.9420
    -6.1613  -6.1613  -4.7060  -4.7060  -0.3954  -0.3953   0.1372   0.1386
     0.3893   0.3914   0.6554   0.6576   0.7110   0.7206   0.8961   0.9077
     1.0949   1.0980   1.4597   1.4619   1.6479   1.6498   2.3729   2.3745
     2.9554   2.9569   3.2383   3.2418   3.5289   3.5324   4.2944   4.2952
     4.3593   4.3603   6.3253   6.3253   6.5236   6.5237   7.0771   7.0771
     7.7521   7.7522   7.8583   7.8586

          k = 0.0214 0.0124 0.0000 ( 14320 PWs)   bands (ev):

   -35.3689 -35.3689 -35.3639 -35.3639 -35.3440 -35.3440 -35.3390 -35.3390
   -35.2621 -35.2621 -35.2259 -35.2259 -33.9090 -33.9090 -33.9039 -33.9039
   -33.8879 -33.8879 -33.8828 -33.8828 -33.8766 -33.8766 -33.8716 -33.8716
   -33.7996 -33.7996 -33.7842 -33.7842 -33.7526 -33.7526 -27.9846 -27.9846
   -27.9803 -27.9803 -27.9756 -27.9756 -27.9715 -27.9715 -26.7456 -26.7456
   -26.7414 -26.7414 -26.7355 -26.7355 -26.7343 -26.7343 -26.7313 -26.7313
   -26.7301 -26.7301 -10.5712 -10.5712 -10.0346 -10.0346  -8.9407  -8.9407
    -6.1614  -6.1614  -4.7096  -4.7096  -0.3984  -0.3982   0.1105   0.1123
     0.3898   0.3927   0.6392   0.6432   0.6720   0.6815   0.9085   0.9215
     1.1122   1.1164   1.4414   1.4446   1.6683   1.6709   2.3967   2.3989
     2.9596   2.9616   3.2166   3.2210   3.5505   3.5550   4.3078   4.3089
     4.3569   4.3585   6.3295   6.3295   6.5247   6.5248   7.0783   7.0783
     7.7517   7.7519   7.8405   7.8409

          k = 0.0286 0.0165 0.0000 ( 14317 PWs)   bands (ev):

   -35.3689 -35.3689 -35.3639 -35.3639 -35.3440 -35.3440 -35.3390 -35.3390
   -35.2621 -35.2621 -35.2259 -35.2259 -33.9090 -33.9090 -33.9039 -33.9039
   -33.8879 -33.8879 -33.8828 -33.8828 -33.8766 -33.8766 -33.8716 -33.8716
   -33.7996 -33.7996 -33.7842 -33.7842 -33.7526 -33.7526 -27.9846 -27.9846
   -27.9803 -27.9803 -27.9756 -27.9756 -27.9715 -27.9715 -26.7456 -26.7456
   -26.7414 -26.7414 -26.7355 -26.7355 -26.7343 -26.7343 -26.7313 -26.7313
   -26.7301 -26.7301 -10.5681 -10.5681 -10.0316 -10.0316  -8.9388  -8.9388
    -6.1616  -6.1616  -4.7146  -4.7146  -0.4026  -0.4024   0.0762   0.0783
     0.3878   0.3913   0.6026   0.6104   0.6465   0.6534   0.9156   0.9291
     1.1329   1.1380   1.4205   1.4246   1.6958   1.6989   2.4259   2.4286
     2.9655   2.9679   3.1948   3.1995   3.5751   3.5801   4.3240   4.3251
     4.3562   4.3586   6.3353   6.3354   6.5262   6.5263   7.0800   7.0800
     7.7500   7.7501   7.8159   7.8163

          k = 0.0357 0.0206 0.0000 ( 14321 PWs)   bands (ev):

   -35.3689 -35.3689 -35.3639 -35.3639 -35.3440 -35.3440 -35.3390 -35.3390
   -35.2621 -35.2621 -35.2259 -35.2259 -33.9090 -33.9090 -33.9039 -33.9039
   -33.8879 -33.8879 -33.8828 -33.8828 -33.8766 -33.8766 -33.8716 -33.8716
   -33.7996 -33.7996 -33.7842 -33.7842 -33.7526 -33.7526 -27.9846 -27.9846
   -27.9803 -27.9803 -27.9757 -27.9756 -27.9715 -27.9715 -26.7456 -26.7456
   -26.7413 -26.7413 -26.7355 -26.7355 -26.7343 -26.7342 -26.7313 -26.7313
   -26.7301 -26.7301 -10.5640 -10.5640 -10.0278 -10.0278  -8.9364  -8.9364
    -6.1618  -6.1618  -4.7212  -4.7211  -0.4083  -0.4080   0.0358   0.0381
     0.3818   0.3857   0.5533   0.5625   0.6299   0.6362   0.9169   0.9303
     1.1528   1.1588   1.4021   1.4071   1.7282   1.7316   2.4572   2.4603
     2.9736   2.9758   3.1765   3.1812   3.6003   3.6056   4.3338   4.3353
     4.3661   4.3690   6.3428   6.3428   6.5282   6.5282   7.0818   7.0819
     7.7431   7.7433   7.7907   7.7911

          k = 0.0429 0.0247 0.0000 ( 14323 PWs)   bands (ev):

   -35.3689 -35.3689 -35.3639 -35.3639 -35.3440 -35.3440 -35.3390 -35.3390
   -35.2621 -35.2621 -35.2259 -35.2259 -33.9090 -33.9090 -33.9039 -33.9039
   -33.8879 -33.8879 -33.8828 -33.8828 -33.8766 -33.8766 -33.8716 -33.8716
   -33.7996 -33.7996 -33.7842 -33.7842 -33.7526 -33.7526 -27.9846 -27.9846
   -27.9803 -27.9803 -27.9757 -27.9756 -27.9715 -27.9715 -26.7456 -26.7456
   -26.7413 -26.7413 -26.7355 -26.7355 -26.7343 -26.7342 -26.7313 -26.7313
   -26.7301 -26.7301 -10.5591 -10.5591 -10.0233 -10.0233  -8.9335  -8.9335
    -6.1621  -6.1621  -4.7291  -4.7291  -0.4154  -0.4151  -0.0096  -0.0072
     0.3706   0.3748   0.5016   0.5109   0.6142   0.6206   0.9121   0.9252
     1.1676   1.1742   1.3920   1.3976   1.7635   1.7669   2.4876   2.4909
     2.9840   2.9855   3.1652   3.1692   3.6250   3.6303   4.3326   4.3347
     4.3912   4.3940   6.3517   6.3518   6.5305   6.5306   7.0837   7.0838
     7.7228   7.7231   7.7755   7.7759

          k = 0.0500 0.0289 0.0000 ( 14313 PWs)   bands (ev):

   -35.3689 -35.3689 -35.3639 -35.3639 -35.3440 -35.3440 -35.3390 -35.3390
   -35.2621 -35.2621 -35.2259 -35.2259 -33.9090 -33.9090 -33.9039 -33.9039
   -33.8879 -33.8879 -33.8828 -33.8828 -33.8766 -33.8765 -33.8716 -33.8716
   -33.7996 -33.7996 -33.7842 -33.7842 -33.7526 -33.7526 -27.9845 -27.9845
   -27.9803 -27.9803 -27.9757 -27.9756 -27.9715 -27.9714 -26.7456 -26.7456
   -26.7413 -26.7413 -26.7355 -26.7355 -26.7343 -26.7342 -26.7313 -26.7313
   -26.7301 -26.7301 -10.5532 -10.5532 -10.0178 -10.0178  -8.9300  -8.9300
    -6.1625  -6.1625  -4.7386  -4.7385  -0.4243  -0.4238  -0.0591  -0.0566
     0.3535   0.3574   0.4508   0.4595   0.5981   0.6046   0.9008   0.9132
     1.1745   1.1813   1.3948   1.4003   1.7992   1.8026   2.5143   2.5176
     2.9970   2.9977   3.1630   3.1660   3.6486   3.6538   4.3281   4.3308
     4.4233   4.4261   6.3622   6.3623   6.5332   6.5333   7.0853   7.0854
     7.6901   7.6903   7.7709   7.7712

          k = 0.0571 0.0330 0.0000 ( 14313 PWs)   bands (ev):

   -35.3689 -35.3689 -35.3639 -35.3639 -35.3440 -35.3440 -35.3390 -35.3390
   -35.2621 -35.2621 -35.2259 -35.2259 -33.9090 -33.9089 -33.9039 -33.9039
   -33.8879 -33.8879 -33.8828 -33.8828 -33.8766 -33.8765 -33.8716 -33.8716
   -33.7996 -33.7996 -33.7842 -33.7842 -33.7526 -33.7526 -27.9845 -27.9845
   -27.9803 -27.9803 -27.9757 -27.9756 -27.9715 -27.9714 -26.7456 -26.7455
   -26.7413 -26.7413 -26.7355 -26.7355 -26.7343 -26.7342 -26.7313 -26.7313
   -26.7301 -26.7301 -10.5464 -10.5464 -10.0116 -10.0116  -8.9261  -8.9261
    -6.1630  -6.1630  -4.7495  -4.7495  -0.4352  -0.4347  -0.1118  -0.1092
     0.3286   0.3322   0.4041   0.4110   0.5811   0.5875   0.8828   0.8942
     1.1749   1.1813   1.4108   1.4158   1.8329   1.8361   2.5362   2.5393
     3.0118   3.0140   3.1709   3.1730   3.6709   3.6759   4.3233   4.3264
     4.4593   4.4621   6.3740   6.3742   6.5363   6.5364   7.0863   7.0864
     7.6531   7.6533   7.7700   7.7703

          k = 0.0643 0.0371 0.0000 ( 14320 PWs)   bands (ev):

   -35.3689 -35.3689 -35.3639 -35.3639 -35.3440 -35.3440 -35.3390 -35.3390
   -35.2621 -35.2621 -35.2259 -35.2259 -33.9089 -33.9089 -33.9039 -33.9039
   -33.8879 -33.8879 -33.8828 -33.8828 -33.8766 -33.8765 -33.8716 -33.8716
   -33.7996 -33.7996 -33.7842 -33.7842 -33.7526 -33.7526 -27.9845 -27.9845
   -27.9803 -27.9803 -27.9757 -27.9756 -27.9715 -27.9714 -26.7455 -26.7455
   -26.7413 -26.7413 -26.7355 -26.7355 -26.7343 -26.7342 -26.7313 -26.7313
   -26.7301 -26.7301 -10.5388 -10.5388 -10.0045 -10.0045  -8.9216  -8.9216
    -6.1636  -6.1635  -4.7619  -4.7618  -0.4486  -0.4479  -0.1669  -0.1641
     0.2932   0.2981   0.3643   0.3688   0.5628   0.5688   0.8581   0.8683
     1.1724   1.1782   1.4363   1.4407   1.8621   1.8649   2.5533   2.5561
     3.0297   3.0338   3.1885   3.1909   3.6921   3.6969   4.3191   4.3226
     4.4980   4.5007   6.3872   6.3873   6.5396   6.5398   7.0862   7.0863
     7.6157   7.6159   7.7704   7.7706

          k = 0.0714 0.0412 0.0000 ( 14330 PWs)   bands (ev):

   -35.3689 -35.3689 -35.3639 -35.3638 -35.3440 -35.3440 -35.3390 -35.3390
   -35.2621 -35.2621 -35.2259 -35.2259 -33.9089 -33.9089 -33.9039 -33.9039
   -33.8879 -33.8879 -33.8828 -33.8828 -33.8766 -33.8765 -33.8716 -33.8715
   -33.7996 -33.7996 -33.7842 -33.7842 -33.7526 -33.7526 -27.9845 -27.9845
   -27.9803 -27.9803 -27.9757 -27.9756 -27.9715 -27.9714 -26.7455 -26.7455
   -26.7413 -26.7413 -26.7355 -26.7355 -26.7343 -26.7342 -26.7313 -26.7313
   -26.7301 -26.7300 -10.5302 -10.5302  -9.9966  -9.9966  -8.9167  -8.9167
    -6.1643  -6.1643  -4.7758  -4.7757  -0.4652  -0.4644  -0.2231  -0.2203
     0.2484   0.2554   0.3305   0.3342   0.5425   0.5482   0.8281   0.8367
     1.1702   1.1754   1.4675   1.4715   1.8842   1.8868   2.5678   2.5702
     3.0507   3.0562   3.2149   3.2181   3.7128   3.7171   4.3164   4.3201
     4.5383   4.5410   6.4016   6.4017   6.5432   6.5434   7.0844   7.0845
     7.5799   7.5801   7.7712   7.7714

          k = 0.0786 0.0453 0.0000 ( 14332 PWs)   bands (ev):

   -35.3689 -35.3689 -35.3638 -35.3638 -35.3440 -35.3440 -35.3390 -35.3390
   -35.2621 -35.2621 -35.2259 -35.2259 -33.9089 -33.9089 -33.9039 -33.9038
   -33.8879 -33.8879 -33.8828 -33.8828 -33.8766 -33.8765 -33.8716 -33.8715
   -33.7996 -33.7996 -33.7842 -33.7842 -33.7526 -33.7526 -27.9845 -27.9845
   -27.9803 -27.9803 -27.9757 -27.9756 -27.9715 -27.9714 -26.7455 -26.7455
   -26.7413 -26.7412 -26.7355 -26.7355 -26.7343 -26.7342 -26.7314 -26.7313
   -26.7301 -26.7300 -10.5208 -10.5208  -9.9879  -9.9879  -8.9112  -8.9112
    -6.1652  -6.1651  -4.7911  -4.7910  -0.4863  -0.4853  -0.2790  -0.2760
     0.1987   0.2070   0.3000   0.3040   0.5197   0.5249   0.7945   0.8015
     1.1697   1.1742   1.5018   1.5056   1.8972   1.8997   2.5825   2.5844
     3.0743   3.0806   3.2486   3.2524   3.7335   3.7374   4.3156   4.3195
     4.5797   4.5822   6.4170   6.4172   6.5470   6.5472   7.0804   7.0805
     7.5472   7.5474   7.7723   7.7725

          k = 0.0857 0.0495 0.0000 ( 14340 PWs)   bands (ev):

   -35.3689 -35.3689 -35.3638 -35.3638 -35.3440 -35.3440 -35.3390 -35.3390
   -35.2621 -35.2621 -35.2259 -35.2259 -33.9089 -33.9089 -33.9038 -33.9038
   -33.8879 -33.8879 -33.8828 -33.8828 -33.8766 -33.8765 -33.8716 -33.8715
   -33.7996 -33.7996 -33.7842 -33.7842 -33.7526 -33.7526 -27.9845 -27.9845
   -27.9803 -27.9803 -27.9757 -27.9756 -27.9715 -27.9714 -26.7455 -26.7455
   -26.7412 -26.7412 -26.7356 -26.7355 -26.7343 -26.7342 -26.7314 -26.7314
   -26.7301 -26.7300 -10.5105 -10.5105  -9.9784  -9.9784  -8.9053  -8.9053
    -6.1662  -6.1662  -4.8080  -4.8079  -0.5136  -0.5124  -0.3323  -0.3290
     0.1470   0.1559   0.2711   0.2753   0.4939   0.4987   0.7594   0.7648
     1.1708   1.1747   1.5375   1.5411   1.8999   1.9024   2.5998   2.6012
     3.1001   3.1065   3.2867   3.2908   3.7552   3.7585   4.3175   4.3215
     4.6213   4.6236   6.4333   6.4335   6.5509   6.5511   7.0734   7.0736
     7.5189   7.5191   7.7735   7.7737

          k = 0.0929 0.0536 0.0000 ( 14350 PWs)   bands (ev):

   -35.3689 -35.3689 -35.3638 -35.3638 -35.3440 -35.3440 -35.3390 -35.3390
   -35.2621 -35.2621 -35.2259 -35.2259 -33.9089 -33.9089 -33.9038 -33.9038
   -33.8879 -33.8879 -33.8828 -33.8828 -33.8766 -33.8765 -33.8716 -33.8715
   -33.7996 -33.7996 -33.7842 -33.7842 -33.7526 -33.7526 -27.9845 -27.9845
   -27.9803 -27.9803 -27.9757 -27.9756 -27.9715 -27.9714 -26.7455 -26.7454
   -26.7412 -26.7412 -26.7356 -26.7356 -26.7343 -26.7342 -26.7314 -26.7314
   -26.7301 -26.7300 -10.4993 -10.4993  -9.9681  -9.9680  -8.8989  -8.8989
    -6.1675  -6.1675  -4.8262  -4.8261  -0.5495  -0.5481  -0.3802  -0.3768
     0.0944   0.1036   0.2428   0.2471   0.4650   0.4693   0.7245   0.7283
     1.1732   1.1765   1.5733   1.5768   1.8920   1.8947   2.6211   2.6221
     3.1280   3.1341   3.3263   3.3306   3.7790   3.7818   4.3226   4.3266
     4.6625   4.6647   6.4503   6.4505   6.5548   6.5550   7.0632   7.0634
     7.4961   7.4963   7.7750   7.7751

          k = 0.1000 0.0577 0.0000 ( 14348 PWs)   bands (ev):

   -35.3689 -35.3689 -35.3638 -35.3638 -35.3440 -35.3440 -35.3390 -35.3390
   -35.2621 -35.2621 -35.2259 -35.2259 -33.9089 -33.9089 -33.9038 -33.9038
   -33.8879 -33.8879 -33.8828 -33.8828 -33.8765 -33.8765 -33.8716 -33.8715
   -33.7996 -33.7996 -33.7842 -33.7842 -33.7526 -33.7526 -27.9845 -27.9845
   -27.9802 -27.9802 -27.9757 -27.9756 -27.9715 -27.9714 -26.7454 -26.7454
   -26.7412 -26.7412 -26.7356 -26.7356 -26.7343 -26.7342 -26.7314 -26.7314
   -26.7301 -26.7300 -10.4872 -10.4872  -9.9569  -9.9569  -8.8920  -8.8920
    -6.1690  -6.1689  -4.8459  -4.8458  -0.5953  -0.5940  -0.4208  -0.4174
     0.0413   0.0506   0.2149   0.2191   0.4328   0.4368   0.6910   0.6935
     1.1761   1.1789   1.6083   1.6118   1.8747   1.8778   2.6466   2.6473
     3.1579   3.1634   3.3643   3.3690   3.8060   3.8082   4.3313   4.3351
     4.7029   4.7049   6.4676   6.4678   6.5586   6.5588   7.0497   7.0499
     7.4793   7.4795   7.7767   7.7769

          k = 0.1071 0.0618 0.0000 ( 14346 PWs)   bands (ev):

   -35.3689 -35.3689 -35.3638 -35.3638 -35.3440 -35.3440 -35.3390 -35.3390
   -35.2621 -35.2621 -35.2259 -35.2259 -33.9089 -33.9089 -33.9038 -33.9038
   -33.8879 -33.8879 -33.8828 -33.8828 -33.8765 -33.8765 -33.8716 -33.8715
   -33.7995 -33.7995 -33.7842 -33.7842 -33.7525 -33.7525 -27.9845 -27.9845
   -27.9802 -27.9802 -27.9757 -27.9756 -27.9715 -27.9714 -26.7454 -26.7454
   -26.7412 -26.7411 -26.7356 -26.7356 -26.7343 -26.7342 -26.7314 -26.7314
   -26.7301 -26.7300 -10.4742 -10.4742  -9.9450  -9.9450  -8.8847  -8.8846
    -6.1707  -6.1706  -4.8671  -4.8670  -0.6503  -0.6491  -0.4546  -0.4513
    -0.0122  -0.0030   0.1872   0.1911   0.3978   0.4017   0.6594   0.6615
     1.1791   1.1814   1.6411   1.6446   1.8502   1.8538   2.6753   2.6761
     3.1897   3.1945   3.3987   3.4037   3.8373   3.8389   4.3442   4.3477
     4.7419   4.7437   6.4846   6.4849   6.5623   6.5627   7.0334   7.0336
     7.4688   7.4689   7.7790   7.7791

          k = 0.1143 0.0660 0.0000 ( 14348 PWs)   bands (ev):

   -35.3689 -35.3689 -35.3638 -35.3638 -35.3440 -35.3440 -35.3390 -35.3390
   -35.2621 -35.2621 -35.2259 -35.2259 -33.9089 -33.9089 -33.9038 -33.9038
   -33.8879 -33.8879 -33.8828 -33.8828 -33.8765 -33.8765 -33.8715 -33.8715
   -33.7995 -33.7995 -33.7842 -33.7842 -33.7525 -33.7525 -27.9845 -27.9844
   -27.9802 -27.9802 -27.9757 -27.9756 -27.9716 -27.9714 -26.7454 -26.7454
   -26.7411 -26.7411 -26.7356 -26.7356 -26.7343 -26.7341 -26.7314 -26.7314
   -26.7301 -26.7300 -10.4604 -10.4604  -9.9323  -9.9323  -8.8769  -8.8769
    -6.1727  -6.1726  -4.8897  -4.8896  -0.7119  -0.7109  -0.4838  -0.4806
    -0.0662  -0.0571   0.1596   0.1631   0.3608   0.3646   0.6299   0.6325
     1.1816   1.1837   1.6689   1.6724   1.8227   1.8268   2.7059   2.7068
     3.2235   3.2276   3.4282   3.4336   3.8730   3.8743   4.3615   4.3646
     4.7793   4.7809   6.5001   6.5004   6.5667   6.5670   7.0155   7.0157
     7.4642   7.4644   7.7820   7.7821

          k = 0.1214 0.0701 0.0000 ( 14347 PWs)   bands (ev):

   -35.3689 -35.3689 -35.3638 -35.3638 -35.3440 -35.3440 -35.3390 -35.3390
   -35.2621 -35.2621 -35.2259 -35.2259 -33.9089 -33.9089 -33.9038 -33.9038
   -33.8879 -33.8879 -33.8828 -33.8828 -33.8765 -33.8765 -33.8715 -33.8715
   -33.7995 -33.7995 -33.7842 -33.7842 -33.7525 -33.7525 -27.9844 -27.9844
   -27.9802 -27.9802 -27.9757 -27.9756 -27.9716 -27.9714 -26.7453 -26.7453
   -26.7411 -26.7411 -26.7356 -26.7356 -26.7343 -26.7341 -26.7315 -26.7314
   -26.7301 -26.7300 -10.4456 -10.4456  -9.9188  -9.9188  -8.8687  -8.8687
    -6.1750  -6.1750  -4.9137  -4.9136  -0.7779  -0.7770  -0.5103  -0.5073
    -0.1207  -0.1117   0.1318   0.1349   0.3227   0.3264   0.6028   0.6063
     1.1832   1.1853   1.6844   1.6882   1.8008   1.8053   2.7370   2.7381
     3.2591   3.2624   3.4528   3.4584   3.9127   3.9138   4.3837   4.3862
     4.8149   4.8163   6.5118   6.5121   6.5730   6.5733   6.9974   6.9976
     7.4650   7.4652   7.7858   7.7859

          k = 0.1286 0.0742 0.0000 ( 14352 PWs)   bands (ev):

   -35.3689 -35.3689 -35.3638 -35.3638 -35.3440 -35.3440 -35.3390 -35.3390
   -35.2621 -35.2621 -35.2258 -35.2258 -33.9088 -33.9088 -33.9038 -33.9038
   -33.8879 -33.8879 -33.8828 -33.8828 -33.8765 -33.8765 -33.8715 -33.8715
   -33.7995 -33.7995 -33.7842 -33.7842 -33.7525 -33.7525 -27.9844 -27.9844
   -27.9802 -27.9802 -27.9757 -27.9756 -27.9716 -27.9714 -26.7453 -26.7453
   -26.7411 -26.7411 -26.7357 -26.7356 -26.7343 -26.7341 -26.7315 -26.7315
   -26.7301 -26.7300 -10.4300 -10.4300  -9.9045  -9.9045  -8.8601  -8.8601
    -6.1777  -6.1776  -4.9392  -4.9391  -0.8465  -0.8457  -0.5355  -0.5325
    -0.1757  -0.1670   0.1034   0.1061   0.2847   0.2883   0.5780   0.5823
     1.1835   1.1860   1.6752   1.6794   1.7984   1.8028   2.7672   2.7684
     3.2960   3.2987   3.4734   3.4790   3.9552   3.9564   4.4109   4.4128
     4.8484   4.8496   6.5168   6.5170   6.5835   6.5837   6.9809   6.9811
     7.4704   7.4705   7.7908   7.7909

          k = 0.1357 0.0783 0.0000 ( 14344 PWs)   bands (ev):

   -35.3689 -35.3689 -35.3638 -35.3638 -35.3440 -35.3440 -35.3390 -35.3390
   -35.2621 -35.2621 -35.2258 -35.2258 -33.9088 -33.9088 -33.9038 -33.9037
   -33.8879 -33.8879 -33.8828 -33.8828 -33.8765 -33.8765 -33.8715 -33.8715
   -33.7995 -33.7995 -33.7842 -33.7842 -33.7525 -33.7525 -27.9844 -27.9844
   -27.9802 -27.9802 -27.9757 -27.9756 -27.9716 -27.9714 -26.7453 -26.7453
   -26.7410 -26.7410 -26.7357 -26.7357 -26.7342 -26.7341 -26.7315 -26.7315
   -26.7301 -26.7299 -10.4135 -10.4135  -9.8894  -9.8894  -8.8511  -8.8511
    -6.1808  -6.1807  -4.9660  -4.9659  -0.9167  -0.9159  -0.5600  -0.5571
    -0.2312  -0.2228   0.0741   0.0763   0.2476   0.2511   0.5553   0.5604
     1.1821   1.1852   1.6433   1.6480   1.8145   1.8185   2.7954   2.7967
     3.3333   3.3354   3.4920   3.4975   3.9991   4.0004   4.4432   4.4445
     4.8800   4.8809   6.5135   6.5137   6.5986   6.5988   6.9675   6.9678
     7.4796   7.4797   7.7972   7.7973

          k = 0.1429 0.0824 0.0000 ( 14336 PWs)   bands (ev):

   -35.3688 -35.3688 -35.3638 -35.3638 -35.3440 -35.3440 -35.3390 -35.3390
   -35.2621 -35.2621 -35.2258 -35.2258 -33.9088 -33.9088 -33.9037 -33.9037
[...]
    -6.1828  -6.1827  -4.9836  -4.9835  -0.8950  -0.8933  -0.5964  -0.5940
    -0.4002  -0.3970   0.0180   0.0239   0.3579   0.3600   0.6270   0.6286
     0.9803   0.9823   1.7491   1.7539   1.8491   1.8536   2.8390   2.8410
     3.2668   3.2686   3.4559   3.4583   4.1212   4.1233   4.4702   4.4719
     4.8749   4.8762   6.5804   6.5809   6.5958   6.5962   6.9945   6.9946
     7.2898   7.2902   7.7907   7.7908

          k = 0.0762 0.1319 0.0000 ( 14343 PWs)   bands (ev):

   -35.3689 -35.3689 -35.3638 -35.3638 -35.3440 -35.3440 -35.3390 -35.3390
   -35.2621 -35.2621 -35.2258 -35.2258 -33.9088 -33.9088 -33.9038 -33.9038
   -33.8879 -33.8879 -33.8828 -33.8828 -33.8765 -33.8765 -33.8715 -33.8715
   -33.7995 -33.7995 -33.7842 -33.7842 -33.7525 -33.7525 -27.9844 -27.9844
   -27.9802 -27.9802 -27.9757 -27.9756 -27.9716 -27.9714 -26.7453 -26.7453
   -26.7411 -26.7410 -26.7357 -26.7357 -26.7343 -26.7341 -26.7315 -26.7315
   -26.7301 -26.7299 -10.4224 -10.4223  -9.8975  -9.8975  -8.8559  -8.8559
    -6.1791  -6.1790  -4.9517  -4.9516  -0.8239  -0.8224  -0.5600  -0.5570
    -0.3286  -0.3252   0.0601   0.0663   0.3866   0.3889   0.6504   0.6521
     1.0064   1.0085   1.7471   1.7517   1.8386   1.8433   2.8331   2.8352
     3.2089   3.2107   3.4276   3.4304   4.0895   4.0926   4.4135   4.4162
     4.8425   4.8436   6.5668   6.5675   6.5790   6.5797   7.0152   7.0154
     7.3090   7.3094   7.7756   7.7756

          k = 0.0714 0.1237 0.0000 ( 14347 PWs)   bands (ev):

   -35.3689 -35.3689 -35.3638 -35.3638 -35.3440 -35.3440 -35.3390 -35.3390
   -35.2621 -35.2621 -35.2259 -35.2259 -33.9089 -33.9088 -33.9038 -33.9038
   -33.8879 -33.8879 -33.8828 -33.8828 -33.8765 -33.8765 -33.8715 -33.8715
   -33.7995 -33.7995 -33.7842 -33.7842 -33.7525 -33.7525 -27.9844 -27.9844
   -27.9802 -27.9802 -27.9757 -27.9756 -27.9716 -27.9714 -26.7453 -26.7453
   -26.7411 -26.7411 -26.7357 -26.7356 -26.7343 -26.7341 -26.7315 -26.7314
   -26.7301 -26.7300 -10.4407 -10.4407  -9.9143  -9.9143  -8.8660  -8.8660
    -6.1758  -6.1758  -4.9217  -4.9216  -0.7539  -0.7528  -0.5256  -0.5221
    -0.2551  -0.2514   0.1036   0.1102   0.4122   0.4148   0.6739   0.6757
     1.0329   1.0349   1.7265   1.7298   1.8437   1.8475   2.8241   2.8262
     3.1502   3.1521   3.4040   3.4072   4.0476   4.0516   4.3700   4.3737
     4.8077   4.8089   6.5413   6.5416   6.5747   6.5750   7.0338   7.0340
     7.3333   7.3337   7.7634   7.7635

          k = 0.0667 0.1154 0.0000 ( 14347 PWs)   bands (ev):

   -35.3689 -35.3689 -35.3638 -35.3638 -35.3440 -35.3440 -35.3390 -35.3390
   -35.2621 -35.2621 -35.2259 -35.2259 -33.9089 -33.9089 -33.9038 -33.9038
   -33.8879 -33.8879 -33.8828 -33.8828 -33.8765 -33.8765 -33.8715 -33.8715
   -33.7995 -33.7995 -33.7842 -33.7842 -33.7525 -33.7525 -27.9845 -27.9844
   -27.9802 -27.9802 -27.9757 -27.9756 -27.9716 -27.9714 -26.7454 -26.7454
   -26.7411 -26.7411 -26.7356 -26.7356 -26.7343 -26.7341 -26.7314 -26.7314
   -26.7301 -26.7300 -10.4580 -10.4580  -9.9301  -9.9301  -8.8756  -8.8756
    -6.1731  -6.1730  -4.8935  -4.8934  -0.6868  -0.6858  -0.4910  -0.4868
    -0.1815  -0.1774   0.1487   0.1556   0.4351   0.4379   0.6977   0.6998
     1.0591   1.0610   1.6925   1.6947   1.8574   1.8608   2.8094   2.8115
     3.0960   3.0983   3.3820   3.3854   3.9971   4.0017   4.3402   4.3445
     4.7705   4.7717   6.5161   6.5163   6.5702   6.5704   7.0498   7.0499
     7.3623   7.3626   7.7542   7.7543

          k = 0.0619 0.1072 0.0000 ( 14351 PWs)   bands (ev):

   -35.3689 -35.3689 -35.3638 -35.3638 -35.3440 -35.3440 -35.3390 -35.3390
   -35.2621 -35.2621 -35.2259 -35.2259 -33.9089 -33.9089 -33.9038 -33.9038
   -33.8879 -33.8879 -33.8828 -33.8828 -33.8765 -33.8765 -33.8716 -33.8715
   -33.7995 -33.7995 -33.7842 -33.7842 -33.7525 -33.7525 -27.9845 -27.9845
   -27.9802 -27.9802 -27.9757 -27.9756 -27.9715 -27.9714 -26.7454 -26.7454
   -26.7412 -26.7411 -26.7356 -26.7356 -26.7343 -26.7342 -26.7314 -26.7314
   -26.7301 -26.7300 -10.4741 -10.4741  -9.9449  -9.9449  -8.8846  -8.8846
    -6.1708  -6.1707  -4.8673  -4.8672  -0.6251  -0.6238  -0.4535  -0.4487
    -0.1087  -0.1044   0.1953   0.2024   0.4557   0.4588   0.7220   0.7244
     1.0846   1.0863   1.6515   1.6532   1.8727   1.8759   2.7866   2.7887
     3.0514   3.0541   3.3589   3.3623   3.9421   3.9470   4.3217   4.3262
     4.7306   4.7319   6.4919   6.4921   6.5652   6.5654   7.0629   7.0630
     7.3955   7.3959   7.7480   7.7480

          k = 0.0571 0.0989 0.0000 ( 14347 PWs)   bands (ev):

   -35.3689 -35.3689 -35.3638 -35.3638 -35.3440 -35.3440 -35.3390 -35.3390
   -35.2621 -35.2621 -35.2259 -35.2259 -33.9089 -33.9089 -33.9038 -33.9038
   -33.8879 -33.8879 -33.8828 -33.8828 -33.8765 -33.8765 -33.8716 -33.8715
   -33.7996 -33.7996 -33.7842 -33.7842 -33.7526 -33.7526 -27.9845 -27.9845
   -27.9803 -27.9802 -27.9757 -27.9756 -27.9715 -27.9714 -26.7454 -26.7454
   -26.7412 -26.7412 -26.7356 -26.7356 -26.7343 -26.7342 -26.7314 -26.7314
   -26.7301 -26.7300 -10.4890 -10.4890  -9.9586  -9.9586  -8.8930  -8.8930
    -6.1688  -6.1687  -4.8430  -4.8429  -0.5718  -0.5703  -0.4101  -0.4047
    -0.0374  -0.0330   0.2429   0.2500   0.4746   0.4779   0.7468   0.7497
     1.1091   1.1106   1.6066   1.6082   1.8856   1.8887   2.7549   2.7571
     3.0192   3.0224   3.3330   3.3364   3.8871   3.8921   4.3115   4.3159
     4.6884   4.6898   6.4689   6.4691   6.5601   6.5602   7.0730   7.0732
     7.4326   7.4329   7.7444   7.7445

          k = 0.0524 0.0907 0.0000 ( 14339 PWs)   bands (ev):

   -35.3689 -35.3689 -35.3638 -35.3638 -35.3440 -35.3440 -35.3390 -35.3390
   -35.2621 -35.2621 -35.2259 -35.2259 -33.9089 -33.9089 -33.9038 -33.9038
   -33.8879 -33.8879 -33.8828 -33.8828 -33.8766 -33.8765 -33.8716 -33.8715
   -33.7996 -33.7996 -33.7842 -33.7842 -33.7526 -33.7526 -27.9845 -27.9845
   -27.9803 -27.9803 -27.9757 -27.9756 -27.9715 -27.9714 -26.7455 -26.7455
   -26.7412 -26.7412 -26.7356 -26.7356 -26.7343 -26.7342 -26.7314 -26.7314
   -26.7301 -26.7300 -10.5027 -10.5027  -9.9713  -9.9713  -8.9009  -8.9008
    -6.1672  -6.1671  -4.8205  -4.8204  -0.5291  -0.5275  -0.3588  -0.3532
     0.0323   0.0367   0.2904   0.2973   0.4923   0.4958   0.7723   0.7760
     1.1323   1.1337   1.5598   1.5616   1.8930   1.8961   2.7165   2.7189
     2.9989   3.0025   3.3033   3.3065   3.8355   3.8405   4.3072   4.3115
     4.6441   4.6456   6.4472   6.4474   6.5550   6.5551   7.0803   7.0805
     7.4730   7.4733   7.7432   7.7432

          k = 0.0476 0.0824 0.0000 ( 14323 PWs)   bands (ev):

   -35.3689 -35.3689 -35.3638 -35.3638 -35.3440 -35.3440 -35.3390 -35.3390
   -35.2621 -35.2621 -35.2259 -35.2259 -33.9089 -33.9089 -33.9039 -33.9038
   -33.8879 -33.8879 -33.8828 -33.8828 -33.8766 -33.8765 -33.8716 -33.8715
   -33.7996 -33.7996 -33.7842 -33.7842 -33.7526 -33.7526 -27.9845 -27.9845
   -27.9803 -27.9803 -27.9757 -27.9756 -27.9715 -27.9714 -26.7455 -26.7455
   -26.7412 -26.7412 -26.7356 -26.7355 -26.7343 -26.7342 -26.7314 -26.7314
   -26.7301 -26.7300 -10.5153 -10.5153  -9.9828  -9.9828  -8.9080  -8.9080
    -6.1658  -6.1657  -4.8001  -4.8000  -0.4963  -0.4949  -0.3007  -0.2952
     0.1001   0.1045   0.3361   0.3427   0.5097   0.5135   0.7983   0.8031
     1.1541   1.1556   1.5127   1.5148   1.8924   1.8955   2.6755   2.6784
     2.9879   2.9917   3.2702   3.2732   3.7894   3.7944   4.3071   4.3111
     4.5985   4.6000   6.4269   6.4270   6.5499   6.5500   7.0850   7.0851
     7.5161   7.5163   7.7438   7.7439

          k = 0.0429 0.0742 0.0000 ( 14325 PWs)   bands (ev):

   -35.3689 -35.3689 -35.3638 -35.3638 -35.3440 -35.3440 -35.3390 -35.3390
   -35.2621 -35.2621 -35.2259 -35.2259 -33.9089 -33.9089 -33.9039 -33.9039
   -33.8879 -33.8879 -33.8828 -33.8828 -33.8766 -33.8765 -33.8716 -33.8715
   -33.7996 -33.7996 -33.7842 -33.7842 -33.7526 -33.7526 -27.9845 -27.9845
   -27.9803 -27.9803 -27.9757 -27.9756 -27.9715 -27.9714 -26.7455 -26.7455
   -26.7413 -26.7413 -26.7355 -26.7355 -26.7343 -26.7342 -26.7314 -26.7313
   -26.7301 -26.7300 -10.5267 -10.5267  -9.9933  -9.9933  -8.9146  -8.9146
    -6.1647  -6.1647  -4.7816  -4.7815  -0.4712  -0.4700  -0.2387  -0.2336
     0.1659   0.1701   0.3786   0.3846   0.5277   0.5316   0.8246   0.8307
     1.1738   1.1758   1.4670   1.4698   1.8820   1.8852   2.6353   2.6387
     2.9832   2.9870   3.2357   3.2385   3.7491   3.7540   4.3100   4.3136
     4.5522   4.5538   6.4080   6.4081   6.5452   6.5452   7.0874   7.0875
     7.5612   7.5615   7.7458   7.7458

          k = 0.0381 0.0660 0.0000 ( 14321 PWs)   bands (ev):

   -35.3689 -35.3689 -35.3639 -35.3639 -35.3440 -35.3440 -35.3390 -35.3390
   -35.2621 -35.2621 -35.2259 -35.2259 -33.9089 -33.9089 -33.9039 -33.9039
   -33.8879 -33.8879 -33.8828 -33.8828 -33.8766 -33.8765 -33.8716 -33.8715
   -33.7996 -33.7996 -33.7842 -33.7842 -33.7526 -33.7526 -27.9845 -27.9845
   -27.9803 -27.9803 -27.9757 -27.9756 -27.9715 -27.9714 -26.7455 -26.7455
   -26.7413 -26.7413 -26.7355 -26.7355 -26.7343 -26.7342 -26.7313 -26.7313
   -26.7301 -26.7301 -10.5369 -10.5369 -10.0027 -10.0027  -8.9205  -8.9205
    -6.1638  -6.1637  -4.7651  -4.7650  -0.4516  -0.4506  -0.1757  -0.1710
     0.2285   0.2326   0.4167   0.4224   0.5473   0.5511   0.8502   0.8578
     1.1899   1.1931   1.4259   1.4295   1.8614   1.8646   2.5971   2.6009
     2.9822   2.9858   3.2036   3.2063   3.7137   3.7186   4.3149   4.3182
     4.5064   4.5080   6.3908   6.3909   6.5407   6.5408   7.0879   7.0880
     7.6076   7.6078   7.7485   7.7486

          k = 0.0333 0.0577 0.0000 ( 14317 PWs)   bands (ev):

   -35.3689 -35.3689 -35.3639 -35.3639 -35.3440 -35.3440 -35.3390 -35.3390
   -35.2621 -35.2621 -35.2259 -35.2259 -33.9090 -33.9089 -33.9039 -33.9039
   -33.8879 -33.8879 -33.8828 -33.8828 -33.8766 -33.8765 -33.8716 -33.8716
   -33.7996 -33.7996 -33.7842 -33.7842 -33.7526 -33.7526 -27.9845 -27.9845
   -27.9803 -27.9803 -27.9757 -27.9756 -27.9715 -27.9714 -26.7455 -26.7455
   -26.7413 -26.7413 -26.7355 -26.7355 -26.7343 -26.7342 -26.7313 -26.7313
   -26.7301 -26.7301 -10.5459 -10.5459 -10.0110 -10.0110  -8.9258  -8.9258
    -6.1631  -6.1630  -4.7505  -4.7504  -0.4360  -0.4353  -0.1138  -0.1093
     0.2855   0.2895   0.4516   0.4576   0.5686   0.5721   0.8739   0.8830
     1.1990   1.2035   1.3945   1.3991   1.8315   1.8347   2.5602   2.5643
     2.9822   2.9856   3.1786   3.1816   3.6817   3.6866   4.3211   4.3240
     4.4621   4.4637   6.3752   6.3753   6.5367   6.5367   7.0872   7.0872
     7.6542   7.6544   7.7517   7.7518

          k = 0.0286 0.0495 0.0000 ( 14313 PWs)   bands (ev):

   -35.3689 -35.3689 -35.3639 -35.3639 -35.3440 -35.3440 -35.3390 -35.3390
   -35.2621 -35.2621 -35.2259 -35.2259 -33.9090 -33.9090 -33.9039 -33.9039
   -33.8879 -33.8879 -33.8828 -33.8828 -33.8766 -33.8766 -33.8716 -33.8716
   -33.7996 -33.7996 -33.7842 -33.7842 -33.7526 -33.7526 -27.9845 -27.9845
   -27.9803 -27.9803 -27.9757 -27.9756 -27.9715 -27.9714 -26.7456 -26.7456
   -26.7413 -26.7413 -26.7355 -26.7355 -26.7343 -26.7342 -26.7313 -26.7313
   -26.7301 -26.7301 -10.5536 -10.5536 -10.0182 -10.0182  -8.9303  -8.9303
    -6.1625  -6.1625  -4.7379  -4.7378  -0.4235  -0.4230  -0.0543  -0.0503
     0.3323   0.3365   0.4878   0.4944   0.5908   0.5938   0.8939   0.9043
     1.1955   1.2010   1.3803   1.3856   1.7948   1.7980   2.5230   2.5272
     2.9805   2.9838   3.1658   3.1695   3.6515   3.6563   4.3277   4.3300
     4.4210   4.4225   6.3614   6.3615   6.5331   6.5331   7.0855   7.0856
     7.6991   7.6993   7.7557   7.7558

          k = 0.0238 0.0412 0.0000 ( 14321 PWs)   bands (ev):

   -35.3689 -35.3689 -35.3639 -35.3639 -35.3440 -35.3440 -35.3390 -35.3390
   -35.2621 -35.2621 -35.2259 -35.2259 -33.9090 -33.9090 -33.9039 -33.9039
   -33.8879 -33.8879 -33.8828 -33.8828 -33.8766 -33.8766 -33.8716 -33.8716
   -33.7996 -33.7996 -33.7842 -33.7842 -33.7526 -33.7526 -27.9846 -27.9846
   -27.9803 -27.9803 -27.9757 -27.9756 -27.9715 -27.9715 -26.7456 -26.7456
   -26.7413 -26.7413 -26.7355 -26.7355 -26.7343 -26.7342 -26.7313 -26.7313
   -26.7301 -26.7301 -10.5603 -10.5603 -10.0244 -10.0244  -8.9342  -8.9342
    -6.1621  -6.1621  -4.7272  -4.7272  -0.4136  -0.4132   0.0012   0.0049
     0.3645   0.3687   0.5310   0.5379   0.6128   0.6152   0.9080   0.9196
     1.1776   1.1830   1.3864   1.3913   1.7548   1.7579   2.4848   2.4887
     2.9756   2.9787   3.1678   3.1721   3.6217   3.6265   4.3332   4.3348
     4.3851   4.3864   6.3496   6.3497   6.5300   6.5300   7.0833   7.0834
     7.7359   7.7360   7.7653   7.7655

          k = 0.0190 0.0330 0.0000 ( 14325 PWs)   bands (ev):

   -35.3689 -35.3689 -35.3639 -35.3639 -35.3440 -35.3440 -35.3390 -35.3390
   -35.2621 -35.2621 -35.2259 -35.2259 -33.9090 -33.9090 -33.9039 -33.9039
   -33.8879 -33.8879 -33.8828 -33.8828 -33.8766 -33.8766 -33.8716 -33.8716
   -33.7996 -33.7996 -33.7842 -33.7842 -33.7526 -33.7526 -27.9846 -27.9846
   -27.9803 -27.9803 -27.9757 -27.9756 -27.9715 -27.9715 -26.7456 -26.7456
   -26.7414 -26.7413 -26.7355 -26.7355 -26.7343 -26.7343 -26.7313 -26.7313
   -26.7301 -26.7301 -10.5657 -10.5657 -10.0294 -10.0294  -8.9374  -8.9374
    -6.1618  -6.1617  -4.7185  -4.7185  -0.4059  -0.4057   0.0516   0.0549
     0.3820   0.3856   0.5816   0.5872   0.6337   0.6360   0.9145   0.9267
     1.1511   1.1558   1.4064   1.4104   1.7153   1.7183   2.4463   2.4497
     2.9687   2.9715   3.1829   3.1875   3.5918   3.5964   4.3322   4.3324
     4.3607   4.3620   6.3397   6.3398   6.5274   6.5274   7.0811   7.0811
     7.7489   7.7490   7.7944   7.7947

          k = 0.0143 0.0247 0.0000 ( 14321 PWs)   bands (ev):

   -35.3689 -35.3689 -35.3639 -35.3639 -35.3440 -35.3440 -35.3390 -35.3390
   -35.2621 -35.2621 -35.2259 -35.2259 -33.9090 -33.9090 -33.9039 -33.9039
   -33.8879 -33.8879 -33.8828 -33.8828 -33.8766 -33.8766 -33.8716 -33.8716
   -33.7996 -33.7996 -33.7842 -33.7842 -33.7526 -33.7526 -27.9846 -27.9846
   -27.9803 -27.9803 -27.9756 -27.9756 -27.9715 -27.9715 -26.7456 -26.7456
   -26.7414 -26.7414 -26.7355 -26.7355 -26.7343 -26.7343 -26.7313 -26.7313
   -26.7301 -26.7301 -10.5699 -10.5699 -10.0333 -10.0333  -8.9399  -8.9399
    -6.1615  -6.1615  -4.7117  -4.7117  -0.4002  -0.4000   0.0951   0.0978
     0.3889   0.3918   0.6299   0.6319   0.6561   0.6634   0.9122   0.9244
     1.1234   1.1273   1.4315   1.4346   1.6803   1.6830   2.4099   2.4127
     2.9618   2.9640   3.2062   3.2106   3.5623   3.5665   4.3154   4.3163
     4.3562   4.3576   6.3320   6.3320   6.5254   6.5254   7.0790   7.0791
     7.7515   7.7516   7.8273   7.8275

          k = 0.0095 0.0165 0.0000 ( 14313 PWs)   bands (ev):

   -35.3689 -35.3689 -35.3639 -35.3639 -35.3440 -35.3440 -35.3390 -35.3390
   -35.2621 -35.2621 -35.2259 -35.2259 -33.9090 -33.9090 -33.9039 -33.9039
   -33.8879 -33.8879 -33.8828 -33.8828 -33.8766 -33.8766 -33.8716 -33.8716
   -33.7996 -33.7996 -33.7842 -33.7842 -33.7526 -33.7526 -27.9846 -27.9846
   -27.9803 -27.9803 -27.9756 -27.9756 -27.9715 -27.9715 -26.7456 -26.7456
   -26.7414 -26.7414 -26.7355 -26.7355 -26.7343 -26.7343 -26.7313 -26.7313
   -26.7301 -26.7301 -10.5729 -10.5729 -10.0361 -10.0361  -8.9416  -8.9416
    -6.1613  -6.1613  -4.7069  -4.7069  -0.3962  -0.3961   0.1296   0.1316
     0.3897   0.3917   0.6523   0.6548   0.6982   0.7075   0.9009   0.9121
     1.1002   1.1031   1.4547   1.4569   1.6534   1.6554   2.3795   2.3814
     2.9565   2.9581   3.2319   3.2355   3.5354   3.5389   4.2981   4.2988
     4.3586   4.3596   6.3264   6.3264   6.5239   6.5240   7.0774   7.0774
     7.7521   7.7522   7.8524   7.8526

          k = 0.0048 0.0082 0.0000 ( 14310 PWs)   bands (ev):

   -35.3689 -35.3689 -35.3639 -35.3639 -35.3440 -35.3440 -35.3390 -35.3390
   -35.2621 -35.2621 -35.2259 -35.2259 -33.9090 -33.9090 -33.9039 -33.9039
   -33.8879 -33.8879 -33.8828 -33.8828 -33.8766 -33.8766 -33.8716 -33.8716
   -33.7996 -33.7996 -33.7842 -33.7842 -33.7526 -33.7526 -27.9846 -27.9846
   -27.9803 -27.9803 -27.9756 -27.9756 -27.9715 -27.9715 -26.7456 -26.7456
   -26.7414 -26.7414 -26.7355 -26.7355 -26.7343 -26.7343 -26.7313 -26.7313
   -26.7301 -26.7301 -10.5747 -10.5747 -10.0377 -10.0377  -8.9427  -8.9427
    -6.1612  -6.1612  -4.7040  -4.7040  -0.3938  -0.3938   0.1525   0.1536
     0.3883   0.3894   0.6624   0.6636   0.7421   0.7489   0.8845   0.8925
     1.0853   1.0869   1.4708   1.4719   1.6369   1.6381   2.3592   2.3602
     2.9534   2.9542   3.2530   3.2551   3.5156   3.5176   4.2870   4.2874
     4.3610   4.3615   6.3230   6.3230   6.5231   6.5231   7.0763   7.0764
     7.7522   7.7522   7.8656   7.8658

          k = 0.0000 0.0000 0.0000 ( 14301 PWs)   bands (ev):

   -35.3689 -35.3689 -35.3639 -35.3639 -35.3440 -35.3440 -35.3390 -35.3390
   -35.2621 -35.2621 -35.2259 -35.2259 -33.9090 -33.9090 -33.9039 -33.9039
   -33.8879 -33.8879 -33.8828 -33.8828 -33.8766 -33.8766 -33.8716 -33.8716
   -33.7996 -33.7996 -33.7842 -33.7842 -33.7526 -33.7526 -27.9846 -27.9846
   -27.9803 -27.9803 -27.9756 -27.9756 -27.9715 -27.9715 -26.7456 -26.7456
   -26.7414 -26.7414 -26.7355 -26.7355 -26.7343 -26.7343 -26.7313 -26.7313
   -26.7301 -26.7301 -10.5754 -10.5754 -10.0382 -10.0382  -8.9430  -8.9430
    -6.1612  -6.1612  -4.7030  -4.7030  -0.3930  -0.3930   0.1609   0.1609
     0.3878   0.3878   0.6660   0.6660   0.7649   0.7649   0.8778   0.8778
     1.0807   1.0807   1.4769   1.4769   1.6319   1.6319   2.3523   2.3523
     2.9526   2.9526   3.2621   3.2621   3.5086   3.5086   4.2833   4.2833
     4.3620   4.3620   6.3219   6.3219   6.5228   6.5228   7.0760   7.0760
     7.7522   7.7522   7.8690   7.8690

     Writing all to output data dir tmp/Sb2Te3-uatsx-c2-soc-0.0.save/ :
     XML data file, pseudopotentials, collected wavefunctions

     init_run     :      1.16s CPU      1.16s WALL (       1 calls)
     electrons    :   1584.53s CPU    860.37s WALL (       1 calls)

     Called by init_run:
     wfcinit      :      0.00s CPU      0.01s WALL (       1 calls)
     wfcinit:wfcr :     40.11s CPU     20.88s WALL (     211 calls)
     potinit      :      0.51s CPU      0.49s WALL (       1 calls)
     hinit0       :      0.55s CPU      0.56s WALL (       1 calls)

     Called by electrons:
     c_bands      :   1584.51s CPU    860.35s WALL (       1 calls)
     v_of_rho     :      0.05s CPU      0.04s WALL (       1 calls)
     v_h          :      0.00s CPU      0.00s WALL (       1 calls)
     v_xc         :      0.05s CPU      0.03s WALL (       1 calls)

     Called by c_bands:
     init_us_2    :      0.20s CPU      0.17s WALL (     211 calls)
     cegterg      :   1537.00s CPU    832.93s WALL (     674 calls)

     Called by sum_band:

     Called by *egterg:
     cdiaghg      :    257.73s CPU    174.16s WALL (   11356 calls)
     cegterg:over :     97.68s CPU     50.98s WALL (   11145 calls)
     cegterg:upda :     49.89s CPU     23.24s WALL (   11145 calls)
     cegterg:last :     79.31s CPU     39.93s WALL (    5707 calls)
     h_psi        :   1040.65s CPU    536.80s WALL (   12030 calls)
     g_psi        :      5.25s CPU      3.80s WALL (   11145 calls)

     Called by h_psi:
     h_psi:calbec :     56.39s CPU     28.61s WALL (   12030 calls)
     vloc_psi     :    924.76s CPU    470.81s WALL (   12030 calls)
     add_vuspsi   :     56.87s CPU     35.73s WALL (   12030 calls)

     General routines
     calbec       :     56.31s CPU     28.59s WALL (   12030 calls)
     fft          :      0.59s CPU      0.59s WALL (      17 calls)
     ffts         :      0.42s CPU      0.42s WALL (       4 calls)
     fftw         :    670.96s CPU    341.59s WALL ( 2438068 calls)
     interpolate  :      0.44s CPU      0.43s WALL (       4 calls)
     davcio       :      0.21s CPU      0.98s WALL (     422 calls)

     Parallel routines

     PWSCF        :  26m40.78s CPU  17m 2.89s WALL


   This run was terminated on:  14: 6:58  14Aug2025            

=------------------------------------------------------------------------------=
   JOB DONE.
=------------------------------------------------------------------------------=
