
     Program PWSCF v.7.4.1 starts on 23Aug2025 at  0:19:29 

     This program is part of the open-source Quantum ESPRESSO suite
     for quantum simulation of materials; please cite
         "P. Giannozzi et al., J. Phys.:Condens. Matter 21 395502 (2009);
         "P. Giannozzi et al., J. Phys.:Condens. Matter 29 465901 (2017);
         "P. Giannozzi et al., J. Chem. Phys. 152 154105 (2020);
          URL http://www.quantum-espresso.org", 
     in publications or presentations arising from this work. More details at
     http://www.quantum-espresso.org/quote

     Parallel version (MPI & OpenMP), running on      48 processor cores
     Number of MPI processes:                24
     Threads/MPI process:                     2

     MPI processes distributed on     2 nodes
     72829 MiB available memory on the printing compute node when the environment starts

     Waiting for input...
     Reading input from standard input

     Current dimensions of program PWSCF are:
     Max number of different atomic species (ntypx) = 10
     Max number of k-points (npk) =  40000
     Max angular momentum in pseudopotentials (lmaxx) =  4
     file Sb.rel-pbe-n-rrkjus_psl.1.0.0.UPF: wavefunction(s)  5S renormalized
     file Te.rel-pbe-n-rrkjus_psl.1.0.0.UPF: wavefunction(s)  5S renormalized

     IMPORTANT: XC functional enforced from input :
     Exchange-correlation= PBE
                           (   1   4   3   4   0   0   0)
     Any further DFT definition will be discarded
     Please, verify this is what you really want


     Atomic positions and unit cell read from directory:
     tmp/Sb2Te3-uatsx-c6-soc-5.0.save/


     R & G space division:  proc/nbgrp/npool/nimage =      24
     Subspace diagonalization in iterative solution of the eigenvalue problem:
     a serial algorithm will be used


     Parallelization info
     --------------------
     sticks:   dense  smooth     PW     G-vecs:    dense   smooth      PW
     Min          99      40     11                19863     5026     767
     Max         100      41     12                19886     5041     778
     Sum        2397     963    273               477063   120743   18525

     Using Slab Decomposition



     bravais-lattice index     =            0
     lattice parameter (alat)  =       8.5529  a.u.
     unit-cell volume          =    2526.9262 (a.u.)^3
     number of atoms/cell      =            5
     number of atomic types    =            2
     number of electrons       =        28.00
     number of Kohn-Sham states=          100
     kinetic-energy cutoff     =      50.0000  Ry
     charge density cutoff     =     500.0000  Ry
     Exchange-correlation= PBE
                           (   1   4   3   4   0   0   0)
     Non magnetic calculation with spin-orbit


     celldm(1)=   8.552915  celldm(2)=   0.000000  celldm(3)=   0.000000
     celldm(4)=   0.000000  celldm(5)=   0.000000  celldm(6)=   0.000000

     crystal axes: (cart. coord. in units of alat)
               a(1) = (   1.000000   0.000000   0.000000 )  
               a(2) = (  -0.476190   0.824778   0.000000 )  
               a(3) = (   0.000000   0.000000   4.896807 )  

     reciprocal axes: (cart. coord. in units 2 pi/alat)
               b(1) = (  1.000000  0.577356 -0.000000 )  
               b(2) = (  0.000000  1.212447  0.000000 )  
               b(3) = (  0.000000 -0.000000  0.204215 )  


     PseudoPot. # 1 for Sb read from file:
     /zfs-home/202401017n1/pseudos/Sb.rel-pbe-n-rrkjus_psl.1.0.0.UPF
     MD5 check sum: c1afc134568783a62b80e43a202109b2
     Pseudo is Ultrasoft + core correction, Zval =  5.0
     Generated using &quot;atomic&quot; code by A. Dal Corso  v.6.2.2
     Using radial grid of 1243 points, 10 beta functions with: 
                l(1) =   0
                l(2) =   0
                l(3) =   1
                l(4) =   1
                l(5) =   1
                l(6) =   1
                l(7) =   2
                l(8) =   2
                l(9) =   2
               l(10) =   2
     Q(r) pseudized with 0 coefficients 


     PseudoPot. # 2 for Te read from file:
     /zfs-home/202401017n1/pseudos/Te.rel-pbe-n-rrkjus_psl.1.0.0.UPF
     MD5 check sum: 7fd30b6833abd190471e4dcc2367351b
     Pseudo is Ultrasoft + core correction, Zval =  6.0
     Generated using &quot;atomic&quot; code by A. Dal Corso  v.6.3
     Using radial grid of 1245 points, 10 beta functions with: 
                l(1) =   0
                l(2) =   0
                l(3) =   1
                l(4) =   1
                l(5) =   1
                l(6) =   1
                l(7) =   2
                l(8) =   2
                l(9) =   2
               l(10) =   2
     Q(r) pseudized with 0 coefficients 


     atomic species   valence    mass     pseudopotential
     Sb                5.00   121.76000     Sb( 1.00)
     Te                6.00   127.60000     Te( 1.00)

     No symmetry found


                                    s                        frac. trans.

      isym =  1     identity                                     

 cryst.   s( 1) = (     1          0          0      )
                  (     0          1          0      )
                  (     0          0          1      )

 cart.    s( 1) = (  1.0000000  0.0000000  0.0000000 )
                  (  0.0000000  1.0000000  0.0000000 )
                  (  0.0000000  0.0000000  1.0000000 )


   Cartesian axes

     site n.     atom                  positions (alat units)
         1        Sb     tau(   1) = (   0.5941563   0.4140600   2.8819763  )
         2        Te     tau(   2) = (   0.5757813   0.3831770   1.6487259  )
         3        Sb     tau(   3) = (   0.0713597   0.1150985   2.0147862  )
         4        Te     tau(   4) = (   0.0896521   0.1461334   3.2480478  )
         5        Te     tau(   5) = (   0.0946223   0.6770376   2.4483865  )

     -------------------------------------------------
     Parameters for Dispersion (Grimme-D2) Correction:
     -------------------------------------------------
       atom      VdW radius       C_6     

        Sb         3.555       1333.532
        Te         3.575       1101.101

   Crystallographic axes

     site n.     atom                  positions (cryst. coord.)
         1        Sb     tau(   1) = (  0.8332162  0.5020259  0.5885420  )
         2        Te     tau(   2) = (  0.7970108  0.4645820  0.3366941  )
         3        Sb     tau(   3) = (  0.1378125  0.1395508  0.4114490  )
         4        Te     tau(   4) = (  0.1740231  0.1771791  0.6632992  )
         5        Te     tau(   5) = (  0.4855140  0.8208724  0.4999966  )

     number of k points=   211
                       cart. coord. in units 2pi/alat
        k(    1) = (   0.0000000   0.0000000   0.0000000), wk =   0.0047393
        k(    2) = (   0.0071429   0.0041240   0.0000000), wk =   0.0047393
        k(    3) = (   0.0142857   0.0082479   0.0000000), wk =   0.0047393
        k(    4) = (   0.0214286   0.0123719   0.0000000), wk =   0.0047393
        k(    5) = (   0.0285714   0.0164959   0.0000000), wk =   0.0047393
        k(    6) = (   0.0357143   0.0206199   0.0000000), wk =   0.0047393
        k(    7) = (   0.0428571   0.0247438   0.0000000), wk =   0.0047393
        k(    8) = (   0.0500000   0.0288678   0.0000000), wk =   0.0047393
        k(    9) = (   0.0571429   0.0329918   0.0000000), wk =   0.0047393
        k(   10) = (   0.0642857   0.0371157   0.0000000), wk =   0.0047393
        k(   11) = (   0.0714286   0.0412397   0.0000000), wk =   0.0047393
        k(   12) = (   0.0785714   0.0453637   0.0000000), wk =   0.0047393
        k(   13) = (   0.0857143   0.0494876   0.0000000), wk =   0.0047393
        k(   14) = (   0.0928571   0.0536116   0.0000000), wk =   0.0047393
        k(   15) = (   0.1000000   0.0577356   0.0000000), wk =   0.0047393
        k(   16) = (   0.1071429   0.0618596   0.0000000), wk =   0.0047393
        k(   17) = (   0.1142857   0.0659835   0.0000000), wk =   0.0047393
        k(   18) = (   0.1214286   0.0701075   0.0000000), wk =   0.0047393
        k(   19) = (   0.1285714   0.0742315   0.0000000), wk =   0.0047393
        k(   20) = (   0.1357143   0.0783554   0.0000000), wk =   0.0047393
        k(   21) = (   0.1428571   0.0824794   0.0000000), wk =   0.0047393
        k(   22) = (   0.1500000   0.0866034   0.0000000), wk =   0.0047393
        k(   23) = (   0.1571429   0.0907273   0.0000000), wk =   0.0047393
        k(   24) = (   0.1642857   0.0948513   0.0000000), wk =   0.0047393
        k(   25) = (   0.1714286   0.0989753   0.0000000), wk =   0.0047393
        k(   26) = (   0.1785714   0.1030993   0.0000000), wk =   0.0047393
        k(   27) = (   0.1857143   0.1072232   0.0000000), wk =   0.0047393
        k(   28) = (   0.1928571   0.1113472   0.0000000), wk =   0.0047393
        k(   29) = (   0.2000000   0.1154712   0.0000000), wk =   0.0047393
        k(   30) = (   0.2071429   0.1195951   0.0000000), wk =   0.0047393
        k(   31) = (   0.2142857   0.1237191   0.0000000), wk =   0.0047393
        k(   32) = (   0.2214286   0.1278431   0.0000000), wk =   0.0047393
        k(   33) = (   0.2285714   0.1319671   0.0000000), wk =   0.0047393
        k(   34) = (   0.2357143   0.1360910   0.0000000), wk =   0.0047393
        k(   35) = (   0.2428571   0.1402150   0.0000000), wk =   0.0047393
        k(   36) = (   0.2500000   0.1443390   0.0000000), wk =   0.0047393
        k(   37) = (   0.2571429   0.1484629   0.0000000), wk =   0.0047393
        k(   38) = (   0.2642857   0.1525869   0.0000000), wk =   0.0047393
        k(   39) = (   0.2714286   0.1567109   0.0000000), wk =   0.0047393
        k(   40) = (   0.2785714   0.1608348   0.0000000), wk =   0.0047393
        k(   41) = (   0.2857143   0.1649588   0.0000000), wk =   0.0047393
        k(   42) = (   0.2928571   0.1690828   0.0000000), wk =   0.0047393
        k(   43) = (   0.3000000   0.1732068   0.0000000), wk =   0.0047393
        k(   44) = (   0.3071429   0.1773307   0.0000000), wk =   0.0047393
        k(   45) = (   0.3142857   0.1814547   0.0000000), wk =   0.0047393
        k(   46) = (   0.3214286   0.1855787   0.0000000), wk =   0.0047393
        k(   47) = (   0.3285714   0.1897026   0.0000000), wk =   0.0047393
        k(   48) = (   0.3357143   0.1938266   0.0000000), wk =   0.0047393
        k(   49) = (   0.3428571   0.1979506   0.0000000), wk =   0.0047393
        k(   50) = (   0.3500000   0.2020745   0.0000000), wk =   0.0047393
        k(   51) = (   0.3571429   0.2061985   0.0000000), wk =   0.0047393
        k(   52) = (   0.3642857   0.2103225   0.0000000), wk =   0.0047393
        k(   53) = (   0.3714286   0.2144465   0.0000000), wk =   0.0047393
        k(   54) = (   0.3785714   0.2185704   0.0000000), wk =   0.0047393
        k(   55) = (   0.3857143   0.2226944   0.0000000), wk =   0.0047393
        k(   56) = (   0.3928571   0.2268184   0.0000000), wk =   0.0047393
        k(   57) = (   0.4000000   0.2309423   0.0000000), wk =   0.0047393
        k(   58) = (   0.4071429   0.2350663   0.0000000), wk =   0.0047393
        k(   59) = (   0.4142857   0.2391903   0.0000000), wk =   0.0047393
        k(   60) = (   0.4214286   0.2433143   0.0000000), wk =   0.0047393
        k(   61) = (   0.4285714   0.2474382   0.0000000), wk =   0.0047393
        k(   62) = (   0.4357143   0.2515622   0.0000000), wk =   0.0047393
        k(   63) = (   0.4428571   0.2556862   0.0000000), wk =   0.0047393
        k(   64) = (   0.4500000   0.2598101   0.0000000), wk =   0.0047393
        k(   65) = (   0.4571429   0.2639341   0.0000000), wk =   0.0047393
        k(   66) = (   0.4642857   0.2680581   0.0000000), wk =   0.0047393
        k(   67) = (   0.4714286   0.2721820   0.0000000), wk =   0.0047393
        k(   68) = (   0.4785714   0.2763060   0.0000000), wk =   0.0047393
        k(   69) = (   0.4857143   0.2804300   0.0000000), wk =   0.0047393
        k(   70) = (   0.4928571   0.2845540   0.0000000), wk =   0.0047393
        k(   71) = (   0.5000000   0.2886779   0.0000000), wk =   0.0047393
        k(   72) = (   0.4976190   0.2930768   0.0000000), wk =   0.0047393
        k(   73) = (   0.4952381   0.2974757   0.0000000), wk =   0.0047393
        k(   74) = (   0.4928571   0.3018746   0.0000000), wk =   0.0047393
        k(   75) = (   0.4904762   0.3062735   0.0000000), wk =   0.0047393
        k(   76) = (   0.4880952   0.3106724   0.0000000), wk =   0.0047393
        k(   77) = (   0.4857143   0.3150713   0.0000000), wk =   0.0047393
        k(   78) = (   0.4833333   0.3194702   0.0000000), wk =   0.0047393
        k(   79) = (   0.4809524   0.3238691   0.0000000), wk =   0.0047393
        k(   80) = (   0.4785714   0.3282680   0.0000000), wk =   0.0047393
        k(   81) = (   0.4761905   0.3326669   0.0000000), wk =   0.0047393
        k(   82) = (   0.4738095   0.3370658   0.0000000), wk =   0.0047393
        k(   83) = (   0.4714286   0.3414647   0.0000000), wk =   0.0047393
        k(   84) = (   0.4690476   0.3458636   0.0000000), wk =   0.0047393
        k(   85) = (   0.4666667   0.3502626   0.0000000), wk =   0.0047393
        k(   86) = (   0.4642857   0.3546615   0.0000000), wk =   0.0047393
        k(   87) = (   0.4619048   0.3590604   0.0000000), wk =   0.0047393
        k(   88) = (   0.4595238   0.3634593   0.0000000), wk =   0.0047393
        k(   89) = (   0.4571429   0.3678582   0.0000000), wk =   0.0047393
        k(   90) = (   0.4547619   0.3722571   0.0000000), wk =   0.0047393
        k(   91) = (   0.4523810   0.3766560   0.0000000), wk =   0.0047393
        k(   92) = (   0.4500000   0.3810549   0.0000000), wk =   0.0047393
        k(   93) = (   0.4476190   0.3854538   0.0000000), wk =   0.0047393
        k(   94) = (   0.4452381   0.3898527   0.0000000), wk =   0.0047393
        k(   95) = (   0.4428571   0.3942516   0.0000000), wk =   0.0047393
        k(   96) = (   0.4404762   0.3986505   0.0000000), wk =   0.0047393
        k(   97) = (   0.4380952   0.4030494   0.0000000), wk =   0.0047393
        k(   98) = (   0.4357143   0.4074483   0.0000000), wk =   0.0047393
        k(   99) = (   0.4333333   0.4118472   0.0000000), wk =   0.0047393
        k(  100) = (   0.4309524   0.4162461   0.0000000), wk =   0.0047393
        k(  101) = (   0.4285714   0.4206450   0.0000000), wk =   0.0047393
        k(  102) = (   0.4261905   0.4250439   0.0000000), wk =   0.0047393
        k(  103) = (   0.4238095   0.4294428   0.0000000), wk =   0.0047393
        k(  104) = (   0.4214286   0.4338417   0.0000000), wk =   0.0047393
        k(  105) = (   0.4190476   0.4382406   0.0000000), wk =   0.0047393
        k(  106) = (   0.4166667   0.4426395   0.0000000), wk =   0.0047393
        k(  107) = (   0.4142857   0.4470384   0.0000000), wk =   0.0047393
        k(  108) = (   0.4119048   0.4514373   0.0000000), wk =   0.0047393
        k(  109) = (   0.4095238   0.4558362   0.0000000), wk =   0.0047393
        k(  110) = (   0.4071429   0.4602351   0.0000000), wk =   0.0047393
        k(  111) = (   0.4047619   0.4646340   0.0000000), wk =   0.0047393
        k(  112) = (   0.4023810   0.4690329   0.0000000), wk =   0.0047393
        k(  113) = (   0.4000000   0.4734318   0.0000000), wk =   0.0047393
        k(  114) = (   0.3976190   0.4778307   0.0000000), wk =   0.0047393
        k(  115) = (   0.3952381   0.4822296   0.0000000), wk =   0.0047393
        k(  116) = (   0.3928571   0.4866285   0.0000000), wk =   0.0047393
        k(  117) = (   0.3904762   0.4910274   0.0000000), wk =   0.0047393
        k(  118) = (   0.3880952   0.4954263   0.0000000), wk =   0.0047393
        k(  119) = (   0.3857143   0.4998252   0.0000000), wk =   0.0047393
        k(  120) = (   0.3833333   0.5042241   0.0000000), wk =   0.0047393
        k(  121) = (   0.3809524   0.5086230   0.0000000), wk =   0.0047393
        k(  122) = (   0.3785714   0.5130219   0.0000000), wk =   0.0047393
        k(  123) = (   0.3761905   0.5174208   0.0000000), wk =   0.0047393
        k(  124) = (   0.3738095   0.5218197   0.0000000), wk =   0.0047393
        k(  125) = (   0.3714286   0.5262186   0.0000000), wk =   0.0047393
        k(  126) = (   0.3690476   0.5306175   0.0000000), wk =   0.0047393
        k(  127) = (   0.3666667   0.5350164   0.0000000), wk =   0.0047393
        k(  128) = (   0.3642857   0.5394153   0.0000000), wk =   0.0047393
        k(  129) = (   0.3619048   0.5438142   0.0000000), wk =   0.0047393
        k(  130) = (   0.3595238   0.5482131   0.0000000), wk =   0.0047393
        k(  131) = (   0.3571429   0.5526120   0.0000000), wk =   0.0047393
        k(  132) = (   0.3547619   0.5570109   0.0000000), wk =   0.0047393
        k(  133) = (   0.3523810   0.5614098   0.0000000), wk =   0.0047393
        k(  134) = (   0.3500000   0.5658087   0.0000000), wk =   0.0047393
        k(  135) = (   0.3476190   0.5702076   0.0000000), wk =   0.0047393
        k(  136) = (   0.3452381   0.5746065   0.0000000), wk =   0.0047393
        k(  137) = (   0.3428571   0.5790054   0.0000000), wk =   0.0047393
        k(  138) = (   0.3404762   0.5834043   0.0000000), wk =   0.0047393
        k(  139) = (   0.3380952   0.5878032   0.0000000), wk =   0.0047393
        k(  140) = (   0.3357143   0.5922021   0.0000000), wk =   0.0047393
        k(  141) = (   0.3333333   0.5966010   0.0000000), wk =   0.0047393
        k(  142) = (   0.3285714   0.5880782   0.0000000), wk =   0.0047393
        k(  143) = (   0.3238095   0.5795553   0.0000000), wk =   0.0047393
        k(  144) = (   0.3190476   0.5710324   0.0000000), wk =   0.0047393
        k(  145) = (   0.3142857   0.5625096   0.0000000), wk =   0.0047393
        k(  146) = (   0.3095238   0.5539867   0.0000000), wk =   0.0047393
        k(  147) = (   0.3047619   0.5454638   0.0000000), wk =   0.0047393
        k(  148) = (   0.3000000   0.5369409   0.0000000), wk =   0.0047393
        k(  149) = (   0.2952381   0.5284181   0.0000000), wk =   0.0047393
        k(  150) = (   0.2904762   0.5198952   0.0000000), wk =   0.0047393
        k(  151) = (   0.2857143   0.5113723   0.0000000), wk =   0.0047393
        k(  152) = (   0.2809524   0.5028495   0.0000000), wk =   0.0047393
        k(  153) = (   0.2761905   0.4943266   0.0000000), wk =   0.0047393
        k(  154) = (   0.2714286   0.4858037   0.0000000), wk =   0.0047393
        k(  155) = (   0.2666667   0.4772808   0.0000000), wk =   0.0047393
        k(  156) = (   0.2619048   0.4687580   0.0000000), wk =   0.0047393
        k(  157) = (   0.2571429   0.4602351   0.0000000), wk =   0.0047393
        k(  158) = (   0.2523810   0.4517122   0.0000000), wk =   0.0047393
        k(  159) = (   0.2476190   0.4431894   0.0000000), wk =   0.0047393
        k(  160) = (   0.2428571   0.4346665   0.0000000), wk =   0.0047393
        k(  161) = (   0.2380952   0.4261436   0.0000000), wk =   0.0047393
        k(  162) = (   0.2333333   0.4176207   0.0000000), wk =   0.0047393
        k(  163) = (   0.2285714   0.4090979   0.0000000), wk =   0.0047393
        k(  164) = (   0.2238095   0.4005750   0.0000000), wk =   0.0047393
        k(  165) = (   0.2190476   0.3920521   0.0000000), wk =   0.0047393
        k(  166) = (   0.2142857   0.3835292   0.0000000), wk =   0.0047393
        k(  167) = (   0.2095238   0.3750064   0.0000000), wk =   0.0047393
        k(  168) = (   0.2047619   0.3664835   0.0000000), wk =   0.0047393
        k(  169) = (   0.2000000   0.3579606   0.0000000), wk =   0.0047393
        k(  170) = (   0.1952381   0.3494378   0.0000000), wk =   0.0047393
        k(  171) = (   0.1904762   0.3409149   0.0000000), wk =   0.0047393
        k(  172) = (   0.1857143   0.3323920   0.0000000), wk =   0.0047393
        k(  173) = (   0.1809524   0.3238691   0.0000000), wk =   0.0047393
        k(  174) = (   0.1761905   0.3153463   0.0000000), wk =   0.0047393
        k(  175) = (   0.1714286   0.3068234   0.0000000), wk =   0.0047393
        k(  176) = (   0.1666667   0.2983005   0.0000000), wk =   0.0047393
        k(  177) = (   0.1619048   0.2897777   0.0000000), wk =   0.0047393
        k(  178) = (   0.1571429   0.2812548   0.0000000), wk =   0.0047393
        k(  179) = (   0.1523810   0.2727319   0.0000000), wk =   0.0047393
        k(  180) = (   0.1476190   0.2642090   0.0000000), wk =   0.0047393
        k(  181) = (   0.1428571   0.2556862   0.0000000), wk =   0.0047393
        k(  182) = (   0.1380952   0.2471633   0.0000000), wk =   0.0047393
        k(  183) = (   0.1333333   0.2386404   0.0000000), wk =   0.0047393
        k(  184) = (   0.1285714   0.2301175   0.0000000), wk =   0.0047393
        k(  185) = (   0.1238095   0.2215947   0.0000000), wk =   0.0047393
        k(  186) = (   0.1190476   0.2130718   0.0000000), wk =   0.0047393
        k(  187) = (   0.1142857   0.2045489   0.0000000), wk =   0.0047393
        k(  188) = (   0.1095238   0.1960261   0.0000000), wk =   0.0047393
        k(  189) = (   0.1047619   0.1875032   0.0000000), wk =   0.0047393
        k(  190) = (   0.1000000   0.1789803   0.0000000), wk =   0.0047393
        k(  191) = (   0.0952381   0.1704574   0.0000000), wk =   0.0047393
        k(  192) = (   0.0904762   0.1619346   0.0000000), wk =   0.0047393
        k(  193) = (   0.0857143   0.1534117   0.0000000), wk =   0.0047393
        k(  194) = (   0.0809524   0.1448888   0.0000000), wk =   0.0047393
        k(  195) = (   0.0761905   0.1363660   0.0000000), wk =   0.0047393
        k(  196) = (   0.0714286   0.1278431   0.0000000), wk =   0.0047393
        k(  197) = (   0.0666667   0.1193202   0.0000000), wk =   0.0047393
        k(  198) = (   0.0619048   0.1107973   0.0000000), wk =   0.0047393
        k(  199) = (   0.0571429   0.1022745   0.0000000), wk =   0.0047393
        k(  200) = (   0.0523810   0.0937516   0.0000000), wk =   0.0047393
        k(  201) = (   0.0476190   0.0852287   0.0000000), wk =   0.0047393
        k(  202) = (   0.0428571   0.0767058   0.0000000), wk =   0.0047393
        k(  203) = (   0.0380952   0.0681830   0.0000000), wk =   0.0047393
        k(  204) = (   0.0333333   0.0596601   0.0000000), wk =   0.0047393
        k(  205) = (   0.0285714   0.0511372   0.0000000), wk =   0.0047393
        k(  206) = (   0.0238095   0.0426144   0.0000000), wk =   0.0047393
        k(  207) = (   0.0190476   0.0340915   0.0000000), wk =   0.0047393
        k(  208) = (   0.0142857   0.0255686   0.0000000), wk =   0.0047393
        k(  209) = (   0.0095238   0.0170457   0.0000000), wk =   0.0047393
        k(  210) = (   0.0047619   0.0085229   0.0000000), wk =   0.0047393
        k(  211) = (   0.0000000   0.0000000   0.0000000), wk =   0.0047393

                       cryst. coord.
        k(    1) = (   0.0000000   0.0000000   0.0000000), wk =   0.0047393
        k(    2) = (   0.0071429   0.0000000   0.0000000), wk =   0.0047393
        k(    3) = (   0.0142857   0.0000000   0.0000000), wk =   0.0047393
        k(    4) = (   0.0214286   0.0000000   0.0000000), wk =   0.0047393
        k(    5) = (   0.0285714   0.0000000   0.0000000), wk =   0.0047393
        k(    6) = (   0.0357143   0.0000000   0.0000000), wk =   0.0047393
        k(    7) = (   0.0428571   0.0000000   0.0000000), wk =   0.0047393
        k(    8) = (   0.0500000   0.0000000   0.0000000), wk =   0.0047393
        k(    9) = (   0.0571429   0.0000000   0.0000000), wk =   0.0047393
        k(   10) = (   0.0642857   0.0000000   0.0000000), wk =   0.0047393
        k(   11) = (   0.0714286   0.0000000   0.0000000), wk =   0.0047393
        k(   12) = (   0.0785714  -0.0000000   0.0000000), wk =   0.0047393
        k(   13) = (   0.0857143   0.0000000   0.0000000), wk =   0.0047393
        k(   14) = (   0.0928571   0.0000000   0.0000000), wk =   0.0047393
        k(   15) = (   0.1000000   0.0000000   0.0000000), wk =   0.0047393
        k(   16) = (   0.1071429   0.0000000   0.0000000), wk =   0.0047393
        k(   17) = (   0.1142857   0.0000000   0.0000000), wk =   0.0047393
        k(   18) = (   0.1214286   0.0000000   0.0000000), wk =   0.0047393
        k(   19) = (   0.1285714   0.0000000   0.0000000), wk =   0.0047393
        k(   20) = (   0.1357143   0.0000000   0.0000000), wk =   0.0047393
        k(   21) = (   0.1428571   0.0000000   0.0000000), wk =   0.0047393
        k(   22) = (   0.1500000  -0.0000000   0.0000000), wk =   0.0047393
        k(   23) = (   0.1571429  -0.0000000   0.0000000), wk =   0.0047393
        k(   24) = (   0.1642857   0.0000000   0.0000000), wk =   0.0047393
        k(   25) = (   0.1714286   0.0000000   0.0000000), wk =   0.0047393
        k(   26) = (   0.1785714   0.0000000   0.0000000), wk =   0.0047393
        k(   27) = (   0.1857143   0.0000000   0.0000000), wk =   0.0047393
        k(   28) = (   0.1928571   0.0000000   0.0000000), wk =   0.0047393
        k(   29) = (   0.2000000   0.0000000   0.0000000), wk =   0.0047393
        k(   30) = (   0.2071429   0.0000000   0.0000000), wk =   0.0047393
        k(   31) = (   0.2142857   0.0000000   0.0000000), wk =   0.0047393
        k(   32) = (   0.2214286   0.0000000   0.0000000), wk =   0.0047393
        k(   33) = (   0.2285714   0.0000000   0.0000000), wk =   0.0047393
        k(   34) = (   0.2357143   0.0000000   0.0000000), wk =   0.0047393
        k(   35) = (   0.2428571   0.0000000   0.0000000), wk =   0.0047393
        k(   36) = (   0.2500000   0.0000000   0.0000000), wk =   0.0047393
        k(   37) = (   0.2571429   0.0000000   0.0000000), wk =   0.0047393
        k(   38) = (   0.2642857  -0.0000000   0.0000000), wk =   0.0047393
        k(   39) = (   0.2714286   0.0000000   0.0000000), wk =   0.0047393
        k(   40) = (   0.2785714  -0.0000000   0.0000000), wk =   0.0047393
        k(   41) = (   0.2857143   0.0000000   0.0000000), wk =   0.0047393
        k(   42) = (   0.2928571   0.0000000   0.0000000), wk =   0.0047393
        k(   43) = (   0.3000000  -0.0000000   0.0000000), wk =   0.0047393
        k(   44) = (   0.3071429   0.0000000   0.0000000), wk =   0.0047393
        k(   45) = (   0.3142857  -0.0000000   0.0000000), wk =   0.0047393
        k(   46) = (   0.3214286   0.0000000   0.0000000), wk =   0.0047393
        k(   47) = (   0.3285714   0.0000000   0.0000000), wk =   0.0047393
        k(   48) = (   0.3357143   0.0000000   0.0000000), wk =   0.0047393
        k(   49) = (   0.3428571   0.0000000   0.0000000), wk =   0.0047393
        k(   50) = (   0.3500000  -0.0000000   0.0000000), wk =   0.0047393
        k(   51) = (   0.3571429   0.0000000   0.0000000), wk =   0.0047393
        k(   52) = (   0.3642857   0.0000000   0.0000000), wk =   0.0047393
        k(   53) = (   0.3714286   0.0000000   0.0000000), wk =   0.0047393
        k(   54) = (   0.3785714   0.0000000   0.0000000), wk =   0.0047393
        k(   55) = (   0.3857143   0.0000000   0.0000000), wk =   0.0047393
        k(   56) = (   0.3928571   0.0000000   0.0000000), wk =   0.0047393
        k(   57) = (   0.4000000   0.0000000   0.0000000), wk =   0.0047393
        k(   58) = (   0.4071429   0.0000000   0.0000000), wk =   0.0047393
        k(   59) = (   0.4142857   0.0000000   0.0000000), wk =   0.0047393
        k(   60) = (   0.4214286   0.0000000   0.0000000), wk =   0.0047393
        k(   61) = (   0.4285714   0.0000000   0.0000000), wk =   0.0047393
        k(   62) = (   0.4357143   0.0000000   0.0000000), wk =   0.0047393
        k(   63) = (   0.4428571   0.0000000   0.0000000), wk =   0.0047393
        k(   64) = (   0.4500000   0.0000000   0.0000000), wk =   0.0047393
        k(   65) = (   0.4571429   0.0000000   0.0000000), wk =   0.0047393
        k(   66) = (   0.4642857  -0.0000000   0.0000000), wk =   0.0047393
        k(   67) = (   0.4714286   0.0000000   0.0000000), wk =   0.0047393
        k(   68) = (   0.4785714   0.0000000   0.0000000), wk =   0.0047393
        k(   69) = (   0.4857143   0.0000000   0.0000000), wk =   0.0047393
        k(   70) = (   0.4928571   0.0000000   0.0000000), wk =   0.0047393
        k(   71) = (   0.5000000   0.0000000   0.0000000), wk =   0.0047393
        k(   72) = (   0.4976190   0.0047619   0.0000000), wk =   0.0047393
        k(   73) = (   0.4952381   0.0095238   0.0000000), wk =   0.0047393
        k(   74) = (   0.4928571   0.0142857   0.0000000), wk =   0.0047393
        k(   75) = (   0.4904762   0.0190476   0.0000000), wk =   0.0047393
        k(   76) = (   0.4880952   0.0238095   0.0000000), wk =   0.0047393
        k(   77) = (   0.4857143   0.0285714   0.0000000), wk =   0.0047393
        k(   78) = (   0.4833333   0.0333333   0.0000000), wk =   0.0047393
        k(   79) = (   0.4809524   0.0380952   0.0000000), wk =   0.0047393
        k(   80) = (   0.4785714   0.0428571   0.0000000), wk =   0.0047393
        k(   81) = (   0.4761905   0.0476190   0.0000000), wk =   0.0047393
        k(   82) = (   0.4738095   0.0523810   0.0000000), wk =   0.0047393
        k(   83) = (   0.4714286   0.0571429   0.0000000), wk =   0.0047393
        k(   84) = (   0.4690476   0.0619048   0.0000000), wk =   0.0047393
        k(   85) = (   0.4666667   0.0666667   0.0000000), wk =   0.0047393
        k(   86) = (   0.4642857   0.0714286   0.0000000), wk =   0.0047393
        k(   87) = (   0.4619048   0.0761905   0.0000000), wk =   0.0047393
        k(   88) = (   0.4595238   0.0809524   0.0000000), wk =   0.0047393
        k(   89) = (   0.4571429   0.0857143   0.0000000), wk =   0.0047393
        k(   90) = (   0.4547619   0.0904762   0.0000000), wk =   0.0047393
        k(   91) = (   0.4523810   0.0952381   0.0000000), wk =   0.0047393
        k(   92) = (   0.4500000   0.1000000   0.0000000), wk =   0.0047393
        k(   93) = (   0.4476190   0.1047619   0.0000000), wk =   0.0047393
        k(   94) = (   0.4452381   0.1095238   0.0000000), wk =   0.0047393
        k(   95) = (   0.4428571   0.1142857   0.0000000), wk =   0.0047393
        k(   96) = (   0.4404762   0.1190476   0.0000000), wk =   0.0047393
        k(   97) = (   0.4380952   0.1238095   0.0000000), wk =   0.0047393
        k(   98) = (   0.4357143   0.1285714   0.0000000), wk =   0.0047393
        k(   99) = (   0.4333333   0.1333333   0.0000000), wk =   0.0047393
        k(  100) = (   0.4309524   0.1380952   0.0000000), wk =   0.0047393
        k(  101) = (   0.4285714   0.1428571   0.0000000), wk =   0.0047393
        k(  102) = (   0.4261905   0.1476190   0.0000000), wk =   0.0047393
        k(  103) = (   0.4238095   0.1523810   0.0000000), wk =   0.0047393
        k(  104) = (   0.4214286   0.1571429   0.0000000), wk =   0.0047393
        k(  105) = (   0.4190476   0.1619048   0.0000000), wk =   0.0047393
        k(  106) = (   0.4166667   0.1666667   0.0000000), wk =   0.0047393
        k(  107) = (   0.4142857   0.1714286   0.0000000), wk =   0.0047393
        k(  108) = (   0.4119048   0.1761905   0.0000000), wk =   0.0047393
        k(  109) = (   0.4095238   0.1809524   0.0000000), wk =   0.0047393
        k(  110) = (   0.4071429   0.1857143   0.0000000), wk =   0.0047393
        k(  111) = (   0.4047619   0.1904762   0.0000000), wk =   0.0047393
        k(  112) = (   0.4023810   0.1952381   0.0000000), wk =   0.0047393
        k(  113) = (   0.4000000   0.2000000   0.0000000), wk =   0.0047393
        k(  114) = (   0.3976190   0.2047619   0.0000000), wk =   0.0047393
        k(  115) = (   0.3952381   0.2095238   0.0000000), wk =   0.0047393
        k(  116) = (   0.3928571   0.2142857   0.0000000), wk =   0.0047393
        k(  117) = (   0.3904762   0.2190476   0.0000000), wk =   0.0047393
        k(  118) = (   0.3880952   0.2238095   0.0000000), wk =   0.0047393
        k(  119) = (   0.3857143   0.2285714   0.0000000), wk =   0.0047393
        k(  120) = (   0.3833333   0.2333333   0.0000000), wk =   0.0047393
        k(  121) = (   0.3809524   0.2380952   0.0000000), wk =   0.0047393
        k(  122) = (   0.3785714   0.2428571   0.0000000), wk =   0.0047393
        k(  123) = (   0.3761905   0.2476190   0.0000000), wk =   0.0047393
        k(  124) = (   0.3738095   0.2523810   0.0000000), wk =   0.0047393
        k(  125) = (   0.3714286   0.2571429   0.0000000), wk =   0.0047393
        k(  126) = (   0.3690476   0.2619048   0.0000000), wk =   0.0047393
        k(  127) = (   0.3666667   0.2666667   0.0000000), wk =   0.0047393
        k(  128) = (   0.3642857   0.2714286   0.0000000), wk =   0.0047393
        k(  129) = (   0.3619048   0.2761905   0.0000000), wk =   0.0047393
        k(  130) = (   0.3595238   0.2809524   0.0000000), wk =   0.0047393
        k(  131) = (   0.3571429   0.2857143   0.0000000), wk =   0.0047393
        k(  132) = (   0.3547619   0.2904762   0.0000000), wk =   0.0047393
        k(  133) = (   0.3523810   0.2952381   0.0000000), wk =   0.0047393
        k(  134) = (   0.3500000   0.3000000   0.0000000), wk =   0.0047393
        k(  135) = (   0.3476190   0.3047619   0.0000000), wk =   0.0047393
        k(  136) = (   0.3452381   0.3095238   0.0000000), wk =   0.0047393
        k(  137) = (   0.3428571   0.3142857   0.0000000), wk =   0.0047393
        k(  138) = (   0.3404762   0.3190476   0.0000000), wk =   0.0047393
        k(  139) = (   0.3380952   0.3238095   0.0000000), wk =   0.0047393
        k(  140) = (   0.3357143   0.3285714   0.0000000), wk =   0.0047393
        k(  141) = (   0.3333333   0.3333333   0.0000000), wk =   0.0047393
        k(  142) = (   0.3285714   0.3285714   0.0000000), wk =   0.0047393
        k(  143) = (   0.3238095   0.3238095   0.0000000), wk =   0.0047393
        k(  144) = (   0.3190476   0.3190476   0.0000000), wk =   0.0047393
        k(  145) = (   0.3142857   0.3142857   0.0000000), wk =   0.0047393
        k(  146) = (   0.3095238   0.3095238   0.0000000), wk =   0.0047393
        k(  147) = (   0.3047619   0.3047619   0.0000000), wk =   0.0047393
        k(  148) = (   0.3000000   0.3000000   0.0000000), wk =   0.0047393
        k(  149) = (   0.2952381   0.2952381   0.0000000), wk =   0.0047393
        k(  150) = (   0.2904762   0.2904762   0.0000000), wk =   0.0047393
        k(  151) = (   0.2857143   0.2857143   0.0000000), wk =   0.0047393
        k(  152) = (   0.2809524   0.2809524   0.0000000), wk =   0.0047393
        k(  153) = (   0.2761905   0.2761905   0.0000000), wk =   0.0047393
        k(  154) = (   0.2714286   0.2714286   0.0000000), wk =   0.0047393
        k(  155) = (   0.2666667   0.2666667   0.0000000), wk =   0.0047393
        k(  156) = (   0.2619048   0.2619048   0.0000000), wk =   0.0047393
        k(  157) = (   0.2571429   0.2571429   0.0000000), wk =   0.0047393
        k(  158) = (   0.2523810   0.2523810   0.0000000), wk =   0.0047393
        k(  159) = (   0.2476190   0.2476190   0.0000000), wk =   0.0047393
        k(  160) = (   0.2428571   0.2428571   0.0000000), wk =   0.0047393
        k(  161) = (   0.2380952   0.2380952   0.0000000), wk =   0.0047393
        k(  162) = (   0.2333333   0.2333333   0.0000000), wk =   0.0047393
        k(  163) = (   0.2285714   0.2285714   0.0000000), wk =   0.0047393
        k(  164) = (   0.2238095   0.2238095   0.0000000), wk =   0.0047393
        k(  165) = (   0.2190476   0.2190476   0.0000000), wk =   0.0047393
        k(  166) = (   0.2142857   0.2142857   0.0000000), wk =   0.0047393
        k(  167) = (   0.2095238   0.2095238   0.0000000), wk =   0.0047393
        k(  168) = (   0.2047619   0.2047619   0.0000000), wk =   0.0047393
        k(  169) = (   0.2000000   0.2000000   0.0000000), wk =   0.0047393
        k(  170) = (   0.1952381   0.1952381   0.0000000), wk =   0.0047393
        k(  171) = (   0.1904762   0.1904762   0.0000000), wk =   0.0047393
        k(  172) = (   0.1857143   0.1857143   0.0000000), wk =   0.0047393
        k(  173) = (   0.1809524   0.1809524   0.0000000), wk =   0.0047393
        k(  174) = (   0.1761905   0.1761905   0.0000000), wk =   0.0047393
        k(  175) = (   0.1714286   0.1714286   0.0000000), wk =   0.0047393
        k(  176) = (   0.1666667   0.1666667   0.0000000), wk =   0.0047393
        k(  177) = (   0.1619048   0.1619048   0.0000000), wk =   0.0047393
        k(  178) = (   0.1571429   0.1571429   0.0000000), wk =   0.0047393
        k(  179) = (   0.1523810   0.1523810   0.0000000), wk =   0.0047393
        k(  180) = (   0.1476190   0.1476190   0.0000000), wk =   0.0047393
        k(  181) = (   0.1428571   0.1428571   0.0000000), wk =   0.0047393
        k(  182) = (   0.1380952   0.1380952   0.0000000), wk =   0.0047393
        k(  183) = (   0.1333333   0.1333333   0.0000000), wk =   0.0047393
        k(  184) = (   0.1285714   0.1285714   0.0000000), wk =   0.0047393
        k(  185) = (   0.1238095   0.1238095   0.0000000), wk =   0.0047393
        k(  186) = (   0.1190476   0.1190476   0.0000000), wk =   0.0047393
        k(  187) = (   0.1142857   0.1142857   0.0000000), wk =   0.0047393
        k(  188) = (   0.1095238   0.1095238   0.0000000), wk =   0.0047393
        k(  189) = (   0.1047619   0.1047619   0.0000000), wk =   0.0047393
        k(  190) = (   0.1000000   0.1000000   0.0000000), wk =   0.0047393
        k(  191) = (   0.0952381   0.0952381   0.0000000), wk =   0.0047393
        k(  192) = (   0.0904762   0.0904762   0.0000000), wk =   0.0047393
        k(  193) = (   0.0857143   0.0857143   0.0000000), wk =   0.0047393
        k(  194) = (   0.0809524   0.0809524   0.0000000), wk =   0.0047393
        k(  195) = (   0.0761905   0.0761905   0.0000000), wk =   0.0047393
        k(  196) = (   0.0714286   0.0714286   0.0000000), wk =   0.0047393
        k(  197) = (   0.0666667   0.0666667   0.0000000), wk =   0.0047393
        k(  198) = (   0.0619048   0.0619048   0.0000000), wk =   0.0047393
        k(  199) = (   0.0571429   0.0571429   0.0000000), wk =   0.0047393
        k(  200) = (   0.0523810   0.0523810   0.0000000), wk =   0.0047393
        k(  201) = (   0.0476190   0.0476190   0.0000000), wk =   0.0047393
        k(  202) = (   0.0428571   0.0428571   0.0000000), wk =   0.0047393
        k(  203) = (   0.0380952   0.0380952   0.0000000), wk =   0.0047393
        k(  204) = (   0.0333333   0.0333333   0.0000000), wk =   0.0047393
        k(  205) = (   0.0285714   0.0285714   0.0000000), wk =   0.0047393
        k(  206) = (   0.0238095   0.0238095   0.0000000), wk =   0.0047393
        k(  207) = (   0.0190476   0.0190476   0.0000000), wk =   0.0047393
        k(  208) = (   0.0142857   0.0142857   0.0000000), wk =   0.0047393
        k(  209) = (   0.0095238   0.0095238   0.0000000), wk =   0.0047393
        k(  210) = (   0.0047619   0.0047619   0.0000000), wk =   0.0047393
        k(  211) = (   0.0000000   0.0000000   0.0000000), wk =   0.0047393

     Dense  grid:   477063 G-vectors     FFT dimensions: (  64,  60, 300)

     Smooth grid:   120743 G-vectors     FFT dimensions: (  40,  40, 192)

     Dynamical RAM for                 wfc:       1.92 MB

     Dynamical RAM for     wfc (w. buffer):       1.92 MB

     Dynamical RAM for           str. fact:       0.61 MB

     Dynamical RAM for           local pot:       0.00 MB

     Dynamical RAM for          nlocal pot:       1.63 MB

     Dynamical RAM for                qrad:       9.40 MB

     Dynamical RAM for          rho,v,vnew:       8.21 MB

     Dynamical RAM for           G-vectors:       1.18 MB

     Dynamical RAM for          h,s,v(r/c):       1.83 MB

     Dynamical RAM for          <psi|beta>:       0.52 MB

     Dynamical RAM for                 psi:       3.83 MB

     Dynamical RAM for                hpsi:       3.83 MB

     Dynamical RAM for                spsi:       3.83 MB

     Dynamical RAM for      wfcinit/wfcrot:       3.10 MB

     Dynamical RAM for           addusdens:     185.99 MB

     Estimated static dynamical RAM per process >      26.90 MB

     Estimated max dynamical RAM per process >     212.88 MB

     Estimated total dynamical RAM >       4.99 GB

     The potential is recalculated from file :
     tmp/Sb2Te3-uatsx-c6-soc-5.0.save/charge-density


     negative rho (up, down):  4.316E-06 0.000E+00
     Starting wfcs are   40 randomized atomic wfcs +   60 random wfcs

     Band Structure Calculation
     Davidson diagonalization with overlap

     Computing kpt #:     1  of   211
     total cpu time spent up to now is        7.8 secs

     Computing kpt #:     2  of   211
     total cpu time spent up to now is       12.6 secs

     Computing kpt #:     3  of   211
     total cpu time spent up to now is       17.3 secs

     Computing kpt #:     4  of   211
     total cpu time spent up to now is       22.1 secs

     Computing kpt #:     5  of   211
     total cpu time spent up to now is       26.8 secs

     Computing kpt #:     6  of   211
     total cpu time spent up to now is       31.5 secs

     Computing kpt #:     7  of   211
     total cpu time spent up to now is       36.7 secs

     Computing kpt #:     8  of   211
     total cpu time spent up to now is       41.9 secs

     Computing kpt #:     9  of   211
     total cpu time spent up to now is       48.3 secs

     Computing kpt #:    10  of   211
     total cpu time spent up to now is       54.1 secs

     Computing kpt #:    11  of   211
     total cpu time spent up to now is       59.2 secs

     Computing kpt #:    12  of   211
     total cpu time spent up to now is       64.8 secs

     Computing kpt #:    13  of   211
     total cpu time spent up to now is       69.7 secs

     Computing kpt #:    14  of   211
     total cpu time spent up to now is       74.8 secs

     Computing kpt #:    15  of   211
     total cpu time spent up to now is       79.7 secs

     Computing kpt #:    16  of   211
     total cpu time spent up to now is       85.1 secs

     Computing kpt #:    17  of   211
     total cpu time spent up to now is       90.0 secs

     Computing kpt #:    18  of   211
     total cpu time spent up to now is       94.9 secs

     Computing kpt #:    19  of   211
     total cpu time spent up to now is       99.7 secs

     Computing kpt #:    20  of   211
     total cpu time spent up to now is      104.5 secs

     Computing kpt #:    21  of   211
     total cpu time spent up to now is      109.4 secs

     Computing kpt #:    22  of   211
     total cpu time spent up to now is      114.3 secs

     Computing kpt #:    23  of   211
     total cpu time spent up to now is      119.1 secs

     Computing kpt #:    24  of   211
     total cpu time spent up to now is      124.0 secs

     Computing kpt #:    25  of   211
     total cpu time spent up to now is      129.1 secs

     Computing kpt #:    26  of   211
     total cpu time spent up to now is      134.4 secs

     Computing kpt #:    27  of   211
     total cpu time spent up to now is      139.6 secs

     Computing kpt #:    28  of   211
     total cpu time spent up to now is      144.9 secs

     Computing kpt #:    29  of   211
     total cpu time spent up to now is      150.1 secs

     Computing kpt #:    30  of   211
     total cpu time spent up to now is      155.4 secs

     Computing kpt #:    31  of   211
     total cpu time spent up to now is      160.7 secs

     Computing kpt #:    32  of   211
     total cpu time spent up to now is      165.8 secs

     Computing kpt #:    33  of   211
     total cpu time spent up to now is      170.8 secs

     Computing kpt #:    34  of   211
     total cpu time spent up to now is      175.9 secs

     Computing kpt #:    35  of   211
     total cpu time spent up to now is      181.4 secs

     Computing kpt #:    36  of   211
     total cpu time spent up to now is      186.5 secs

     Computing kpt #:    37  of   211
     total cpu time spent up to now is      191.5 secs

     Computing kpt #:    38  of   211
     total cpu time spent up to now is      196.6 secs

     Computing kpt #:    39  of   211
     total cpu time spent up to now is      202.1 secs

     Computing kpt #:    40  of   211
     total cpu time spent up to now is      207.4 secs

     Computing kpt #:    41  of   211
     total cpu time spent up to now is      212.9 secs

     Computing kpt #:    42  of   211
     total cpu time spent up to now is      218.3 secs

     Computing kpt #:    43  of   211
     total cpu time spent up to now is      223.8 secs

     Computing kpt #:    44  of   211
     total cpu time spent up to now is      229.2 secs

     Computing kpt #:    45  of   211
     total cpu time spent up to now is      234.8 secs

     Computing kpt #:    46  of   211
     total cpu time spent up to now is      240.6 secs

     Computing kpt #:    47  of   211
     total cpu time spent up to now is      246.2 secs

     Computing kpt #:    48  of   211
     total cpu time spent up to now is      251.8 secs

     Computing kpt #:    49  of   211
     total cpu time spent up to now is      257.4 secs

     Computing kpt #:    50  of   211
     total cpu time spent up to now is      263.1 secs

     Computing kpt #:    51  of   211
     total cpu time spent up to now is      268.9 secs

     Computing kpt #:    52  of   211
     c_bands:  2 eigenvalues not converged
     total cpu time spent up to now is      275.9 secs

     Computing kpt #:    53  of   211
     c_bands:  2 eigenvalues not converged
     total cpu time spent up to now is      283.0 secs

     Computing kpt #:    54  of   211
     total cpu time spent up to now is      289.5 secs

     Computing kpt #:    55  of   211
     c_bands:  1 eigenvalues not converged
     total cpu time spent up to now is      296.6 secs

     Computing kpt #:    56  of   211
     c_bands:  2 eigenvalues not converged
     total cpu time spent up to now is      303.8 secs

     Computing kpt #:    57  of   211
     total cpu time spent up to now is      310.8 secs

     Computing kpt #:    58  of   211
     total cpu time spent up to now is      317.4 secs

     Computing kpt #:    59  of   211
     total cpu time spent up to now is      323.9 secs

     Computing kpt #:    60  of   211
     total cpu time spent up to now is      330.5 secs

     Computing kpt #:    61  of   211
     total cpu time spent up to now is      337.3 secs

     Computing kpt #:    62  of   211
     total cpu time spent up to now is      344.0 secs

     Computing kpt #:    63  of   211
     total cpu time spent up to now is      350.5 secs

     Computing kpt #:    64  of   211
     total cpu time spent up to now is      357.1 secs

     Computing kpt #:    65  of   211
     total cpu time spent up to now is      364.0 secs

     Computing kpt #:    66  of   211
     total cpu time spent up to now is      371.1 secs

     Computing kpt #:    67  of   211
     total cpu time spent up to now is      378.2 secs

     Computing kpt #:    68  of   211
     total cpu time spent up to now is      385.3 secs

     Computing kpt #:    69  of   211
     total cpu time spent up to now is      392.3 secs

     Computing kpt #:    70  of   211
     total cpu time spent up to now is      399.4 secs

     Computing kpt #:    71  of   211
     total cpu time spent up to now is      406.0 secs

     Computing kpt #:    72  of   211
     total cpu time spent up to now is      412.9 secs

     Computing kpt #:    73  of   211
     total cpu time spent up to now is      420.4 secs

     Computing kpt #:    74  of   211
     c_bands:  2 eigenvalues not converged
     total cpu time spent up to now is      428.1 secs

     Computing kpt #:    75  of   211
     c_bands:  2 eigenvalues not converged
     total cpu time spent up to now is      435.9 secs

     Computing kpt #:    76  of   211
     total cpu time spent up to now is      443.4 secs

     Computing kpt #:    77  of   211
     total cpu time spent up to now is      450.9 secs

     Computing kpt #:    78  of   211
     total cpu time spent up to now is      458.1 secs

     Computing kpt #:    79  of   211
     total cpu time spent up to now is      465.2 secs

     Computing kpt #:    80  of   211
     total cpu time spent up to now is      472.3 secs

     Computing kpt #:    81  of   211
     total cpu time spent up to now is      479.5 secs

     Computing kpt #:    82  of   211
     total cpu time spent up to now is      486.3 secs

     Computing kpt #:    83  of   211
     total cpu time spent up to now is      493.3 secs

     Computing kpt #:    84  of   211
     total cpu time spent up to now is      500.4 secs

     Computing kpt #:    85  of   211
     total cpu time spent up to now is      507.3 secs

     Computing kpt #:    86  of   211
     total cpu time spent up to now is      514.4 secs

     Computing kpt #:    87  of   211
     total cpu time spent up to now is      521.5 secs

     Computing kpt #:    88  of   211
     total cpu time spent up to now is      528.7 secs

     Computing kpt #:    89  of   211
     total cpu time spent up to now is      535.7 secs

     Computing kpt #:    90  of   211
     total cpu time spent up to now is      542.8 secs

     Computing kpt #:    91  of   211
     total cpu time spent up to now is      549.9 secs

     Computing kpt #:    92  of   211
     total cpu time spent up to now is      557.0 secs

     Computing kpt #:    93  of   211
     c_bands:  2 eigenvalues not converged
     total cpu time spent up to now is      565.0 secs

     Computing kpt #:    94  of   211
     total cpu time spent up to now is      572.3 secs

     Computing kpt #:    95  of   211
     total cpu time spent up to now is      579.8 secs

     Computing kpt #:    96  of   211
     total cpu time spent up to now is      587.3 secs

     Computing kpt #:    97  of   211
     total cpu time spent up to now is      594.8 secs

     Computing kpt #:    98  of   211
     total cpu time spent up to now is      602.1 secs

     Computing kpt #:    99  of   211
     total cpu time spent up to now is      609.4 secs

     Computing kpt #:   100  of   211
     total cpu time spent up to now is      616.4 secs

     Computing kpt #:   101  of   211
     total cpu time spent up to now is      623.8 secs

     Computing kpt #:   102  of   211
     total cpu time spent up to now is      630.7 secs

     Computing kpt #:   103  of   211
     total cpu time spent up to now is      637.2 secs

     Computing kpt #:   104  of   211
     total cpu time spent up to now is      643.8 secs

     Computing kpt #:   105  of   211
     total cpu time spent up to now is      650.5 secs

     Computing kpt #:   106  of   211
     total cpu time spent up to now is      657.1 secs

     Computing kpt #:   107  of   211
     total cpu time spent up to now is      663.4 secs

     Computing kpt #:   108  of   211
     total cpu time spent up to now is      669.9 secs

     Computing kpt #:   109  of   211
     total cpu time spent up to now is      676.5 secs

     Computing kpt #:   110  of   211
     total cpu time spent up to now is      682.7 secs

     Computing kpt #:   111  of   211
     total cpu time spent up to now is      688.9 secs

     Computing kpt #:   112  of   211
     total cpu time spent up to now is      694.9 secs

     Computing kpt #:   113  of   211
     total cpu time spent up to now is      700.9 secs

     Computing kpt #:   114  of   211
     total cpu time spent up to now is      706.8 secs

     Computing kpt #:   115  of   211
     total cpu time spent up to now is      713.1 secs

     Computing kpt #:   116  of   211
     total cpu time spent up to now is      719.5 secs

     Computing kpt #:   117  of   211
     total cpu time spent up to now is      725.8 secs

     Computing kpt #:   118  of   211
     c_bands:  1 eigenvalues not converged
     total cpu time spent up to now is      733.0 secs

     Computing kpt #:   119  of   211
     total cpu time spent up to now is      739.8 secs

     Computing kpt #:   120  of   211
     total cpu time spent up to now is      746.1 secs

     Computing kpt #:   121  of   211
     c_bands:  2 eigenvalues not converged
     total cpu time spent up to now is      753.1 secs

     Computing kpt #:   122  of   211
     total cpu time spent up to now is      758.9 secs

     Computing kpt #:   123  of   211
     total cpu time spent up to now is      765.3 secs

     Computing kpt #:   124  of   211
     total cpu time spent up to now is      771.1 secs

     Computing kpt #:   125  of   211
     total cpu time spent up to now is      777.6 secs

     Computing kpt #:   126  of   211
     total cpu time spent up to now is      784.0 secs

     Computing kpt #:   127  of   211
     c_bands:  2 eigenvalues not converged
     total cpu time spent up to now is      790.9 secs

     Computing kpt #:   128  of   211
     total cpu time spent up to now is      797.2 secs

     Computing kpt #:   129  of   211
     total cpu time spent up to now is      803.3 secs

     Computing kpt #:   130  of   211
     total cpu time spent up to now is      809.4 secs

     Computing kpt #:   131  of   211
     c_bands:  2 eigenvalues not converged
     total cpu time spent up to now is      816.3 secs

     Computing kpt #:   132  of   211
     total cpu time spent up to now is      823.2 secs

     Computing kpt #:   133  of   211
     total cpu time spent up to now is      830.1 secs

     Computing kpt #:   134  of   211
     total cpu time spent up to now is      836.2 secs

     Computing kpt #:   135  of   211
     total cpu time spent up to now is      841.8 secs

     Computing kpt #:   136  of   211
     total cpu time spent up to now is      847.9 secs

     Computing kpt #:   137  of   211
     total cpu time spent up to now is      854.0 secs

     Computing kpt #:   138  of   211
     total cpu time spent up to now is      860.2 secs

     Computing kpt #:   139  of   211
     total cpu time spent up to now is      866.2 secs

     Computing kpt #:   140  of   211
     total cpu time spent up to now is      872.4 secs

     Computing kpt #:   141  of   211
     total cpu time spent up to now is      878.9 secs

     Computing kpt #:   142  of   211
     total cpu time spent up to now is      885.0 secs

     Computing kpt #:   143  of   211
     total cpu time spent up to now is      891.0 secs

     Computing kpt #:   144  of   211
     total cpu time spent up to now is      897.1 secs

     Computing kpt #:   145  of   211
     total cpu time spent up to now is      902.8 secs

     Computing kpt #:   146  of   211
     total cpu time spent up to now is      908.4 secs

     Computing kpt #:   147  of   211
     total cpu time spent up to now is      913.9 secs

     Computing kpt #:   148  of   211
     total cpu time spent up to now is      919.5 secs

     Computing kpt #:   149  of   211
     total cpu time spent up to now is      924.7 secs

     Computing kpt #:   150  of   211
     total cpu time spent up to now is      929.9 secs

     Computing kpt #:   151  of   211
     total cpu time spent up to now is      935.2 secs

     Computing kpt #:   152  of   211
     total cpu time spent up to now is      940.4 secs

     Computing kpt #:   153  of   211
     total cpu time spent up to now is      945.6 secs

     Computing kpt #:   154  of   211
     total cpu time spent up to now is      950.8 secs

     Computing kpt #:   155  of   211
     total cpu time spent up to now is      956.1 secs

     Computing kpt #:   156  of   211
     total cpu time spent up to now is      961.3 secs

     Computing kpt #:   157  of   211
     total cpu time spent up to now is      966.8 secs

     Computing kpt #:   158  of   211
     total cpu time spent up to now is      973.0 secs

     Computing kpt #:   159  of   211
     total cpu time spent up to now is      979.2 secs

     Computing kpt #:   160  of   211
     total cpu time spent up to now is      984.3 secs

     Computing kpt #:   161  of   211
     total cpu time spent up to now is      989.5 secs

     Computing kpt #:   162  of   211
     total cpu time spent up to now is      994.8 secs

     Computing kpt #:   163  of   211
     total cpu time spent up to now is     1000.4 secs

     Computing kpt #:   164  of   211
     total cpu time spent up to now is     1005.6 secs

     Computing kpt #:   165  of   211
     total cpu time spent up to now is     1010.7 secs

     Computing kpt #:   166  of   211
     total cpu time spent up to now is     1015.8 secs

     Computing kpt #:   167  of   211
     total cpu time spent up to now is     1020.9 secs

     Computing kpt #:   168  of   211
     total cpu time spent up to now is     1026.4 secs

     Computing kpt #:   169  of   211
     total cpu time spent up to now is     1032.0 secs

     Computing kpt #:   170  of   211
     total cpu time spent up to now is     1037.5 secs

     Computing kpt #:   171  of   211
     total cpu time spent up to now is     1043.0 secs

     Computing kpt #:   172  of   211
     c_bands:  2 eigenvalues not converged
     total cpu time spent up to now is     1049.8 secs

     Computing kpt #:   173  of   211
     total cpu time spent up to now is     1056.4 secs

     Computing kpt #:   174  of   211
     c_bands:  2 eigenvalues not converged
     total cpu time spent up to now is     1063.2 secs

     Computing kpt #:   175  of   211
     total cpu time spent up to now is     1069.3 secs

     Computing kpt #:   176  of   211
     total cpu time spent up to now is     1075.0 secs

     Computing kpt #:   177  of   211
     total cpu time spent up to now is     1080.5 secs

     Computing kpt #:   178  of   211
     total cpu time spent up to now is     1085.9 secs

     Computing kpt #:   179  of   211
     total cpu time spent up to now is     1091.1 secs

     Computing kpt #:   180  of   211
     total cpu time spent up to now is     1096.2 secs

     Computing kpt #:   181  of   211
     total cpu time spent up to now is     1101.5 secs

     Computing kpt #:   182  of   211
     total cpu time spent up to now is     1106.7 secs

     Computing kpt #:   183  of   211
     total cpu time spent up to now is     1111.8 secs

     Computing kpt #:   184  of   211
     total cpu time spent up to now is     1116.8 secs

     Computing kpt #:   185  of   211
     total cpu time spent up to now is     1121.9 secs

     Computing kpt #:   186  of   211
     total cpu time spent up to now is     1127.0 secs

     Computing kpt #:   187  of   211
     total cpu time spent up to now is     1131.9 secs

     Computing kpt #:   188  of   211
     total cpu time spent up to now is     1137.1 secs

     Computing kpt #:   189  of   211
     total cpu time spent up to now is     1142.2 secs

     Computing kpt #:   190  of   211
     total cpu time spent up to now is     1147.4 secs

     Computing kpt #:   191  of   211
     total cpu time spent up to now is     1152.8 secs

     Computing kpt #:   192  of   211
     total cpu time spent up to now is     1158.1 secs

     Computing kpt #:   193  of   211
     total cpu time spent up to now is     1163.1 secs

     Computing kpt #:   194  of   211
     total cpu time spent up to now is     1167.9 secs

     Computing kpt #:   195  of   211
     total cpu time spent up to now is     1172.9 secs

     Computing kpt #:   196  of   211
     total cpu time spent up to now is     1177.7 secs

     Computing kpt #:   197  of   211
     total cpu time spent up to now is     1182.6 secs

     Computing kpt #:   198  of   211
     total cpu time spent up to now is     1187.5 secs

     Computing kpt #:   199  of   211
     total cpu time spent up to now is     1192.8 secs

     Computing kpt #:   200  of   211
     total cpu time spent up to now is     1198.0 secs

     Computing kpt #:   201  of   211
     total cpu time spent up to now is     1203.2 secs

     Computing kpt #:   202  of   211
     total cpu time spent up to now is     1208.3 secs

     Computing kpt #:   203  of   211
     total cpu time spent up to now is     1213.1 secs

     Computing kpt #:   204  of   211
     total cpu time spent up to now is     1218.2 secs

     Computing kpt #:   205  of   211
     total cpu time spent up to now is     1223.2 secs

     Computing kpt #:   206  of   211
     total cpu time spent up to now is     1228.0 secs

     Computing kpt #:   207  of   211
     total cpu time spent up to now is     1232.6 secs

     Computing kpt #:   208  of   211
     total cpu time spent up to now is     1237.2 secs

     Computing kpt #:   209  of   211
     total cpu time spent up to now is     1241.9 secs

     Computing kpt #:   210  of   211
     total cpu time spent up to now is     1246.6 secs

     Computing kpt #:   211  of   211
     total cpu time spent up to now is     1251.4 secs

     ethr =  3.57E-10,  avg # of iterations = 75.7

     total cpu time spent up to now is     1251.4 secs

     End of band structure calculation

          k = 0.0000 0.0000 0.0000 ( 15117 PWs)   bands (ev):

   -12.6508 -12.6508 -12.1142 -12.1142 -11.0377 -11.0377  -8.3213  -8.3213
    -7.0057  -7.0057  -2.6274  -2.6274  -2.2365  -2.2365  -1.9111  -1.9111
    -1.6890  -1.6890  -1.5616  -1.5616  -1.5187  -1.5187  -1.1951  -1.1951
    -0.9785  -0.9785  -0.7534  -0.7534  -0.1987  -0.1987   0.5242   0.5242
     0.9298   0.9298   1.0778   1.0778   1.8023   1.8023   2.0749   2.0749
     4.1174   4.1174   4.3012   4.3012   4.9708   4.9708   5.1662   5.1662
     5.4512   5.4512   5.8405   5.8405   6.2653   6.2653   6.4731   6.4731
     6.5241   6.5241   6.6176   6.6176   7.2019   7.2019   7.3913   7.3913
     7.6305   7.6305   7.9743   7.9743   7.9814   7.9814   8.4769   8.4769
     8.7705   8.7705   9.2710   9.2710   9.3407   9.3407   9.4965   9.4965
     9.6685   9.6685  10.7425  10.7425  10.8099  10.8099  11.5783  11.5783
    11.8634  11.8634  12.1358  12.1358  12.1993  12.1993  12.4145  12.4145
    12.9458  12.9458  13.3180  13.3180

          k = 0.0071 0.0041 0.0000 ( 15121 PWs)   bands (ev):

   -12.6504 -12.6504 -12.1139 -12.1139 -11.0375 -11.0375  -8.3214  -8.3214
    -7.0065  -7.0065  -2.6283  -2.6283  -2.2429  -2.2428  -1.9101  -1.9099
    -1.6977  -1.6974  -1.5690  -1.5688  -1.5068  -1.5063  -1.1934  -1.1933
    -0.9801  -0.9800  -0.7527  -0.7526  -0.1917  -0.1917   0.5225   0.5226
     0.9224   0.9227   1.0870   1.0873   1.8039   1.8040   2.0746   2.0746
     4.1181   4.1181   4.3012   4.3012   4.9711   4.9711   5.1644   5.1644
     5.4508   5.4508   5.8403   5.8403   6.2678   6.2678   6.4692   6.4693
     6.5284   6.5285   6.6156   6.6156   7.1991   7.1991   7.3990   7.3990
     7.6325   7.6325   7.9699   7.9699   7.9847   7.9848   8.4775   8.4775
     8.7732   8.7733   9.2498   9.2500   9.3490   9.3493   9.5048   9.5049
     9.6763   9.6763  10.7417  10.7417  10.8098  10.8098  11.5688  11.5688
    11.8708  11.8708  12.1228  12.1228  12.2119  12.2119  12.4174  12.4174
    12.9455  12.9455  13.2955  13.2955

          k = 0.0143 0.0082 0.0000 ( 15123 PWs)   bands (ev):

   -12.6492 -12.6492 -12.1128 -12.1128 -11.0369 -11.0369  -8.3218  -8.3218
    -7.0091  -7.0091  -2.6309  -2.6309  -2.2613  -2.2612  -1.9073  -1.9070
    -1.7211  -1.7205  -1.5796  -1.5793  -1.4843  -1.4837  -1.1884  -1.1882
    -0.9848  -0.9847  -0.7495  -0.7494  -0.1716  -0.1714   0.5175   0.5176
     0.9054   0.9058   1.1102   1.1108   1.8087   1.8089   2.0739   2.0739
     4.1203   4.1203   4.3014   4.3014   4.9717   4.9717   5.1592   5.1592
     5.4496   5.4496   5.8400   5.8400   6.2747   6.2747   6.4601   6.4602
     6.5382   6.5383   6.6108   6.6109   7.1918   7.1918   7.4207   7.4208
     7.6384   7.6385   7.9607   7.9608   7.9910   7.9911   8.4797   8.4797
     8.7810   8.7810   9.2090   9.2092   9.3523   9.3526   9.5317   9.5318
     9.6976   9.6977  10.7393  10.7393  10.8099  10.8099  11.5436  11.5436
    11.8883  11.8883  12.0997  12.0997  12.2345  12.2345  12.4269  12.4269
    12.9408  12.9408  13.2477  13.2477

          k = 0.0214 0.0124 0.0000 ( 15119 PWs)   bands (ev):

   -12.6472 -12.6472 -12.1110 -12.1110 -11.0359 -11.0359  -8.3225  -8.3225
    -7.0135  -7.0135  -2.6353  -2.6352  -2.2901  -2.2900  -1.9045  -1.9041
    -1.7539  -1.7532  -1.5880  -1.5876  -1.4624  -1.4616  -1.1808  -1.1805
    -0.9919  -0.9916  -0.7420  -0.7418  -0.1403  -0.1400   0.5090   0.5091
     0.8862   0.8867   1.1404   1.1410   1.8166   1.8168   2.0730   2.0730
     4.1238   4.1238   4.3016   4.3016   4.9727   4.9727   5.1506   5.1506
     5.4478   5.4478   5.8398   5.8398   6.2850   6.2850   6.4489   6.4490
     6.5473   6.5474   6.6077   6.6078   7.1821   7.1821   7.4530   7.4531
     7.6480   7.6480   7.9480   7.9480   7.9998   7.9998   8.4841   8.4841
     8.7922   8.7922   9.1648   9.1650   9.3412   9.3414   9.5744   9.5745
     9.7288   9.7289  10.7348  10.7349  10.8105  10.8105  11.5093  11.5093
    11.9057  11.9057  12.0807  12.0807  12.2561  12.2561  12.4440  12.4440
    12.9206  12.9206  13.2073  13.2073

          k = 0.0286 0.0165 0.0000 ( 15117 PWs)   bands (ev):

   -12.6443 -12.6443 -12.1084 -12.1084 -11.0345 -11.0345  -8.3234  -8.3234
    -7.0196  -7.0196  -2.6414  -2.6413  -2.3274  -2.3273  -1.9035  -1.9030
    -1.7915  -1.7908  -1.5952  -1.5948  -1.4448  -1.4440  -1.1721  -1.1717
    -0.9988  -0.9984  -0.7285  -0.7283  -0.1006  -0.1003   0.4971   0.4973
     0.8694   0.8699   1.1731   1.1738   1.8273   1.8276   2.0722   2.0722
     4.1287   4.1287   4.3019   4.3019   4.9737   4.9737   5.1389   5.1389
     5.4456   5.4456   5.8404   5.8404   6.2970   6.2970   6.4373   6.4373
     6.5497   6.5499   6.6131   6.6132   7.1717   7.1717   7.4924   7.4924
     7.6607   7.6608   7.9324   7.9325   8.0116   8.0117   8.4915   8.4915
     8.8042   8.8042   9.1228   9.1230   9.3214   9.3216   9.6257   9.6259
     9.7665   9.7667  10.7277  10.7277  10.8122  10.8122  11.4710  11.4710
    11.9119  11.9120  12.0731  12.0732  12.2755  12.2755  12.4681  12.4681
    12.8746  12.8746  13.1948  13.1949

          k = 0.0357 0.0206 0.0000 ( 15107 PWs)   bands (ev):

   -12.6407 -12.6407 -12.1052 -12.1052 -11.0326 -11.0326  -8.3246  -8.3246
    -7.0274  -7.0274  -2.6492  -2.6492  -2.3714  -2.3713  -1.9064  -1.9059
    -1.8302  -1.8296  -1.6026  -1.6021  -1.4335  -1.4327  -1.1650  -1.1645
    -1.0013  -1.0009  -0.7088  -0.7086  -0.0552  -0.0549   0.4825   0.4828
     0.8575   0.8579   1.2063   1.2070   1.8404   1.8407   2.0720   2.0721
     4.1350   4.1350   4.3022   4.3022   4.9742   4.9742   5.1247   5.1247
     5.4433   5.4433   5.8421   5.8421   6.3075   6.3075   6.4271   6.4272
     6.5453   6.5454   6.6289   6.6290   7.1615   7.1615   7.5354   7.5354
     7.6761   7.6761   7.9157   7.9157   8.0270   8.0270   8.5025   8.5026
     8.8137   8.8137   9.0869   9.0871   9.2981   9.2982   9.6809   9.6812
     9.8089   9.8091  10.7175  10.7175  10.8157  10.8157  11.4320  11.4320
    11.9025  11.9026  12.0773  12.0774  12.2957  12.2957  12.4955  12.4955
    12.8088  12.8088  13.2101  13.2101

          k = 0.0429 0.0247 0.0000 ( 15117 PWs)   bands (ev):

   -12.6363 -12.6363 -12.1012 -12.1012 -11.0304 -11.0304  -8.3261  -8.3261
    -7.0369  -7.0369  -2.6589  -2.6588  -2.4207  -2.4206  -1.9174  -1.9168
    -1.8651  -1.8649  -1.6112  -1.6106  -1.4291  -1.4284  -1.1616  -1.1611
    -0.9954  -0.9949  -0.6839  -0.6836  -0.0070  -0.0066   0.4666   0.4669
     0.8513   0.8517   1.2386   1.2394   1.8552   1.8556   2.0732   2.0733
     4.1426   4.1426   4.3025   4.3025   4.9736   4.9736   5.1090   5.1090
     5.4412   5.4412   5.8454   5.8454   6.3119   6.3119   6.4221   6.4222
     6.5392   6.5393   6.6514   6.6514   7.1520   7.1521   7.5780   7.5780
     7.6936   7.6936   7.9004   7.9005   8.0462   8.0462   8.5175   8.5175
     8.8163   8.8163   9.0610   9.0611   9.2741   9.2743   9.7372   9.7375
     9.8549   9.8551  10.7041  10.7041  10.8211  10.8211  11.3944  11.3944
    11.8820  11.8821  12.0855  12.0856  12.3198  12.3199  12.5180  12.5180
    12.7410  12.7410  13.2422  13.2422

          k = 0.0500 0.0289 0.0000 ( 15109 PWs)   bands (ev):

   -12.6311 -12.6311 -12.0965 -12.0965 -11.0278 -11.0278  -8.3279  -8.3279
    -7.0481  -7.0481  -2.6705  -2.6705  -2.4739  -2.4737  -1.9431  -1.9422
    -1.8895  -1.8893  -1.6220  -1.6214  -1.4317  -1.4311  -1.1616  -1.1611
    -0.9799  -0.9795  -0.6551  -0.6548   0.0414   0.0418   0.4519   0.4521
     0.8511   0.8514   1.2695   1.2702   1.8708   1.8712   2.0768   2.0769
     4.1515   4.1515   4.3027   4.3027   4.9703   4.9703   5.0935   5.0936
     5.4395   5.4396   5.8506   5.8506   6.3060   6.3060   6.4260   6.4261
     6.5346   6.5347   6.6777   6.6777   7.1437   7.1437   7.6144   7.6144
     7.7139   7.7139   7.8908   7.8908   8.0697   8.0697   8.5364   8.5364
     8.8085   8.8086   9.0482   9.0483   9.2512   9.2513   9.7929   9.7932
     9.9036   9.9038  10.6880  10.6880  10.8286  10.8286  11.3593  11.3593
    11.8560  11.8561  12.0899  12.0900  12.3483  12.3483  12.5181  12.5181
    12.6972  12.6972  13.2809  13.2809

          k = 0.0571 0.0330 0.0000 ( 15111 PWs)   bands (ev):

   -12.6251 -12.6251 -12.0912 -12.0912 -11.0248 -11.0248  -8.3300  -8.3300
    -7.0611  -7.0611  -2.6845  -2.6844  -2.5296  -2.5295  -1.9807  -1.9798
    -1.9055  -1.9050  -1.6359  -1.6353  -1.4405  -1.4400  -1.1621  -1.1616
    -0.9568  -0.9563  -0.6244  -0.6240   0.0869   0.0873   0.4417   0.4419
     0.8564   0.8567   1.2985   1.2993   1.8860   1.8864   2.0838   2.0839
     4.1617   4.1617   4.3027   4.3027   4.9625   4.9625   5.0806   5.0806
     5.4384   5.4384   5.8577   5.8577   6.2907   6.2907   6.4380   6.4380
     6.5325   6.5326   6.7068   6.7069   7.1368   7.1368   7.6368   7.6368
     7.7389   7.7389   7.8918   7.8918   8.0975   8.0976   8.5591   8.5591
     8.7904   8.7905   9.0486   9.0487   9.2304   9.2305   9.8469   9.8472
     9.9545   9.9547  10.6696  10.6696  10.8382  10.8382  11.3276  11.3276
    11.8279  11.8280  12.0857  12.0858  12.3748  12.3749  12.4873  12.4873
    12.6963  12.6963  13.3153  13.3154

          k = 0.0643 0.0371 0.0000 ( 15104 PWs)   bands (ev):

   -12.6183 -12.6183 -12.0851 -12.0851 -11.0215 -11.0215  -8.3324  -8.3324
    -7.0757  -7.0757  -2.7019  -2.7018  -2.5861  -2.5859  -2.0229  -2.0219
    -1.9197  -1.9193  -1.6538  -1.6532  -1.4540  -1.4536  -1.1607  -1.1603
    -0.9287  -0.9283  -0.5936  -0.5933   0.1259   0.1263   0.4404   0.4407
     0.8669   0.8671   1.3256   1.3264   1.8998   1.9003   2.0954   2.0955
     4.1730   4.1730   4.3025   4.3025   4.9485   4.9485   5.0724   5.0724
     5.4380   5.4380   5.8669   5.8669   6.2699   6.2699   6.4544   6.4545
     6.5329   6.5329   6.7382   6.7382   7.1316   7.1317   7.6412   7.6412
     7.7685   7.7685   7.9069   7.9070   8.1296   8.1297   8.5848   8.5848
     8.7659   8.7660   9.0585   9.0586   9.2126   9.2127   9.8984   9.8987
    10.0067  10.0069  10.6500  10.6500  10.8498  10.8498  11.2998  11.2998
    11.7993  11.7993  12.0679  12.0680  12.3762  12.3763  12.4703  12.4704
    12.7212  12.7212  13.2926  13.2927

          k = 0.0714 0.0412 0.0000 ( 15100 PWs)   bands (ev):

   -12.6106 -12.6106 -12.0782 -12.0782 -11.0177 -11.0177  -8.3351  -8.3351
    -7.0919  -7.0919  -2.7256  -2.7254  -2.6396  -2.6393  -2.0669  -2.0660
    -1.9348  -1.9343  -1.6761  -1.6754  -1.4701  -1.4697  -1.1565  -1.1561
    -0.8978  -0.8974  -0.5650  -0.5647   0.1558   0.1562   0.4520   0.4523
     0.8820   0.8821   1.3508   1.3516   1.9116   1.9121   2.1120   2.1122
     4.1854   4.1854   4.3018   4.3019   4.9283   4.9283   5.0696   5.0696
     5.4382   5.4382   5.8781   5.8781   6.2470   6.2470   6.4722   6.4722
     6.5354   6.5354   6.7714   6.7714   7.1286   7.1286   7.6316   7.6316
     7.7990   7.7990   7.9354   7.9355   8.1654   8.1654   8.6116   8.6117
     8.7413   8.7413   9.0739   9.0739   9.1986   9.1987   9.9470   9.9472
    10.0592  10.0594  10.6304  10.6304  10.8632  10.8633  11.2762  11.2763
    11.7711  11.7711  12.0307  12.0308  12.3501  12.3501  12.4918  12.4918
    12.7540  12.7541  13.1909  13.1909

          k = 0.0786 0.0454 0.0000 ( 15102 PWs)   bands (ev):

   -12.6022 -12.6022 -12.0707 -12.0707 -11.0136 -11.0136  -8.3383  -8.3383
    -7.1098  -7.1098  -2.7620  -2.7618  -2.6830  -2.6828  -2.1120  -2.1111
    -1.9512  -1.9507  -1.7028  -1.7021  -1.4870  -1.4866  -1.1497  -1.1494
    -0.8655  -0.8651  -0.5406  -0.5403   0.1766   0.1769   0.4776   0.4779
     0.9010   0.9011   1.3743   1.3750   1.9213   1.9218   2.1338   2.1339
     4.1989   4.1990   4.3006   4.3006   4.9032   4.9032   5.0714   5.0714
     5.4393   5.4393   5.8912   5.8913   6.2240   6.2241   6.4892   6.4893
     6.5398   6.5399   6.8061   6.8061   7.1279   7.1280   7.6141   7.6141
     7.8283   7.8283   7.9733   7.9733   8.2035   8.2035   8.6335   8.6336
     8.7261   8.7262   9.0915   9.0916   9.1891   9.1892   9.9922   9.9924
    10.1105  10.1107  10.6123  10.6123  10.8784  10.8784  11.2572  11.2572
    11.7438  11.7439  11.9719  11.9720  12.3330  12.3330  12.5224  12.5224
    12.7871  12.7871  13.0869  13.0869

          k = 0.0857 0.0495 0.0000 ( 15095 PWs)   bands (ev):

   -12.5930 -12.5930 -12.0625 -12.0625 -11.0092 -11.0091  -8.3418  -8.3418
    -7.1293  -7.1293  -2.8138  -2.8136  -2.7133  -2.7130  -2.1581  -2.1572
    -1.9688  -1.9684  -1.7333  -1.7326  -1.5035  -1.5031  -1.1410  -1.1407
    -0.8329  -0.8325  -0.5222  -0.5219   0.1920   0.1923   0.5147   0.5151
     0.9236   0.9237   1.3964   1.3971   1.9295   1.9301   2.1598   2.1600
     4.2135   4.2135   4.2986   4.2986   4.8753   4.8753   5.0764   5.0765
     5.4412   5.4412   5.9062   5.9063   6.2023   6.2023   6.5035   6.5035
     6.5466   6.5466   6.8421   6.8422   7.1300   7.1301   7.5932   7.5932
     7.8561   7.8562   8.0165   8.0165   8.2417   8.2418   8.6384   8.6384
     8.7357   8.7358   9.1096   9.1096   9.1849   9.1850  10.0333  10.0334
    10.1592  10.1594  10.5977  10.5977  10.8950  10.8951  11.2425  11.2425
    11.7180  11.7181  11.8967  11.8968  12.3329  12.3329  12.5496  12.5496
    12.8107  12.8107  12.9920  12.9920

          k = 0.0929 0.0536 0.0000 ( 15093 PWs)   bands (ev):

   -12.5830 -12.5830 -12.0536 -12.0536 -11.0043 -11.0043  -8.3457  -8.3456
    -7.1504  -7.1504  -2.8743  -2.8742  -2.7364  -2.7362  -2.2051  -2.2043
    -1.9878  -1.9873  -1.7667  -1.7660  -1.5191  -1.5186  -1.1311  -1.1308
    -0.8007  -0.8003  -0.5110  -0.5108   0.2070   0.2072   0.5593   0.5597
     0.9491   0.9493   1.4177   1.4183   1.9374   1.9380   2.1892   2.1894
     4.2289   4.2290   4.2956   4.2956   4.8462   4.8462   5.0837   5.0838
     5.4441   5.4441   5.9230   5.9230   6.1826   6.1827   6.5129   6.5129
     6.5566   6.5566   6.8792   6.8792   7.1352   7.1353   7.5719   7.5719
     7.8826   7.8826   8.0624   8.0625   8.2767   8.2767   8.6308   8.6308
     8.7689   8.7690   9.1270   9.1271   9.1866   9.1867  10.0694  10.0695
    10.2040  10.2041  10.5886  10.5886  10.9129  10.9129  11.2320  11.2320
    11.6935  11.6936  11.8132  11.8134  12.3463  12.3463  12.5691  12.5691
    12.7914  12.7914  12.9359  12.9359

          k = 0.1000 0.0577 0.0000 ( 15091 PWs)   bands (ev):

   -12.5723 -12.5723 -12.0440 -12.0440 -10.9992 -10.9992  -8.3500  -8.3500
    -7.1731  -7.1731  -2.9386  -2.9385  -2.7570  -2.7568  -2.2531  -2.2523
    -2.0080  -2.0076  -1.8017  -1.8010  -1.5335  -1.5330  -1.1207  -1.1204
    -0.7699  -0.7696  -0.5075  -0.5072   0.2252   0.2254   0.6077   0.6081
     0.9771   0.9772   1.4386   1.4392   1.9459   1.9465   2.2208   2.2210
     4.2452   4.2452   4.2912   4.2912   4.8172   4.8172   5.0927   5.0927
     5.4480   5.4480   5.9414   5.9414   6.1656   6.1656   6.5163   6.5163
     6.5699   6.5700   6.9169   6.9169   7.1439   7.1439   7.5520   7.5520
     7.9076   7.9077   8.1096   8.1097   8.3042   8.3042   8.6264   8.6265
     8.8136   8.8137   9.1440   9.1441   9.1943   9.1944  10.0993  10.0994
    10.2437  10.2438  10.5871  10.5872  10.9316  10.9317  11.2248  11.2248
    11.6679  11.6680  11.7310  11.7311  12.3693  12.3693  12.5781  12.5781
    12.7123  12.7123  12.9031  12.9031

          k = 0.1071 0.0619 0.0000 ( 15089 PWs)   bands (ev):

   -12.5607 -12.5607 -12.0337 -12.0337 -10.9937 -10.9937  -8.3547  -8.3547
    -7.1972  -7.1972  -3.0046  -3.0045  -2.7768  -2.7765  -2.3020  -2.3012
    -2.0296  -2.0293  -1.8372  -1.8365  -1.5470  -1.5465  -1.1104  -1.1102
    -0.7419  -0.7415  -0.5105  -0.5102   0.2484   0.2486   0.6576   0.6581
     1.0066   1.0068   1.4599   1.4605   1.9559   1.9565   2.2536   2.2538
     4.2620   4.2621   4.2853   4.2854   4.7894   4.7895   5.1028   5.1028
     5.4531   5.4531   5.9613   5.9614   6.1515   6.1516   6.5143   6.5143
     6.5855   6.5856   6.9548   6.9548   7.1562   7.1562   7.5346   7.5347
     7.9312   7.9312   8.1572   8.1572   8.3206   8.3206   8.6336   8.6336
     8.8646   8.8647   9.1617   9.1618   9.2072   9.2072  10.1214  10.1214
    10.2783  10.2783  10.5946  10.5947  10.9510  10.9510  11.2188  11.2188
    11.6211  11.6213  11.6758  11.6760  12.3992  12.3992  12.5687  12.5687
    12.6222  12.6223  12.8214  12.8214

          k = 0.1143 0.0660 0.0000 ( 15091 PWs)   bands (ev):

   -12.5484 -12.5484 -12.0228 -12.0228 -10.9879 -10.9879  -8.3600  -8.3600
    -7.2229  -7.2229  -3.0713  -3.0712  -2.7962  -2.7960  -2.3519  -2.3511
    -2.0528  -2.0525  -1.8721  -1.8715  -1.5597  -1.5591  -1.1007  -1.1005
    -0.7186  -0.7182  -0.5173  -0.5169   0.2768   0.2770   0.7077   0.7082
     1.0369   1.0371   1.4826   1.4830   1.9681   1.9687   2.2869   2.2872
     4.2737   4.2740   4.2830   4.2832   4.7639   4.7639   5.1140   5.1140
     5.4594   5.4594   5.9826   5.9827   6.1409   6.1409   6.5078   6.5078
     6.6022   6.6023   6.9923   6.9924   7.1724   7.1725   7.5207   7.5207
     7.9530   7.9530   8.2039   8.2039   8.3256   8.3256   8.6542   8.6543
     8.9200   8.9201   9.1817   9.1818   9.2245   9.2246  10.1347  10.1347
    10.3085  10.3085  10.6109  10.6109  10.9708  10.9708  11.2094  11.2095
    11.5519  11.5520  11.6558  11.6560  12.4325  12.4325  12.4962  12.4962
    12.5825  12.5825  12.7260  12.7260

          k = 0.1214 0.0701 0.0000 ( 15089 PWs)   bands (ev):

   -12.5353 -12.5353 -12.0111 -12.0111 -10.9818 -10.9818  -8.3657  -8.3657
    -7.2499  -7.2499  -3.1382  -3.1382  -2.8154  -2.8152  -2.4027  -2.4019
    -2.0776  -2.0774  -1.9057  -1.9052  -1.5716  -1.5710  -1.0921  -1.0918
    -0.7035  -0.7031  -0.5233  -0.5229   0.3096   0.3097   0.7572   0.7576
     1.0668   1.0671   1.5073   1.5077   1.9832   1.9837   2.3201   2.3203
     4.2647   4.2648   4.2998   4.2998   4.7414   4.7414   5.1260   5.1260
     5.4671   5.4671   6.0052   6.0052   6.1338   6.1339   6.4972   6.4972
     6.6194   6.6194   7.0291   7.0291   7.1927   7.1927   7.5108   7.5108
     7.9729   7.9729   8.2466   8.2467   8.3244   8.3245   8.6864   8.6864
     8.9780   8.9781   9.2043   9.2044   9.2469   9.2470  10.1394  10.1394
    10.3354  10.3354  10.6342  10.6342  10.9907  10.9907  11.1889  11.1890
    11.4938  11.4939  11.6467  11.6468  12.3924  12.3925  12.4678  12.4679
    12.5589  12.5589  12.6392  12.6392

          k = 0.1286 0.0742 0.0000 ( 15083 PWs)   bands (ev):

   -12.5214 -12.5214 -11.9988 -11.9988 -10.9754 -10.9754  -8.3720  -8.3720
    -7.2784  -7.2784  -3.2051  -3.2050  -2.8346  -2.8343  -2.4543  -2.4536
    -2.1043  -2.1042  -1.9375  -1.9369  -1.5828  -1.5822  -1.0850  -1.0847
    -0.7005  -0.7001  -0.5232  -0.5228   0.3454   0.3454   0.8058   0.8062
     1.0954   1.0958   1.5350   1.5353   2.0015   2.0020   2.3527   2.3529
     4.2511   4.2512   4.3188   4.3188   4.7227   4.7227   5.1387   5.1387
     5.4762   5.4762   6.0286   6.0287   6.1308   6.1308   6.4830   6.4830
     6.6367   6.6367   7.0647   7.0647   7.2168   7.2168   7.5054   7.5054
     7.9908   7.9909   8.2731   8.2732   8.3330   8.3330   8.7266   8.7266
     9.0373   9.0374   9.2287   9.2288   9.2768   9.2769  10.1367  10.1367
    10.3597  10.3598  10.6622  10.6623  11.0100  11.0100  11.1500  11.1500
    11.4596  11.4597  11.6443  11.6445  12.2915  12.2915  12.4585  12.4586
    12.5398  12.5399  12.5907  12.5907

          k = 0.1357 0.0784 0.0000 ( 15092 PWs)   bands (ev):

[...]
     8.9822   8.9823   9.2188   9.2188   9.4683   9.4683  10.3442  10.3444
    10.4044  10.4046  10.7654  10.7655  10.9940  10.9941  11.1828  11.1828
    11.4261  11.4261  11.5996  11.5997  12.1187  12.1187  12.4504  12.4504
    12.5667  12.5667  12.7302  12.7302

          k = 0.0762 0.1364 0.0000 ( 15099 PWs)   bands (ev):

   -12.5078 -12.5078 -11.9856 -11.9856 -10.9663 -10.9663  -8.3667  -8.3666
    -7.2750  -7.2750  -3.1267  -3.1265  -2.8431  -2.8428  -2.6141  -2.6137
    -2.1480  -2.1476  -1.8105  -1.8104  -1.6918  -1.6915  -1.2991  -1.2989
    -0.7001  -0.6997  -0.4965  -0.4961   0.4012   0.4014   0.6429   0.6431
     1.0981   1.0984   1.6505   1.6510   1.9921   1.9925   2.4417   2.4418
     4.3066   4.3066   4.3506   4.3506   4.7957   4.7957   5.0226   5.0226
     5.4948   5.4948   5.8802   5.8802   6.2626   6.2627   6.3786   6.3787
     6.6862   6.6863   6.8554   6.8555   7.3811   7.3812   7.6156   7.6157
     7.9055   7.9055   8.2326   8.2327   8.5799   8.5799   8.7684   8.7684
     8.9867   8.9868   9.1686   9.1687   9.4142   9.4142  10.3094  10.3096
    10.3622  10.3624  10.7729  10.7729  10.9671  10.9672  11.1789  11.1789
    11.4667  11.4667  11.6087  11.6088  12.2020  12.2020  12.5529  12.5530
    12.5677  12.5678  12.7586  12.7586

          k = 0.0714 0.1278 0.0000 ( 15105 PWs)   bands (ev):

   -12.5250 -12.5250 -12.0010 -12.0010 -10.9745 -10.9745  -8.3602  -8.3602
    -7.2432  -7.2432  -3.0595  -3.0593  -2.8158  -2.8155  -2.5433  -2.5429
    -2.1084  -2.1079  -1.7882  -1.7880  -1.6742  -1.6739  -1.2826  -1.2824
    -0.7108  -0.7105  -0.5060  -0.5056   0.3713   0.3715   0.6066   0.6069
     1.0672   1.0675   1.5977   1.5982   1.9728   1.9733   2.4016   2.4017
     4.2989   4.2990   4.3347   4.3348   4.8228   4.8228   5.0333   5.0334
     5.4789   5.4789   5.8395   5.8395   6.2610   6.2611   6.3776   6.3777
     6.7123   6.7124   6.8230   6.8231   7.3457   7.3457   7.5973   7.5974
     7.8623   7.8623   8.2542   8.2543   8.5158   8.5159   8.7048   8.7049
     8.9814   8.9814   9.1277   9.1278   9.3726   9.3727  10.2652  10.2655
    10.3203  10.3206  10.7733  10.7734  10.9623  10.9624  11.1581  11.1581
    11.5034  11.5034  11.6423  11.6423  12.2797  12.2797  12.5452  12.5453
    12.6620  12.6620  12.7899  12.7899

          k = 0.0667 0.1193 0.0000 ( 15121 PWs)   bands (ev):

   -12.5411 -12.5411 -12.0154 -12.0154 -10.9823 -10.9823  -8.3545  -8.3545
    -7.2132  -7.2132  -2.9921  -2.9919  -2.7900  -2.7897  -2.4718  -2.4714
    -2.0694  -2.0689  -1.7698  -1.7695  -1.6550  -1.6547  -1.2658  -1.2656
    -0.7315  -0.7312  -0.5099  -0.5095   0.3326   0.3328   0.5800   0.5802
     1.0355   1.0358   1.5450   1.5455   1.9591   1.9596   2.3604   2.3606
     4.2844   4.2844   4.3260   4.3261   4.8493   4.8494   5.0451   5.0451
     5.4661   5.4661   5.8035   5.8035   6.2601   6.2601   6.3819   6.3819
     6.7235   6.7237   6.7983   6.7985   7.3128   7.3128   7.5837   7.5838
     7.8226   7.8226   8.2766   8.2767   8.4495   8.4496   8.6418   8.6418
     8.9694   8.9695   9.0866   9.0866   9.3479   9.3479  10.2096  10.2098
    10.2844  10.2847  10.7600  10.7600  10.9827  10.9827  11.1299  11.1299
    11.5223  11.5223  11.7062  11.7062  12.3326  12.3326  12.5477  12.5477
    12.7474  12.7475  12.7980  12.7980

          k = 0.0619 0.1108 0.0000 ( 15118 PWs)   bands (ev):

   -12.5562 -12.5562 -12.0289 -12.0289 -10.9897 -10.9897  -8.3493  -8.3493
    -7.1851  -7.1851  -2.9253  -2.9252  -2.7646  -2.7643  -2.4006  -2.4002
    -2.0312  -2.0306  -1.7546  -1.7543  -1.6343  -1.6339  -1.2490  -1.2488
    -0.7607  -0.7604  -0.5106  -0.5102   0.2879   0.2881   0.5614   0.5617
     1.0021   1.0024   1.4952   1.4958   1.9493   1.9498   2.3186   2.3187
     4.2661   4.2662   4.3215   4.3216   4.8750   4.8751   5.0571   5.0571
     5.4564   5.4564   5.7726   5.7727   6.2612   6.2613   6.3897   6.3898
     6.7141   6.7143   6.7849   6.7850   7.2842   7.2842   7.5759   7.5760
     7.7862   7.7862   8.2925   8.2926   8.3847   8.3848   8.5855   8.5856
     8.9549   8.9550   9.0398   9.0398   9.3388   9.3389  10.1468  10.1469
    10.2518  10.2520  10.7394  10.7395  11.0147  11.0148  11.1038  11.1039
    11.5341  11.5342  11.7858  11.7859  12.3433  12.3434  12.5907  12.5907
    12.7236  12.7236  12.8885  12.8885

          k = 0.0571 0.1023 0.0000 ( 15116 PWs)   bands (ev):

   -12.5701 -12.5701 -12.0414 -12.0414 -10.9966 -10.9966  -8.3447  -8.3447
    -7.1589  -7.1589  -2.8608  -2.8606  -2.7382  -2.7379  -2.3307  -2.3302
    -1.9944  -1.9939  -1.7416  -1.7413  -1.6120  -1.6116  -1.2323  -1.2322
    -0.7957  -0.7955  -0.5118  -0.5115   0.2410   0.2413   0.5486   0.5489
     0.9669   0.9671   1.4501   1.4507   1.9420   1.9425   2.2765   2.2766
     4.2471   4.2471   4.3186   4.3186   4.8992   4.8992   5.0688   5.0688
     5.4498   5.4499   5.7476   5.7476   6.2652   6.2653   6.4001   6.4001
     6.6906   6.6908   6.7751   6.7752   7.2605   7.2605   7.5750   7.5751
     7.7524   7.7524   8.2790   8.2791   8.3361   8.3362   8.5467   8.5468
     8.9371   8.9371   8.9918   8.9919   9.3400   9.3400  10.0806  10.0808
    10.2188  10.2190  10.7196  10.7196  11.0265  11.0266  11.1047  11.1047
    11.5486  11.5486  11.8692  11.8692  12.3279  12.3279  12.6350  12.6350
    12.7018  12.7019  12.9940  12.9940

          k = 0.0524 0.0938 0.0000 ( 15116 PWs)   bands (ev):

   -12.5829 -12.5829 -12.0530 -12.0530 -11.0030 -11.0030  -8.3405  -8.3405
    -7.1347  -7.1347  -2.8018  -2.8016  -2.7077  -2.7073  -2.2623  -2.2618
    -1.9601  -1.9595  -1.7297  -1.7293  -1.5884  -1.5880  -1.2160  -1.2159
    -0.8343  -0.8341  -0.5172  -0.5168   0.1953   0.1956   0.5393   0.5396
     0.9306   0.9307   1.4102   1.4108   1.9360   1.9365   2.2351   2.2352
     4.2284   4.2284   4.3161   4.3161   4.9210   4.9210   5.0800   5.0801
     5.4460   5.4460   5.7290   5.7291   6.2723   6.2723   6.4122   6.4122
     6.6623   6.6625   6.7604   6.7605   7.2413   7.2413   7.5814   7.5815
     7.7205   7.7206   8.2236   8.2237   8.3074   8.3074   8.5362   8.5362
     8.9039   8.9039   8.9600   8.9600   9.3461   9.3461  10.0132  10.0133
    10.1831  10.1833  10.7047  10.7047  11.0043  11.0043  11.1417  11.1418
    11.5706  11.5707  11.9484  11.9484  12.3061  12.3061  12.6092  12.6092
    12.7553  12.7553  13.0879  13.0879

          k = 0.0476 0.0852 0.0000 ( 15117 PWs)   bands (ev):

   -12.5947 -12.5947 -12.0635 -12.0635 -11.0089 -11.0089  -8.3369  -8.3369
    -7.1125  -7.1125  -2.7547  -2.7544  -2.6674  -2.6670  -2.1959  -2.1954
    -1.9295  -1.9290  -1.7176  -1.7172  -1.5638  -1.5633  -1.2000  -1.1998
    -0.8745  -0.8743  -0.5293  -0.5289   0.1524   0.1528   0.5324   0.5327
     0.8952   0.8953   1.3751   1.3757   1.9301   1.9305   2.1956   2.1958
     4.2106   4.2107   4.3138   4.3139   4.9396   4.9396   5.0911   5.0912
     5.4441   5.4441   5.7174   5.7175   6.2822   6.2822   6.4253   6.4253
     6.6328   6.6329   6.7395   6.7396   7.2255   7.2255   7.5942   7.5943
     7.6898   7.6899   8.1592   8.1593   8.2696   8.2696   8.5503   8.5504
     8.8547   8.8547   8.9493   8.9493   9.3537   9.3538   9.9453   9.9454
    10.1432  10.1434  10.6964  10.6964  10.9741  10.9741  11.1863  11.1863
    11.6032  11.6032  12.0152  12.0153  12.2867  12.2868  12.5772  12.5772
    12.8080  12.8080  13.1268  13.1268

          k = 0.0429 0.0767 0.0000 ( 15127 PWs)   bands (ev):

   -12.6053 -12.6053 -12.0731 -12.0731 -11.0143 -11.0143  -8.3337  -8.3337
    -7.0924  -7.0924  -2.7220  -2.7218  -2.6153  -2.6149  -2.1317  -2.1311
    -1.9042  -1.9036  -1.7044  -1.7040  -1.5387  -1.5381  -1.1844  -1.1842
    -0.9144  -0.9142  -0.5494  -0.5491   0.1126   0.1130   0.5274   0.5277
     0.8633   0.8634   1.3436   1.3442   1.9228   1.9231   2.1599   2.1600
     4.1940   4.1941   4.3117   4.3117   4.9542   4.9542   5.1024   5.1024
     5.4435   5.4435   5.7132   5.7133   6.2943   6.2943   6.4383   6.4383
     6.6037   6.6037   6.7145   6.7145   7.2124   7.2125   7.6103   7.6104
     7.6603   7.6604   8.0974   8.0974   8.2252   8.2252   8.5745   8.5746
     8.8058   8.8058   8.9490   8.9491   9.3614   9.3615   9.8778   9.8779
    10.0986  10.0987  10.6945  10.6945  10.9440  10.9440  11.2297  11.2297
    11.6473  11.6473  12.0603  12.0603  12.2724  12.2724  12.5631  12.5631
    12.8251  12.8251  13.1514  13.1514

          k = 0.0381 0.0682 0.0000 ( 15126 PWs)   bands (ev):

   -12.6148 -12.6148 -12.0817 -12.0817 -11.0191 -11.0191  -8.3310  -8.3310
    -7.0743  -7.0743  -2.6989  -2.6987  -2.5570  -2.5567  -2.0698  -2.0692
    -1.8849  -1.8844  -1.6896  -1.6892  -1.5140  -1.5133  -1.1694  -1.1691
    -0.9519  -0.9517  -0.5772  -0.5769   0.0744   0.0748   0.5242   0.5245
     0.8380   0.8381   1.3142   1.3148   1.9126   1.9129   2.1297   2.1298
     4.1788   4.1788   4.3097   4.3097   4.9644   4.9645   5.1140   5.1140
     5.4436   5.4436   5.7163   5.7163   6.3076   6.3076   6.4494   6.4494
     6.5768   6.5768   6.6878   6.6879   7.2019   7.2019   7.6146   7.6148
     7.6429   7.6431   8.0427   8.0427   8.1802   8.1802   8.5942   8.5942
     8.7672   8.7672   8.9572   8.9572   9.3687   9.3688   9.8113   9.8115
    10.0492  10.0493  10.6979  10.6979  10.9159  10.9159  11.2709  11.2709
    11.7022  11.7023  12.0787  12.0788  12.2594  12.2594  12.5742  12.5743
    12.8075  12.8075  13.1955  13.1955

          k = 0.0333 0.0597 0.0000 ( 15126 PWs)   bands (ev):

   -12.6233 -12.6233 -12.0893 -12.0893 -11.0234 -11.0234  -8.3286  -8.3286
    -7.0583  -7.0583  -2.6809  -2.6808  -2.4978  -2.4975  -2.0108  -2.0102
    -1.8714  -1.8710  -1.6735  -1.6731  -1.4914  -1.4905  -1.1565  -1.1561
    -0.9842  -0.9838  -0.6108  -0.6105   0.0358   0.0362   0.5225   0.5228
     0.8217   0.8220   1.2851   1.2858   1.8986   1.8989   2.1066   2.1067
     4.1649   4.1650   4.3078   4.3079   4.9707   4.9707   5.1255   5.1256
     5.4440   5.4440   5.7261   5.7261   6.3205   6.3205   6.4555   6.4556
     6.5559   6.5560   6.6619   6.6620   7.1941   7.1941   7.5868   7.5868
     7.6532   7.6533   7.9991   7.9991   8.1378   8.1378   8.5957   8.5957
     8.7485   8.7485   8.9748   8.9749   9.3756   9.3756   9.7465   9.7467
     9.9957   9.9959  10.7049  10.7049  10.8906  10.8906  11.3112  11.3112
    11.7657  11.7657  12.0757  12.0757  12.2422  12.2422  12.6007  12.6007
    12.7826  12.7826  13.2380  13.2380

          k = 0.0286 0.0511 0.0000 ( 15124 PWs)   bands (ev):

   -12.6305 -12.6305 -12.0959 -12.0959 -11.0272 -11.0272  -8.3266  -8.3266
    -7.0444  -7.0443  -2.6662  -2.6661  -2.4405  -2.4403  -1.9568  -1.9562
    -1.8610  -1.8606  -1.6568  -1.6564  -1.4730  -1.4720  -1.1489  -1.1484
    -1.0063  -1.0059  -0.6472  -0.6469  -0.0047  -0.0043   0.5222   0.5225
     0.8164   0.8167   1.2552   1.2559   1.8810   1.8813   2.0910   2.0911
     4.1527   4.1527   4.3062   4.3062   4.9738   4.9738   5.1364   5.1364
     5.4447   5.4447   5.7414   5.7415   6.3300   6.3300   6.4536   6.4537
     6.5460   6.5460   6.6387   6.6387   7.1894   7.1894   7.5514   7.5514
     7.6624   7.6625   7.9698   7.9698   8.0994   8.0994   8.5772   8.5772
     8.7488   8.7488   9.0034   9.0035   9.3823   9.3824   9.6842   9.6844
     9.9392   9.9393  10.7135  10.7135  10.8685  10.8685  11.3524  11.3525
    11.8343  11.8343  12.0594  12.0595  12.2210  12.2210  12.6068  12.6068
    12.7902  12.7902  13.2536  13.2537

          k = 0.0238 0.0426 0.0000 ( 15134 PWs)   bands (ev):

   -12.6367 -12.6367 -12.1015 -12.1015 -11.0304 -11.0304  -8.3249  -8.3249
    -7.0326  -7.0325  -2.6542  -2.6541  -2.3869  -2.3866  -1.9160  -1.9154
    -1.8447  -1.8442  -1.6404  -1.6400  -1.4614  -1.4603  -1.1508  -1.1502
    -1.0136  -1.0132  -0.6826  -0.6824  -0.0475  -0.0471   0.5226   0.5229
     0.8224   0.8228   1.2235   1.2242   1.8615   1.8617   2.0818   2.0819
     4.1421   4.1422   4.3047   4.3047   4.9746   4.9746   5.1459   5.1459
     5.4458   5.4458   5.7609   5.7609   6.3314   6.3314   6.4478   6.4479
     6.5458   6.5459   6.6199   6.6199   7.1880   7.1880   7.5139   7.5140
     7.6638   7.6638   7.9554   7.9555   8.0658   8.0658   8.5505   8.5505
     8.7560   8.7560   9.0425   9.0426   9.3891   9.3892   9.6255   9.6257
     9.8810   9.8811  10.7222  10.7222  10.8499  10.8499  11.3957  11.3958
    11.9025  11.9026  12.0370  12.0371  12.1998  12.1998  12.5768  12.5769
    12.8414  12.8414  13.2394  13.2394

          k = 0.0190 0.0341 0.0000 ( 15129 PWs)   bands (ev):

   -12.6418 -12.6418 -12.1061 -12.1061 -11.0330 -11.0330  -8.3236  -8.3236
    -7.0229  -7.0229  -2.6445  -2.6444  -2.3384  -2.3382  -1.9000  -1.8995
    -1.8103  -1.8096  -1.6246  -1.6242  -1.4587  -1.4576  -1.1613  -1.1608
    -1.0074  -1.0071  -0.7133  -0.7130  -0.0909  -0.0906   0.5233   0.5235
     0.8388   0.8392   1.1897   1.1903   1.8424   1.8426   2.0771   2.0772
     4.1334   4.1334   4.3035   4.3035   4.9741   4.9741   5.1536   5.1536
     5.4471   5.4471   5.7825   5.7825   6.3215   6.3216   6.4470   6.4471
     6.5472   6.5473   6.6084   6.6085   7.1894   7.1895   7.4768   7.4769
     7.6582   7.6582   7.9531   7.9532   8.0374   8.0375   8.5247   8.5248
     8.7626   8.7626   9.0898   9.0899   9.3953   9.3954   9.5722   9.5723
     9.8229   9.8230  10.7298  10.7298  10.8349  10.8349  11.4412  11.4412
    11.9510  11.9511  12.0266  12.0268  12.1819  12.1820  12.5336  12.5336
    12.9041  12.9041  13.2160  13.2161

          k = 0.0143 0.0256 0.0000 ( 15133 PWs)   bands (ev):

   -12.6457 -12.6457 -12.1096 -12.1096 -11.0351 -11.0351  -8.3226  -8.3226
    -7.0154  -7.0153  -2.6370  -2.6369  -2.2970  -2.2968  -1.8999  -1.8995
    -1.7668  -1.7661  -1.6091  -1.6088  -1.4660  -1.4650  -1.1745  -1.1742
    -0.9958  -0.9955  -0.7356  -0.7354  -0.1321  -0.1318   0.5238   0.5239
     0.8632   0.8637   1.1544   1.1550   1.8257   1.8258   2.0752   2.0753
     4.1264   4.1265   4.3025   4.3025   4.9730   4.9730   5.1593   5.1593
     5.4486   5.4486   5.8040   5.8040   6.3036   6.3036   6.4528   6.4529
     6.5435   6.5436   6.6066   6.6066   7.1929   7.1929   7.4429   7.4430
     7.6489   7.6489   7.9577   7.9578   8.0147   8.0147   8.5037   8.5037
     8.7669   8.7669   9.1418   9.1419   9.3976   9.3978   9.5282   9.5283
     9.7675   9.7676  10.7357  10.7357  10.8235  10.8235  11.4875  11.4875
    11.9392  11.9393  12.0669  12.0670  12.1698  12.1699  12.4907  12.4908
    12.9485  12.9486  13.2122  13.2122

          k = 0.0095 0.0170 0.0000 ( 15125 PWs)   bands (ev):

   -12.6485 -12.6485 -12.1122 -12.1122 -11.0365 -11.0365  -8.3218  -8.3218
    -7.0100  -7.0100  -2.6317  -2.6317  -2.2647  -2.2645  -1.9047  -1.9044
    -1.7271  -1.7264  -1.5928  -1.5925  -1.4825  -1.4816  -1.1857  -1.1854
    -0.9858  -0.9856  -0.7481  -0.7480  -0.1668  -0.1666   0.5240   0.5241
     0.8918   0.8922   1.1195   1.1200   1.8129   1.8130   2.0747   2.0748
     4.1215   4.1215   4.3018   4.3018   4.9719   4.9719   5.1632   5.1632
     5.4499   5.4499   5.8228   5.8228   6.2846   6.2846   6.4617   6.4617
     6.5354   6.5355   6.6109   6.6109   7.1971   7.1972   7.4155   7.4155
     7.6396   7.6396   7.9645   7.9646   7.9977   7.9978   8.4887   8.4887
     8.7692   8.7692   9.1947   9.1949   9.3877   9.3879   9.5017   9.5018
     9.7185   9.7186  10.7396  10.7396  10.8158  10.8158  11.5311  11.5311
    11.9055  11.9055  12.1145  12.1145  12.1682  12.1682  12.4533  12.4533
    12.9589  12.9589  13.2449  13.2449

          k = 0.0048 0.0085 0.0000 ( 15127 PWs)   bands (ev):

   -12.6502 -12.6502 -12.1137 -12.1137 -11.0374 -11.0374  -8.3214  -8.3214
    -7.0067  -7.0067  -2.6285  -2.6285  -2.2438  -2.2437  -1.9093  -1.9092
    -1.6991  -1.6988  -1.5743  -1.5741  -1.5045  -1.5039  -1.1927  -1.1926
    -0.9802  -0.9801  -0.7526  -0.7526  -0.1903  -0.1902   0.5241   0.5242
     0.9180   0.9183   1.0903   1.0907   1.8050   1.8050   2.0748   2.0748
     4.1184   4.1184   4.3013   4.3013   4.9711   4.9711   5.1655   5.1655
     5.4509   5.4509   5.8358   5.8358   6.2705   6.2705   6.4697   6.4697
     6.5275   6.5276   6.6157   6.6157   7.2005   7.2006   7.3975   7.3976
     7.6329   7.6329   7.9707   7.9708   7.9864   7.9865   8.4798   8.4798
     8.7702   8.7702   9.2437   9.2438   9.3614   9.3616   9.4955   9.4956
     9.6824   9.6825  10.7418  10.7418  10.8113  10.8113  11.5649  11.5649
    11.8757  11.8757  12.1336  12.1337  12.1864  12.1864  12.4255  12.4255
    12.9509  12.9509  13.2936  13.2936

          k = 0.0000 0.0000 0.0000 ( 15117 PWs)   bands (ev):

   -12.6508 -12.6508 -12.1142 -12.1142 -11.0377 -11.0377  -8.3213  -8.3213
    -7.0057  -7.0057  -2.6274  -2.6274  -2.2365  -2.2365  -1.9111  -1.9111
    -1.6890  -1.6890  -1.5616  -1.5616  -1.5187  -1.5187  -1.1951  -1.1951
    -0.9785  -0.9785  -0.7534  -0.7534  -0.1987  -0.1987   0.5242   0.5242
     0.9298   0.9298   1.0778   1.0778   1.8023   1.8023   2.0749   2.0749
     4.1174   4.1174   4.3012   4.3012   4.9708   4.9708   5.1662   5.1662
     5.4512   5.4512   5.8405   5.8405   6.2653   6.2653   6.4731   6.4731
     6.5241   6.5241   6.6176   6.6176   7.2019   7.2019   7.3913   7.3913
     7.6305   7.6305   7.9743   7.9743   7.9814   7.9814   8.4769   8.4769
     8.7705   8.7705   9.2710   9.2710   9.3407   9.3407   9.4965   9.4965
     9.6685   9.6685  10.7425  10.7425  10.8099  10.8099  11.5783  11.5783
    11.8634  11.8634  12.1358  12.1358  12.1993  12.1993  12.4145  12.4145
    12.9458  12.9458  13.3180  13.3180

     Writing all to output data dir tmp/Sb2Te3-uatsx-c6-soc-5.0.save/ :
     XML data file, pseudopotentials, collected wavefunctions

     init_run     :      1.88s CPU      2.15s WALL (       1 calls)
     electrons    :   2300.98s CPU   1248.45s WALL (       1 calls)

     Called by init_run:
     wfcinit      :      0.00s CPU      0.27s WALL (       1 calls)
     wfcinit:atom :      0.13s CPU      0.08s WALL (     211 calls)
     wfcinit:wfcr :     44.79s CPU     23.43s WALL (     211 calls)
     potinit      :      0.50s CPU      0.48s WALL (       1 calls)
     hinit0       :      0.73s CPU      0.75s WALL (       1 calls)

     Called by electrons:
     c_bands      :   2300.96s CPU   1248.44s WALL (       1 calls)
     v_of_rho     :      0.05s CPU      0.03s WALL (       1 calls)
     v_h          :      0.01s CPU      0.00s WALL (       1 calls)
     v_xc         :      0.04s CPU      0.03s WALL (       1 calls)
     newd         :      0.54s CPU      0.54s WALL (       1 calls)

     Called by c_bands:
     init_us_2    :      0.22s CPU      0.19s WALL (     211 calls)
     cegterg      :   2248.56s CPU   1218.45s WALL (     903 calls)

     Called by sum_band:

     Called by *egterg:
     cdiaghg      :    347.78s CPU    232.70s WALL (   16177 calls)
     cegterg:over :    139.48s CPU     74.77s WALL (   15966 calls)
     cegterg:upda :     70.42s CPU     32.83s WALL (   15966 calls)
     cegterg:last :    160.28s CPU     80.85s WALL (    7869 calls)
     h_psi        :   1398.47s CPU    719.70s WALL (   17080 calls)
     s_psi        :     92.90s CPU     53.11s WALL (   17080 calls)
     g_psi        :      6.81s CPU      4.96s WALL (   15966 calls)

     Called by h_psi:
     h_psi:calbec :     76.16s CPU     38.13s WALL (   17080 calls)
     vloc_psi     :   1241.92s CPU    632.13s WALL (   17080 calls)
     add_vuspsi   :     77.12s CPU     47.28s WALL (   17080 calls)

     General routines
     calbec       :     76.04s CPU     38.09s WALL (   17080 calls)
     fft          :      0.63s CPU      0.64s WALL (      19 calls)
     ffts         :      0.42s CPU      0.42s WALL (       4 calls)
     fftw         :    901.43s CPU    457.66s WALL ( 3133284 calls)
     interpolate  :      0.44s CPU      0.43s WALL (       4 calls)
     davcio       :      0.20s CPU      0.97s WALL (     422 calls)

     Parallel routines

     PWSCF        :  38m40.23s CPU  22m46.23s WALL


   This run was terminated on:   0:42:15  23Aug2025            

=------------------------------------------------------------------------------=
   JOB DONE.
=------------------------------------------------------------------------------=
