
     Program PWSCF v.7.4.1 starts on 13Aug2025 at 16:25:19 

     This program is part of the open-source Quantum ESPRESSO suite
     for quantum simulation of materials; please cite
         "P. Giannozzi et al., J. Phys.:Condens. Matter 21 395502 (2009);
         "P. Giannozzi et al., J. Phys.:Condens. Matter 29 465901 (2017);
         "P. Giannozzi et al., J. Chem. Phys. 152 154105 (2020);
          URL http://www.quantum-espresso.org", 
     in publications or presentations arising from this work. More details at
     http://www.quantum-espresso.org/quote

     Parallel version (MPI & OpenMP), running on      48 processor cores
     Number of MPI processes:                24
     Threads/MPI process:                     2

     MPI processes distributed on     2 nodes
     102333 MiB available memory on the printing compute node when the environment starts

     Waiting for input...
     Reading input from standard input

     Current dimensions of program PWSCF are:
     Max number of different atomic species (ntypx) = 10
     Max number of k-points (npk) =  40000
     Max angular momentum in pseudopotentials (lmaxx) =  4

     IMPORTANT: XC functional enforced from input :
     Exchange-correlation= PBE
                           (   1   4   3   4   0   0   0)
     Any further DFT definition will be discarded
     Please, verify this is what you really want


     Atomic positions and unit cell read from directory:
     tmp/Sb2Te3-uatsx-c1-4.0.save/

     Message from routine setup:
     no reason to have ecutrho>4*ecutwfc

     R & G space division:  proc/nbgrp/npool/nimage =      24
     Subspace diagonalization in iterative solution of the eigenvalue problem:
     a serial algorithm will be used


     Parallelization info
     --------------------
     sticks:   dense  smooth     PW     G-vecs:    dense   smooth      PW
     Min          99      39     11                19681     4971     755
     Max         100      40     12                19687     4990     769
     Sum        2379     953    269               472441   119521   18333

     Using Slab Decomposition



     bravais-lattice index     =            0
     lattice parameter (alat)  =       8.4715  a.u.
     unit-cell volume          =    2502.8602 (a.u.)^3
     number of atoms/cell      =            5
     number of atomic types    =            2
     number of electrons       =        78.00
     number of Kohn-Sham states=          100
     kinetic-energy cutoff     =      50.0000  Ry
     charge density cutoff     =     500.0000  Ry
     Exchange-correlation= PBE
                           (   1   4   3   4   0   0   0)

     celldm(1)=   8.471459  celldm(2)=   0.000000  celldm(3)=   0.000000
     celldm(4)=   0.000000  celldm(5)=   0.000000  celldm(6)=   0.000000

     crystal axes: (cart. coord. in units of alat)
               a(1) = (   1.000000   0.000000   0.000000 )  
               a(2) = (  -0.480769   0.832709   0.000000 )  
               a(3) = (   0.000000   0.000000   4.943891 )  

     reciprocal axes: (cart. coord. in units 2 pi/alat)
               b(1) = (  1.000000  0.577356 -0.000000 )  
               b(2) = (  0.000000  1.200900  0.000000 )  
               b(3) = (  0.000000 -0.000000  0.202270 )  


     PseudoPot. # 1 for Sb read from file:
     /zfs-home/202401017n1/pseudos/Sb_ONCV_PBE-1.2.upf
     MD5 check sum: 0417cd6c0fe8ce4611e2b23135f1abd9
     Pseudo is Norm-conserving, Zval = 15.0
     Generated using ONCVPSP code by D. R. Hamann
     Using radial grid of  602 points,  6 beta functions with: 
                l(1) =   0
                l(2) =   0
                l(3) =   1
                l(4) =   1
                l(5) =   2
                l(6) =   2

     PseudoPot. # 2 for Te read from file:
     /zfs-home/202401017n1/pseudos/Te_ONCV_PBE-1.2.upf
     MD5 check sum: dd4de4dac1e38587f63aaf3700bb29d3
     Pseudo is Norm-conserving, Zval = 16.0
     Generated using ONCVPSP code by D. R. Hamann
     Using radial grid of  602 points,  6 beta functions with: 
                l(1) =   0
                l(2) =   0
                l(3) =   1
                l(4) =   1
                l(5) =   2
                l(6) =   2

     atomic species   valence    mass     pseudopotential
     Sb               15.00   121.76000     Sb( 1.00)
     Te               16.00   127.60000     Te( 1.00)

     No symmetry found


                                    s                        frac. trans.

      isym =  1     identity                                     

 cryst.   s( 1) = (     1          0          0      )
                  (     0          1          0      )
                  (     0          0          1      )

 cart.    s( 1) = (  1.0000000  0.0000000  0.0000000 )
                  (  0.0000000  1.0000000  0.0000000 )
                  (  0.0000000  0.0000000  1.0000000 )


   Cartesian axes

     site n.     atom                  positions (alat units)
         1        Sb     tau(   1) = (   0.5904646   0.4157527   2.9115514  )
         2        Te     tau(   2) = (   0.5755298   0.3904446   1.6605492  )
         3        Sb     tau(   3) = (   0.0721083   0.1184920   2.0322939  )
         4        Te     tau(   4) = (   0.0869606   0.1439524   3.2833161  )
         5        Te     tau(   5) = (   0.0908738   0.6835524   2.4719228  )

   Crystallographic axes

     site n.     atom                  positions (cryst. coord.)
         1        Sb     tau(   1) = (  0.8305018  0.4992775  0.5889190  )
         2        Te     tau(   2) = (  0.8009552  0.4688850  0.3358790  )
         3        Sb     tau(   3) = (  0.1405204  0.1422971  0.4110717  )
         4        Te     tau(   4) = (  0.1700723  0.1728725  0.6641158  )
         5        Te     tau(   5) = (  0.4855268  0.8208782  0.4999954  )

     number of k points=   211
                       cart. coord. in units 2pi/alat
        k(    1) = (   0.0000000   0.0000000   0.0000000), wk =   0.0094787
        k(    2) = (   0.0071429   0.0041240   0.0000000), wk =   0.0094787
        k(    3) = (   0.0142857   0.0082479   0.0000000), wk =   0.0094787
        k(    4) = (   0.0214286   0.0123719   0.0000000), wk =   0.0094787
        k(    5) = (   0.0285714   0.0164959   0.0000000), wk =   0.0094787
        k(    6) = (   0.0357143   0.0206199   0.0000000), wk =   0.0094787
        k(    7) = (   0.0428571   0.0247438   0.0000000), wk =   0.0094787
        k(    8) = (   0.0500000   0.0288678   0.0000000), wk =   0.0094787
        k(    9) = (   0.0571429   0.0329918   0.0000000), wk =   0.0094787
        k(   10) = (   0.0642857   0.0371157   0.0000000), wk =   0.0094787
        k(   11) = (   0.0714286   0.0412397   0.0000000), wk =   0.0094787
        k(   12) = (   0.0785714   0.0453637   0.0000000), wk =   0.0094787
        k(   13) = (   0.0857143   0.0494876   0.0000000), wk =   0.0094787
        k(   14) = (   0.0928571   0.0536116   0.0000000), wk =   0.0094787
        k(   15) = (   0.1000000   0.0577356   0.0000000), wk =   0.0094787
        k(   16) = (   0.1071429   0.0618596   0.0000000), wk =   0.0094787
        k(   17) = (   0.1142857   0.0659835   0.0000000), wk =   0.0094787
        k(   18) = (   0.1214286   0.0701075   0.0000000), wk =   0.0094787
        k(   19) = (   0.1285714   0.0742315   0.0000000), wk =   0.0094787
        k(   20) = (   0.1357143   0.0783554   0.0000000), wk =   0.0094787
        k(   21) = (   0.1428571   0.0824794   0.0000000), wk =   0.0094787
        k(   22) = (   0.1500000   0.0866034   0.0000000), wk =   0.0094787
        k(   23) = (   0.1571429   0.0907273   0.0000000), wk =   0.0094787
        k(   24) = (   0.1642857   0.0948513   0.0000000), wk =   0.0094787
        k(   25) = (   0.1714286   0.0989753   0.0000000), wk =   0.0094787
        k(   26) = (   0.1785714   0.1030993   0.0000000), wk =   0.0094787
        k(   27) = (   0.1857143   0.1072232   0.0000000), wk =   0.0094787
        k(   28) = (   0.1928571   0.1113472   0.0000000), wk =   0.0094787
        k(   29) = (   0.2000000   0.1154712   0.0000000), wk =   0.0094787
        k(   30) = (   0.2071429   0.1195951   0.0000000), wk =   0.0094787
        k(   31) = (   0.2142857   0.1237191   0.0000000), wk =   0.0094787
        k(   32) = (   0.2214286   0.1278431   0.0000000), wk =   0.0094787
        k(   33) = (   0.2285714   0.1319671   0.0000000), wk =   0.0094787
        k(   34) = (   0.2357143   0.1360910   0.0000000), wk =   0.0094787
        k(   35) = (   0.2428571   0.1402150   0.0000000), wk =   0.0094787
        k(   36) = (   0.2500000   0.1443390   0.0000000), wk =   0.0094787
        k(   37) = (   0.2571429   0.1484629   0.0000000), wk =   0.0094787
        k(   38) = (   0.2642857   0.1525869   0.0000000), wk =   0.0094787
        k(   39) = (   0.2714286   0.1567109   0.0000000), wk =   0.0094787
        k(   40) = (   0.2785714   0.1608348   0.0000000), wk =   0.0094787
        k(   41) = (   0.2857143   0.1649588   0.0000000), wk =   0.0094787
        k(   42) = (   0.2928571   0.1690828   0.0000000), wk =   0.0094787
        k(   43) = (   0.3000000   0.1732068   0.0000000), wk =   0.0094787
        k(   44) = (   0.3071429   0.1773307   0.0000000), wk =   0.0094787
        k(   45) = (   0.3142857   0.1814547   0.0000000), wk =   0.0094787
        k(   46) = (   0.3214286   0.1855787   0.0000000), wk =   0.0094787
        k(   47) = (   0.3285714   0.1897026   0.0000000), wk =   0.0094787
        k(   48) = (   0.3357143   0.1938266   0.0000000), wk =   0.0094787
        k(   49) = (   0.3428571   0.1979506   0.0000000), wk =   0.0094787
        k(   50) = (   0.3500000   0.2020745   0.0000000), wk =   0.0094787
        k(   51) = (   0.3571429   0.2061985   0.0000000), wk =   0.0094787
        k(   52) = (   0.3642857   0.2103225   0.0000000), wk =   0.0094787
        k(   53) = (   0.3714286   0.2144465   0.0000000), wk =   0.0094787
        k(   54) = (   0.3785714   0.2185704   0.0000000), wk =   0.0094787
        k(   55) = (   0.3857143   0.2226944   0.0000000), wk =   0.0094787
        k(   56) = (   0.3928571   0.2268184   0.0000000), wk =   0.0094787
        k(   57) = (   0.4000000   0.2309423   0.0000000), wk =   0.0094787
        k(   58) = (   0.4071429   0.2350663   0.0000000), wk =   0.0094787
        k(   59) = (   0.4142857   0.2391903   0.0000000), wk =   0.0094787
        k(   60) = (   0.4214286   0.2433143   0.0000000), wk =   0.0094787
        k(   61) = (   0.4285714   0.2474382   0.0000000), wk =   0.0094787
        k(   62) = (   0.4357143   0.2515622   0.0000000), wk =   0.0094787
        k(   63) = (   0.4428571   0.2556862   0.0000000), wk =   0.0094787
        k(   64) = (   0.4500000   0.2598101   0.0000000), wk =   0.0094787
        k(   65) = (   0.4571429   0.2639341   0.0000000), wk =   0.0094787
        k(   66) = (   0.4642857   0.2680581   0.0000000), wk =   0.0094787
        k(   67) = (   0.4714286   0.2721820   0.0000000), wk =   0.0094787
        k(   68) = (   0.4785714   0.2763060   0.0000000), wk =   0.0094787
        k(   69) = (   0.4857143   0.2804300   0.0000000), wk =   0.0094787
        k(   70) = (   0.4928571   0.2845540   0.0000000), wk =   0.0094787
        k(   71) = (   0.5000000   0.2886779   0.0000000), wk =   0.0094787
        k(   72) = (   0.4976190   0.2930218   0.0000000), wk =   0.0094787
        k(   73) = (   0.4952381   0.2973658   0.0000000), wk =   0.0094787
        k(   74) = (   0.4928571   0.3017097   0.0000000), wk =   0.0094787
        k(   75) = (   0.4904762   0.3060536   0.0000000), wk =   0.0094787
        k(   76) = (   0.4880952   0.3103975   0.0000000), wk =   0.0094787
        k(   77) = (   0.4857143   0.3147414   0.0000000), wk =   0.0094787
        k(   78) = (   0.4833333   0.3190853   0.0000000), wk =   0.0094787
        k(   79) = (   0.4809524   0.3234293   0.0000000), wk =   0.0094787
        k(   80) = (   0.4785714   0.3277732   0.0000000), wk =   0.0094787
        k(   81) = (   0.4761905   0.3321171   0.0000000), wk =   0.0094787
        k(   82) = (   0.4738095   0.3364610   0.0000000), wk =   0.0094787
        k(   83) = (   0.4714286   0.3408049   0.0000000), wk =   0.0094787
        k(   84) = (   0.4690476   0.3451488   0.0000000), wk =   0.0094787
        k(   85) = (   0.4666667   0.3494927   0.0000000), wk =   0.0094787
        k(   86) = (   0.4642857   0.3538367   0.0000000), wk =   0.0094787
        k(   87) = (   0.4619048   0.3581806   0.0000000), wk =   0.0094787
        k(   88) = (   0.4595238   0.3625245   0.0000000), wk =   0.0094787
        k(   89) = (   0.4571429   0.3668684   0.0000000), wk =   0.0094787
        k(   90) = (   0.4547619   0.3712123   0.0000000), wk =   0.0094787
        k(   91) = (   0.4523810   0.3755562   0.0000000), wk =   0.0094787
        k(   92) = (   0.4500000   0.3799002   0.0000000), wk =   0.0094787
        k(   93) = (   0.4476190   0.3842441   0.0000000), wk =   0.0094787
        k(   94) = (   0.4452381   0.3885880   0.0000000), wk =   0.0094787
        k(   95) = (   0.4428571   0.3929319   0.0000000), wk =   0.0094787
        k(   96) = (   0.4404762   0.3972758   0.0000000), wk =   0.0094787
        k(   97) = (   0.4380952   0.4016197   0.0000000), wk =   0.0094787
        k(   98) = (   0.4357143   0.4059636   0.0000000), wk =   0.0094787
        k(   99) = (   0.4333333   0.4103076   0.0000000), wk =   0.0094787
        k(  100) = (   0.4309524   0.4146515   0.0000000), wk =   0.0094787
        k(  101) = (   0.4285714   0.4189954   0.0000000), wk =   0.0094787
        k(  102) = (   0.4261905   0.4233393   0.0000000), wk =   0.0094787
        k(  103) = (   0.4238095   0.4276832   0.0000000), wk =   0.0094787
        k(  104) = (   0.4214286   0.4320271   0.0000000), wk =   0.0094787
        k(  105) = (   0.4190476   0.4363711   0.0000000), wk =   0.0094787
        k(  106) = (   0.4166667   0.4407150   0.0000000), wk =   0.0094787
        k(  107) = (   0.4142857   0.4450589   0.0000000), wk =   0.0094787
        k(  108) = (   0.4119048   0.4494028   0.0000000), wk =   0.0094787
        k(  109) = (   0.4095238   0.4537467   0.0000000), wk =   0.0094787
        k(  110) = (   0.4071429   0.4580906   0.0000000), wk =   0.0094787
        k(  111) = (   0.4047619   0.4624345   0.0000000), wk =   0.0094787
        k(  112) = (   0.4023810   0.4667785   0.0000000), wk =   0.0094787
        k(  113) = (   0.4000000   0.4711224   0.0000000), wk =   0.0094787
        k(  114) = (   0.3976190   0.4754663   0.0000000), wk =   0.0094787
        k(  115) = (   0.3952381   0.4798102   0.0000000), wk =   0.0094787
        k(  116) = (   0.3928571   0.4841541   0.0000000), wk =   0.0094787
        k(  117) = (   0.3904762   0.4884980   0.0000000), wk =   0.0094787
        k(  118) = (   0.3880952   0.4928420   0.0000000), wk =   0.0094787
        k(  119) = (   0.3857143   0.4971859   0.0000000), wk =   0.0094787
        k(  120) = (   0.3833333   0.5015298   0.0000000), wk =   0.0094787
        k(  121) = (   0.3809524   0.5058737   0.0000000), wk =   0.0094787
        k(  122) = (   0.3785714   0.5102176   0.0000000), wk =   0.0094787
        k(  123) = (   0.3761905   0.5145615   0.0000000), wk =   0.0094787
        k(  124) = (   0.3738095   0.5189054   0.0000000), wk =   0.0094787
        k(  125) = (   0.3714286   0.5232494   0.0000000), wk =   0.0094787
        k(  126) = (   0.3690476   0.5275933   0.0000000), wk =   0.0094787
        k(  127) = (   0.3666667   0.5319372   0.0000000), wk =   0.0094787
        k(  128) = (   0.3642857   0.5362811   0.0000000), wk =   0.0094787
        k(  129) = (   0.3619048   0.5406250   0.0000000), wk =   0.0094787
        k(  130) = (   0.3595238   0.5449689   0.0000000), wk =   0.0094787
        k(  131) = (   0.3571429   0.5493129   0.0000000), wk =   0.0094787
        k(  132) = (   0.3547619   0.5536568   0.0000000), wk =   0.0094787
        k(  133) = (   0.3523810   0.5580007   0.0000000), wk =   0.0094787
        k(  134) = (   0.3500000   0.5623446   0.0000000), wk =   0.0094787
        k(  135) = (   0.3476190   0.5666885   0.0000000), wk =   0.0094787
        k(  136) = (   0.3452381   0.5710324   0.0000000), wk =   0.0094787
        k(  137) = (   0.3428571   0.5753763   0.0000000), wk =   0.0094787
        k(  138) = (   0.3404762   0.5797203   0.0000000), wk =   0.0094787
        k(  139) = (   0.3380952   0.5840642   0.0000000), wk =   0.0094787
        k(  140) = (   0.3357143   0.5884081   0.0000000), wk =   0.0094787
        k(  141) = (   0.3333333   0.5927520   0.0000000), wk =   0.0094787
        k(  142) = (   0.3285714   0.5842841   0.0000000), wk =   0.0094787
        k(  143) = (   0.3238095   0.5758162   0.0000000), wk =   0.0094787
        k(  144) = (   0.3190476   0.5673484   0.0000000), wk =   0.0094787
        k(  145) = (   0.3142857   0.5588805   0.0000000), wk =   0.0094787
        k(  146) = (   0.3095238   0.5504126   0.0000000), wk =   0.0094787
        k(  147) = (   0.3047619   0.5419447   0.0000000), wk =   0.0094787
        k(  148) = (   0.3000000   0.5334768   0.0000000), wk =   0.0094787
        k(  149) = (   0.2952381   0.5250089   0.0000000), wk =   0.0094787
        k(  150) = (   0.2904762   0.5165410   0.0000000), wk =   0.0094787
        k(  151) = (   0.2857143   0.5080732   0.0000000), wk =   0.0094787
        k(  152) = (   0.2809524   0.4996053   0.0000000), wk =   0.0094787
        k(  153) = (   0.2761905   0.4911374   0.0000000), wk =   0.0094787
        k(  154) = (   0.2714286   0.4826695   0.0000000), wk =   0.0094787
        k(  155) = (   0.2666667   0.4742016   0.0000000), wk =   0.0094787
        k(  156) = (   0.2619048   0.4657337   0.0000000), wk =   0.0094787
        k(  157) = (   0.2571429   0.4572658   0.0000000), wk =   0.0094787
        k(  158) = (   0.2523810   0.4487979   0.0000000), wk =   0.0094787
        k(  159) = (   0.2476190   0.4403301   0.0000000), wk =   0.0094787
        k(  160) = (   0.2428571   0.4318622   0.0000000), wk =   0.0094787
        k(  161) = (   0.2380952   0.4233943   0.0000000), wk =   0.0094787
        k(  162) = (   0.2333333   0.4149264   0.0000000), wk =   0.0094787
        k(  163) = (   0.2285714   0.4064585   0.0000000), wk =   0.0094787
        k(  164) = (   0.2238095   0.3979906   0.0000000), wk =   0.0094787
        k(  165) = (   0.2190476   0.3895227   0.0000000), wk =   0.0094787
        k(  166) = (   0.2142857   0.3810549   0.0000000), wk =   0.0094787
        k(  167) = (   0.2095238   0.3725870   0.0000000), wk =   0.0094787
        k(  168) = (   0.2047619   0.3641191   0.0000000), wk =   0.0094787
        k(  169) = (   0.2000000   0.3556512   0.0000000), wk =   0.0094787
        k(  170) = (   0.1952381   0.3471833   0.0000000), wk =   0.0094787
        k(  171) = (   0.1904762   0.3387154   0.0000000), wk =   0.0094787
        k(  172) = (   0.1857143   0.3302475   0.0000000), wk =   0.0094787
        k(  173) = (   0.1809524   0.3217797   0.0000000), wk =   0.0094787
        k(  174) = (   0.1761905   0.3133118   0.0000000), wk =   0.0094787
        k(  175) = (   0.1714286   0.3048439   0.0000000), wk =   0.0094787
        k(  176) = (   0.1666667   0.2963760   0.0000000), wk =   0.0094787
        k(  177) = (   0.1619048   0.2879081   0.0000000), wk =   0.0094787
        k(  178) = (   0.1571429   0.2794402   0.0000000), wk =   0.0094787
        k(  179) = (   0.1523810   0.2709723   0.0000000), wk =   0.0094787
        k(  180) = (   0.1476190   0.2625045   0.0000000), wk =   0.0094787
        k(  181) = (   0.1428571   0.2540366   0.0000000), wk =   0.0094787
        k(  182) = (   0.1380952   0.2455687   0.0000000), wk =   0.0094787
        k(  183) = (   0.1333333   0.2371008   0.0000000), wk =   0.0094787
        k(  184) = (   0.1285714   0.2286329   0.0000000), wk =   0.0094787
        k(  185) = (   0.1238095   0.2201650   0.0000000), wk =   0.0094787
        k(  186) = (   0.1190476   0.2116971   0.0000000), wk =   0.0094787
        k(  187) = (   0.1142857   0.2032293   0.0000000), wk =   0.0094787
        k(  188) = (   0.1095238   0.1947614   0.0000000), wk =   0.0094787
        k(  189) = (   0.1047619   0.1862935   0.0000000), wk =   0.0094787
        k(  190) = (   0.1000000   0.1778256   0.0000000), wk =   0.0094787
        k(  191) = (   0.0952381   0.1693577   0.0000000), wk =   0.0094787
        k(  192) = (   0.0904762   0.1608898   0.0000000), wk =   0.0094787
        k(  193) = (   0.0857143   0.1524219   0.0000000), wk =   0.0094787
        k(  194) = (   0.0809524   0.1439541   0.0000000), wk =   0.0094787
        k(  195) = (   0.0761905   0.1354862   0.0000000), wk =   0.0094787
        k(  196) = (   0.0714286   0.1270183   0.0000000), wk =   0.0094787
        k(  197) = (   0.0666667   0.1185504   0.0000000), wk =   0.0094787
        k(  198) = (   0.0619048   0.1100825   0.0000000), wk =   0.0094787
        k(  199) = (   0.0571429   0.1016146   0.0000000), wk =   0.0094787
        k(  200) = (   0.0523810   0.0931467   0.0000000), wk =   0.0094787
        k(  201) = (   0.0476190   0.0846789   0.0000000), wk =   0.0094787
        k(  202) = (   0.0428571   0.0762110   0.0000000), wk =   0.0094787
        k(  203) = (   0.0380952   0.0677431   0.0000000), wk =   0.0094787
        k(  204) = (   0.0333333   0.0592752   0.0000000), wk =   0.0094787
        k(  205) = (   0.0285714   0.0508073   0.0000000), wk =   0.0094787
        k(  206) = (   0.0238095   0.0423394   0.0000000), wk =   0.0094787
        k(  207) = (   0.0190476   0.0338715   0.0000000), wk =   0.0094787
        k(  208) = (   0.0142857   0.0254037   0.0000000), wk =   0.0094787
        k(  209) = (   0.0095238   0.0169358   0.0000000), wk =   0.0094787
        k(  210) = (   0.0047619   0.0084679   0.0000000), wk =   0.0094787
        k(  211) = (   0.0000000   0.0000000   0.0000000), wk =   0.0094787

                       cryst. coord.
        k(    1) = (   0.0000000   0.0000000   0.0000000), wk =   0.0094787
        k(    2) = (   0.0071429   0.0000000   0.0000000), wk =   0.0094787
        k(    3) = (   0.0142857   0.0000000   0.0000000), wk =   0.0094787
        k(    4) = (   0.0214286   0.0000000   0.0000000), wk =   0.0094787
        k(    5) = (   0.0285714   0.0000000   0.0000000), wk =   0.0094787
        k(    6) = (   0.0357143   0.0000000   0.0000000), wk =   0.0094787
        k(    7) = (   0.0428571   0.0000000   0.0000000), wk =   0.0094787
        k(    8) = (   0.0500000   0.0000000   0.0000000), wk =   0.0094787
        k(    9) = (   0.0571429   0.0000000   0.0000000), wk =   0.0094787
        k(   10) = (   0.0642857   0.0000000   0.0000000), wk =   0.0094787
        k(   11) = (   0.0714286   0.0000000   0.0000000), wk =   0.0094787
        k(   12) = (   0.0785714   0.0000000   0.0000000), wk =   0.0094787
        k(   13) = (   0.0857143   0.0000000   0.0000000), wk =   0.0094787
        k(   14) = (   0.0928571   0.0000000   0.0000000), wk =   0.0094787
        k(   15) = (   0.1000000   0.0000000   0.0000000), wk =   0.0094787
        k(   16) = (   0.1071429   0.0000000   0.0000000), wk =   0.0094787
        k(   17) = (   0.1142857   0.0000000   0.0000000), wk =   0.0094787
        k(   18) = (   0.1214286   0.0000000   0.0000000), wk =   0.0094787
        k(   19) = (   0.1285714   0.0000000   0.0000000), wk =   0.0094787
        k(   20) = (   0.1357143   0.0000000   0.0000000), wk =   0.0094787
        k(   21) = (   0.1428571   0.0000000   0.0000000), wk =   0.0094787
        k(   22) = (   0.1500000   0.0000000   0.0000000), wk =   0.0094787
        k(   23) = (   0.1571429   0.0000000   0.0000000), wk =   0.0094787
        k(   24) = (   0.1642857   0.0000000   0.0000000), wk =   0.0094787
        k(   25) = (   0.1714286   0.0000000   0.0000000), wk =   0.0094787
        k(   26) = (   0.1785714   0.0000000   0.0000000), wk =   0.0094787
        k(   27) = (   0.1857143   0.0000000   0.0000000), wk =   0.0094787
        k(   28) = (   0.1928571   0.0000000   0.0000000), wk =   0.0094787
        k(   29) = (   0.2000000   0.0000000   0.0000000), wk =   0.0094787
        k(   30) = (   0.2071429   0.0000000   0.0000000), wk =   0.0094787
        k(   31) = (   0.2142857   0.0000000   0.0000000), wk =   0.0094787
        k(   32) = (   0.2214286   0.0000000   0.0000000), wk =   0.0094787
        k(   33) = (   0.2285714   0.0000000   0.0000000), wk =   0.0094787
        k(   34) = (   0.2357143   0.0000000   0.0000000), wk =   0.0094787
        k(   35) = (   0.2428571   0.0000000   0.0000000), wk =   0.0094787
        k(   36) = (   0.2500000   0.0000000   0.0000000), wk =   0.0094787
        k(   37) = (   0.2571429   0.0000000   0.0000000), wk =   0.0094787
        k(   38) = (   0.2642857   0.0000000   0.0000000), wk =   0.0094787
        k(   39) = (   0.2714286   0.0000000   0.0000000), wk =   0.0094787
        k(   40) = (   0.2785714   0.0000000   0.0000000), wk =   0.0094787
        k(   41) = (   0.2857143   0.0000000   0.0000000), wk =   0.0094787
        k(   42) = (   0.2928571   0.0000000   0.0000000), wk =   0.0094787
        k(   43) = (   0.3000000   0.0000000   0.0000000), wk =   0.0094787
        k(   44) = (   0.3071429   0.0000000   0.0000000), wk =   0.0094787
        k(   45) = (   0.3142857   0.0000000   0.0000000), wk =   0.0094787
        k(   46) = (   0.3214286   0.0000000   0.0000000), wk =   0.0094787
        k(   47) = (   0.3285714   0.0000000   0.0000000), wk =   0.0094787
        k(   48) = (   0.3357143   0.0000000   0.0000000), wk =   0.0094787
        k(   49) = (   0.3428571   0.0000000   0.0000000), wk =   0.0094787
        k(   50) = (   0.3500000   0.0000000   0.0000000), wk =   0.0094787
        k(   51) = (   0.3571429   0.0000000   0.0000000), wk =   0.0094787
        k(   52) = (   0.3642857   0.0000000   0.0000000), wk =   0.0094787
        k(   53) = (   0.3714286   0.0000000   0.0000000), wk =   0.0094787
        k(   54) = (   0.3785714   0.0000000   0.0000000), wk =   0.0094787
        k(   55) = (   0.3857143   0.0000000   0.0000000), wk =   0.0094787
        k(   56) = (   0.3928571   0.0000000   0.0000000), wk =   0.0094787
        k(   57) = (   0.4000000   0.0000000   0.0000000), wk =   0.0094787
        k(   58) = (   0.4071429   0.0000000   0.0000000), wk =   0.0094787
        k(   59) = (   0.4142857   0.0000000   0.0000000), wk =   0.0094787
        k(   60) = (   0.4214286   0.0000000   0.0000000), wk =   0.0094787
        k(   61) = (   0.4285714   0.0000000   0.0000000), wk =   0.0094787
        k(   62) = (   0.4357143   0.0000000   0.0000000), wk =   0.0094787
        k(   63) = (   0.4428571   0.0000000   0.0000000), wk =   0.0094787
        k(   64) = (   0.4500000   0.0000000   0.0000000), wk =   0.0094787
        k(   65) = (   0.4571429   0.0000000   0.0000000), wk =   0.0094787
        k(   66) = (   0.4642857   0.0000000   0.0000000), wk =   0.0094787
        k(   67) = (   0.4714286   0.0000000   0.0000000), wk =   0.0094787
        k(   68) = (   0.4785714   0.0000000   0.0000000), wk =   0.0094787
        k(   69) = (   0.4857143   0.0000000   0.0000000), wk =   0.0094787
        k(   70) = (   0.4928571   0.0000000   0.0000000), wk =   0.0094787
        k(   71) = (   0.5000000   0.0000000   0.0000000), wk =   0.0094787
        k(   72) = (   0.4976190   0.0047619   0.0000000), wk =   0.0094787
        k(   73) = (   0.4952381   0.0095238   0.0000000), wk =   0.0094787
        k(   74) = (   0.4928571   0.0142857   0.0000000), wk =   0.0094787
        k(   75) = (   0.4904762   0.0190476   0.0000000), wk =   0.0094787
        k(   76) = (   0.4880952   0.0238095   0.0000000), wk =   0.0094787
        k(   77) = (   0.4857143   0.0285714   0.0000000), wk =   0.0094787
        k(   78) = (   0.4833333   0.0333333   0.0000000), wk =   0.0094787
        k(   79) = (   0.4809524   0.0380952   0.0000000), wk =   0.0094787
        k(   80) = (   0.4785714   0.0428571   0.0000000), wk =   0.0094787
        k(   81) = (   0.4761905   0.0476190   0.0000000), wk =   0.0094787
        k(   82) = (   0.4738095   0.0523810   0.0000000), wk =   0.0094787
        k(   83) = (   0.4714286   0.0571429   0.0000000), wk =   0.0094787
        k(   84) = (   0.4690476   0.0619048   0.0000000), wk =   0.0094787
        k(   85) = (   0.4666667   0.0666667   0.0000000), wk =   0.0094787
        k(   86) = (   0.4642857   0.0714286   0.0000000), wk =   0.0094787
        k(   87) = (   0.4619048   0.0761905   0.0000000), wk =   0.0094787
        k(   88) = (   0.4595238   0.0809524   0.0000000), wk =   0.0094787
        k(   89) = (   0.4571429   0.0857143   0.0000000), wk =   0.0094787
        k(   90) = (   0.4547619   0.0904762   0.0000000), wk =   0.0094787
        k(   91) = (   0.4523810   0.0952381   0.0000000), wk =   0.0094787
        k(   92) = (   0.4500000   0.1000000   0.0000000), wk =   0.0094787
        k(   93) = (   0.4476190   0.1047619   0.0000000), wk =   0.0094787
        k(   94) = (   0.4452381   0.1095238   0.0000000), wk =   0.0094787
        k(   95) = (   0.4428571   0.1142857   0.0000000), wk =   0.0094787
        k(   96) = (   0.4404762   0.1190476   0.0000000), wk =   0.0094787
        k(   97) = (   0.4380952   0.1238095   0.0000000), wk =   0.0094787
        k(   98) = (   0.4357143   0.1285714   0.0000000), wk =   0.0094787
        k(   99) = (   0.4333333   0.1333333   0.0000000), wk =   0.0094787
        k(  100) = (   0.4309524   0.1380952   0.0000000), wk =   0.0094787
        k(  101) = (   0.4285714   0.1428571   0.0000000), wk =   0.0094787
        k(  102) = (   0.4261905   0.1476190   0.0000000), wk =   0.0094787
        k(  103) = (   0.4238095   0.1523810   0.0000000), wk =   0.0094787
        k(  104) = (   0.4214286   0.1571429   0.0000000), wk =   0.0094787
        k(  105) = (   0.4190476   0.1619048   0.0000000), wk =   0.0094787
        k(  106) = (   0.4166667   0.1666667   0.0000000), wk =   0.0094787
        k(  107) = (   0.4142857   0.1714286   0.0000000), wk =   0.0094787
        k(  108) = (   0.4119048   0.1761905   0.0000000), wk =   0.0094787
        k(  109) = (   0.4095238   0.1809524   0.0000000), wk =   0.0094787
        k(  110) = (   0.4071429   0.1857143   0.0000000), wk =   0.0094787
        k(  111) = (   0.4047619   0.1904762   0.0000000), wk =   0.0094787
        k(  112) = (   0.4023810   0.1952381   0.0000000), wk =   0.0094787
        k(  113) = (   0.4000000   0.2000000   0.0000000), wk =   0.0094787
        k(  114) = (   0.3976190   0.2047619   0.0000000), wk =   0.0094787
        k(  115) = (   0.3952381   0.2095238   0.0000000), wk =   0.0094787
        k(  116) = (   0.3928571   0.2142857   0.0000000), wk =   0.0094787
        k(  117) = (   0.3904762   0.2190476   0.0000000), wk =   0.0094787
        k(  118) = (   0.3880952   0.2238095   0.0000000), wk =   0.0094787
        k(  119) = (   0.3857143   0.2285714   0.0000000), wk =   0.0094787
        k(  120) = (   0.3833333   0.2333333   0.0000000), wk =   0.0094787
        k(  121) = (   0.3809524   0.2380952   0.0000000), wk =   0.0094787
        k(  122) = (   0.3785714   0.2428571   0.0000000), wk =   0.0094787
        k(  123) = (   0.3761905   0.2476190   0.0000000), wk =   0.0094787
        k(  124) = (   0.3738095   0.2523810   0.0000000), wk =   0.0094787
        k(  125) = (   0.3714286   0.2571429   0.0000000), wk =   0.0094787
        k(  126) = (   0.3690476   0.2619048   0.0000000), wk =   0.0094787
        k(  127) = (   0.3666667   0.2666667   0.0000000), wk =   0.0094787
        k(  128) = (   0.3642857   0.2714286   0.0000000), wk =   0.0094787
        k(  129) = (   0.3619048   0.2761905   0.0000000), wk =   0.0094787
        k(  130) = (   0.3595238   0.2809524   0.0000000), wk =   0.0094787
        k(  131) = (   0.3571429   0.2857143   0.0000000), wk =   0.0094787
        k(  132) = (   0.3547619   0.2904762   0.0000000), wk =   0.0094787
        k(  133) = (   0.3523810   0.2952381   0.0000000), wk =   0.0094787
        k(  134) = (   0.3500000   0.3000000   0.0000000), wk =   0.0094787
        k(  135) = (   0.3476190   0.3047619   0.0000000), wk =   0.0094787
        k(  136) = (   0.3452381   0.3095238   0.0000000), wk =   0.0094787
        k(  137) = (   0.3428571   0.3142857   0.0000000), wk =   0.0094787
        k(  138) = (   0.3404762   0.3190476   0.0000000), wk =   0.0094787
        k(  139) = (   0.3380952   0.3238095   0.0000000), wk =   0.0094787
        k(  140) = (   0.3357143   0.3285714   0.0000000), wk =   0.0094787
        k(  141) = (   0.3333333   0.3333333   0.0000000), wk =   0.0094787
        k(  142) = (   0.3285714   0.3285714   0.0000000), wk =   0.0094787
        k(  143) = (   0.3238095   0.3238095   0.0000000), wk =   0.0094787
        k(  144) = (   0.3190476   0.3190476   0.0000000), wk =   0.0094787
        k(  145) = (   0.3142857   0.3142857   0.0000000), wk =   0.0094787
        k(  146) = (   0.3095238   0.3095238   0.0000000), wk =   0.0094787
        k(  147) = (   0.3047619   0.3047619   0.0000000), wk =   0.0094787
        k(  148) = (   0.3000000   0.3000000   0.0000000), wk =   0.0094787
        k(  149) = (   0.2952381   0.2952381   0.0000000), wk =   0.0094787
        k(  150) = (   0.2904762   0.2904762   0.0000000), wk =   0.0094787
        k(  151) = (   0.2857143   0.2857143   0.0000000), wk =   0.0094787
        k(  152) = (   0.2809524   0.2809524   0.0000000), wk =   0.0094787
        k(  153) = (   0.2761905   0.2761905   0.0000000), wk =   0.0094787
        k(  154) = (   0.2714286   0.2714286   0.0000000), wk =   0.0094787
        k(  155) = (   0.2666667   0.2666667   0.0000000), wk =   0.0094787
        k(  156) = (   0.2619048   0.2619048   0.0000000), wk =   0.0094787
        k(  157) = (   0.2571429   0.2571429   0.0000000), wk =   0.0094787
        k(  158) = (   0.2523810   0.2523810   0.0000000), wk =   0.0094787
        k(  159) = (   0.2476190   0.2476190   0.0000000), wk =   0.0094787
        k(  160) = (   0.2428571   0.2428571   0.0000000), wk =   0.0094787
        k(  161) = (   0.2380952   0.2380952   0.0000000), wk =   0.0094787
        k(  162) = (   0.2333333   0.2333333   0.0000000), wk =   0.0094787
        k(  163) = (   0.2285714   0.2285714   0.0000000), wk =   0.0094787
        k(  164) = (   0.2238095   0.2238095   0.0000000), wk =   0.0094787
        k(  165) = (   0.2190476   0.2190476   0.0000000), wk =   0.0094787
        k(  166) = (   0.2142857   0.2142857   0.0000000), wk =   0.0094787
        k(  167) = (   0.2095238   0.2095238   0.0000000), wk =   0.0094787
        k(  168) = (   0.2047619   0.2047619   0.0000000), wk =   0.0094787
        k(  169) = (   0.2000000   0.2000000   0.0000000), wk =   0.0094787
        k(  170) = (   0.1952381   0.1952381   0.0000000), wk =   0.0094787
        k(  171) = (   0.1904762   0.1904762   0.0000000), wk =   0.0094787
        k(  172) = (   0.1857143   0.1857143   0.0000000), wk =   0.0094787
        k(  173) = (   0.1809524   0.1809524   0.0000000), wk =   0.0094787
        k(  174) = (   0.1761905   0.1761905   0.0000000), wk =   0.0094787
        k(  175) = (   0.1714286   0.1714286   0.0000000), wk =   0.0094787
        k(  176) = (   0.1666667   0.1666667   0.0000000), wk =   0.0094787
        k(  177) = (   0.1619048   0.1619048   0.0000000), wk =   0.0094787
        k(  178) = (   0.1571429   0.1571429   0.0000000), wk =   0.0094787
        k(  179) = (   0.1523810   0.1523810   0.0000000), wk =   0.0094787
        k(  180) = (   0.1476190   0.1476190   0.0000000), wk =   0.0094787
        k(  181) = (   0.1428571   0.1428571   0.0000000), wk =   0.0094787
        k(  182) = (   0.1380952   0.1380952   0.0000000), wk =   0.0094787
        k(  183) = (   0.1333333   0.1333333   0.0000000), wk =   0.0094787
        k(  184) = (   0.1285714   0.1285714   0.0000000), wk =   0.0094787
        k(  185) = (   0.1238095   0.1238095   0.0000000), wk =   0.0094787
        k(  186) = (   0.1190476   0.1190476   0.0000000), wk =   0.0094787
        k(  187) = (   0.1142857   0.1142857   0.0000000), wk =   0.0094787
        k(  188) = (   0.1095238   0.1095238   0.0000000), wk =   0.0094787
        k(  189) = (   0.1047619   0.1047619   0.0000000), wk =   0.0094787
        k(  190) = (   0.1000000   0.1000000   0.0000000), wk =   0.0094787
        k(  191) = (   0.0952381   0.0952381   0.0000000), wk =   0.0094787
        k(  192) = (   0.0904762   0.0904762   0.0000000), wk =   0.0094787
        k(  193) = (   0.0857143   0.0857143   0.0000000), wk =   0.0094787
        k(  194) = (   0.0809524   0.0809524   0.0000000), wk =   0.0094787
        k(  195) = (   0.0761905   0.0761905   0.0000000), wk =   0.0094787
        k(  196) = (   0.0714286   0.0714286   0.0000000), wk =   0.0094787
        k(  197) = (   0.0666667   0.0666667   0.0000000), wk =   0.0094787
        k(  198) = (   0.0619048   0.0619048   0.0000000), wk =   0.0094787
        k(  199) = (   0.0571429   0.0571429   0.0000000), wk =   0.0094787
        k(  200) = (   0.0523810   0.0523810   0.0000000), wk =   0.0094787
        k(  201) = (   0.0476190   0.0476190   0.0000000), wk =   0.0094787
        k(  202) = (   0.0428571   0.0428571   0.0000000), wk =   0.0094787
        k(  203) = (   0.0380952   0.0380952   0.0000000), wk =   0.0094787
        k(  204) = (   0.0333333   0.0333333   0.0000000), wk =   0.0094787
        k(  205) = (   0.0285714   0.0285714   0.0000000), wk =   0.0094787
        k(  206) = (   0.0238095   0.0238095   0.0000000), wk =   0.0094787
        k(  207) = (   0.0190476   0.0190476   0.0000000), wk =   0.0094787
        k(  208) = (   0.0142857   0.0142857   0.0000000), wk =   0.0094787
        k(  209) = (   0.0095238   0.0095238   0.0000000), wk =   0.0094787
        k(  210) = (   0.0047619   0.0047619   0.0000000), wk =   0.0094787
        k(  211) = (   0.0000000   0.0000000   0.0000000), wk =   0.0094787

     Dense  grid:   472441 G-vectors     FFT dimensions: (  64,  60, 300)

     Smooth grid:   119521 G-vectors     FFT dimensions: (  40,  40, 192)

     Dynamical RAM for                 wfc:       0.95 MB

     Dynamical RAM for     wfc (w. buffer):       0.95 MB

     Dynamical RAM for           str. fact:       0.60 MB

     Dynamical RAM for           local pot:       0.00 MB

     Dynamical RAM for          nlocal pot:       0.85 MB

     Dynamical RAM for                qrad:       3.59 MB

     Dynamical RAM for          rho,v,vnew:       2.04 MB

     Dynamical RAM for           G-vectors:       1.16 MB

     Dynamical RAM for          h,s,v(r/c):       1.83 MB

     Dynamical RAM for          <psi|beta>:       0.14 MB

     Dynamical RAM for                 psi:       1.90 MB

     Dynamical RAM for                hpsi:       1.90 MB

     Dynamical RAM for      wfcinit/wfcrot:       2.13 MB

     Estimated static dynamical RAM per process >      12.01 MB

     Estimated max dynamical RAM per process >      17.77 MB

     Estimated total dynamical RAM >     426.52 MB

     The potential is recalculated from file :
     tmp/Sb2Te3-uatsx-c1-4.0.save/charge-density

     Starting wfcs are random

     Band Structure Calculation
     Davidson diagonalization with overlap

     Computing kpt #:     1  of   211
     total cpu time spent up to now is        4.2 secs

     Computing kpt #:     2  of   211
     total cpu time spent up to now is        6.8 secs

     Computing kpt #:     3  of   211
     total cpu time spent up to now is        9.2 secs

     Computing kpt #:     4  of   211
     total cpu time spent up to now is       11.7 secs

     Computing kpt #:     5  of   211
     total cpu time spent up to now is       14.2 secs

     Computing kpt #:     6  of   211
     total cpu time spent up to now is       16.7 secs

     Computing kpt #:     7  of   211
     total cpu time spent up to now is       18.9 secs

     Computing kpt #:     8  of   211
     total cpu time spent up to now is       21.0 secs

     Computing kpt #:     9  of   211
     total cpu time spent up to now is       23.1 secs

     Computing kpt #:    10  of   211
     total cpu time spent up to now is       25.2 secs

     Computing kpt #:    11  of   211
     total cpu time spent up to now is       27.2 secs

     Computing kpt #:    12  of   211
     total cpu time spent up to now is       29.1 secs

     Computing kpt #:    13  of   211
     total cpu time spent up to now is       31.1 secs

     Computing kpt #:    14  of   211
     total cpu time spent up to now is       33.2 secs

     Computing kpt #:    15  of   211
     total cpu time spent up to now is       35.2 secs

     Computing kpt #:    16  of   211
     total cpu time spent up to now is       37.5 secs

     Computing kpt #:    17  of   211
     total cpu time spent up to now is       39.7 secs

     Computing kpt #:    18  of   211
     total cpu time spent up to now is       42.2 secs

     Computing kpt #:    19  of   211
     total cpu time spent up to now is       44.7 secs

     Computing kpt #:    20  of   211
     total cpu time spent up to now is       47.2 secs

     Computing kpt #:    21  of   211
     total cpu time spent up to now is       49.8 secs

     Computing kpt #:    22  of   211
     total cpu time spent up to now is       52.4 secs

     Computing kpt #:    23  of   211
     total cpu time spent up to now is       54.8 secs

     Computing kpt #:    24  of   211
     total cpu time spent up to now is       57.4 secs

     Computing kpt #:    25  of   211
     total cpu time spent up to now is       59.8 secs

     Computing kpt #:    26  of   211
     total cpu time spent up to now is       62.1 secs

     Computing kpt #:    27  of   211
     total cpu time spent up to now is       64.4 secs

     Computing kpt #:    28  of   211
     total cpu time spent up to now is       66.7 secs

     Computing kpt #:    29  of   211
     total cpu time spent up to now is       68.9 secs

     Computing kpt #:    30  of   211
     total cpu time spent up to now is       71.3 secs

     Computing kpt #:    31  of   211
     total cpu time spent up to now is       73.8 secs

     Computing kpt #:    32  of   211
     total cpu time spent up to now is       76.1 secs

     Computing kpt #:    33  of   211
     total cpu time spent up to now is       78.6 secs

     Computing kpt #:    34  of   211
     total cpu time spent up to now is       80.8 secs

     Computing kpt #:    35  of   211
     total cpu time spent up to now is       83.1 secs

     Computing kpt #:    36  of   211
     total cpu time spent up to now is       85.2 secs

     Computing kpt #:    37  of   211
     total cpu time spent up to now is       87.4 secs

     Computing kpt #:    38  of   211
     total cpu time spent up to now is       89.4 secs

     Computing kpt #:    39  of   211
     total cpu time spent up to now is       91.6 secs

     Computing kpt #:    40  of   211
     total cpu time spent up to now is       93.7 secs

     Computing kpt #:    41  of   211
     total cpu time spent up to now is       96.4 secs

     Computing kpt #:    42  of   211
     total cpu time spent up to now is       99.3 secs

     Computing kpt #:    43  of   211
     total cpu time spent up to now is      101.5 secs

     Computing kpt #:    44  of   211
     total cpu time spent up to now is      103.6 secs

     Computing kpt #:    45  of   211
     total cpu time spent up to now is      105.7 secs

     Computing kpt #:    46  of   211
     total cpu time spent up to now is      107.9 secs

     Computing kpt #:    47  of   211
     total cpu time spent up to now is      109.8 secs

     Computing kpt #:    48  of   211
     total cpu time spent up to now is      111.7 secs

     Computing kpt #:    49  of   211
     total cpu time spent up to now is      113.7 secs

     Computing kpt #:    50  of   211
     total cpu time spent up to now is      115.6 secs

     Computing kpt #:    51  of   211
     total cpu time spent up to now is      117.6 secs

     Computing kpt #:    52  of   211
     total cpu time spent up to now is      119.5 secs

     Computing kpt #:    53  of   211
     total cpu time spent up to now is      121.5 secs

     Computing kpt #:    54  of   211
     total cpu time spent up to now is      123.4 secs

     Computing kpt #:    55  of   211
     total cpu time spent up to now is      125.5 secs

     Computing kpt #:    56  of   211
     total cpu time spent up to now is      127.6 secs

     Computing kpt #:    57  of   211
     total cpu time spent up to now is      129.6 secs

     Computing kpt #:    58  of   211
     total cpu time spent up to now is      131.7 secs

     Computing kpt #:    59  of   211
     total cpu time spent up to now is      133.9 secs

     Computing kpt #:    60  of   211
     total cpu time spent up to now is      136.1 secs

     Computing kpt #:    61  of   211
     total cpu time spent up to now is      138.3 secs

     Computing kpt #:    62  of   211
     total cpu time spent up to now is      140.9 secs

     Computing kpt #:    63  of   211
     total cpu time spent up to now is      143.4 secs

     Computing kpt #:    64  of   211
     total cpu time spent up to now is      145.8 secs

     Computing kpt #:    65  of   211
     total cpu time spent up to now is      148.4 secs

     Computing kpt #:    66  of   211
     total cpu time spent up to now is      150.9 secs

     Computing kpt #:    67  of   211
     total cpu time spent up to now is      153.3 secs

     Computing kpt #:    68  of   211
     total cpu time spent up to now is      155.6 secs

     Computing kpt #:    69  of   211
     total cpu time spent up to now is      157.8 secs

     Computing kpt #:    70  of   211
     total cpu time spent up to now is      160.2 secs

     Computing kpt #:    71  of   211
     total cpu time spent up to now is      162.5 secs

     Computing kpt #:    72  of   211
     total cpu time spent up to now is      164.9 secs

     Computing kpt #:    73  of   211
     total cpu time spent up to now is      167.2 secs

     Computing kpt #:    74  of   211
     total cpu time spent up to now is      169.5 secs

     Computing kpt #:    75  of   211
     total cpu time spent up to now is      171.9 secs

     Computing kpt #:    76  of   211
     total cpu time spent up to now is      174.4 secs

     Computing kpt #:    77  of   211
     total cpu time spent up to now is      176.6 secs

     Computing kpt #:    78  of   211
     total cpu time spent up to now is      178.9 secs

     Computing kpt #:    79  of   211
     total cpu time spent up to now is      181.2 secs

     Computing kpt #:    80  of   211
     total cpu time spent up to now is      183.5 secs

     Computing kpt #:    81  of   211
     total cpu time spent up to now is      185.8 secs

     Computing kpt #:    82  of   211
     total cpu time spent up to now is      188.1 secs

     Computing kpt #:    83  of   211
     total cpu time spent up to now is      190.3 secs

     Computing kpt #:    84  of   211
     total cpu time spent up to now is      192.6 secs

     Computing kpt #:    85  of   211
     total cpu time spent up to now is      194.8 secs

     Computing kpt #:    86  of   211
     total cpu time spent up to now is      196.9 secs

     Computing kpt #:    87  of   211
     total cpu time spent up to now is      199.0 secs

     Computing kpt #:    88  of   211
     total cpu time spent up to now is      201.4 secs

     Computing kpt #:    89  of   211
     total cpu time spent up to now is      203.7 secs

     Computing kpt #:    90  of   211
     total cpu time spent up to now is      206.0 secs

     Computing kpt #:    91  of   211
     total cpu time spent up to now is      208.4 secs

     Computing kpt #:    92  of   211
     total cpu time spent up to now is      210.9 secs

     Computing kpt #:    93  of   211
     total cpu time spent up to now is      213.3 secs

     Computing kpt #:    94  of   211
     total cpu time spent up to now is      215.9 secs

     Computing kpt #:    95  of   211
     total cpu time spent up to now is      218.4 secs

     Computing kpt #:    96  of   211
     total cpu time spent up to now is      220.8 secs

     Computing kpt #:    97  of   211
     total cpu time spent up to now is      223.3 secs

     Computing kpt #:    98  of   211
     total cpu time spent up to now is      225.6 secs

     Computing kpt #:    99  of   211
     total cpu time spent up to now is      228.1 secs

     Computing kpt #:   100  of   211
     total cpu time spent up to now is      230.5 secs

     Computing kpt #:   101  of   211
     total cpu time spent up to now is      232.8 secs

     Computing kpt #:   102  of   211
     total cpu time spent up to now is      235.1 secs

     Computing kpt #:   103  of   211
     total cpu time spent up to now is      237.4 secs

     Computing kpt #:   104  of   211
     total cpu time spent up to now is      239.7 secs

     Computing kpt #:   105  of   211
     total cpu time spent up to now is      242.1 secs

     Computing kpt #:   106  of   211
     total cpu time spent up to now is      244.6 secs

     Computing kpt #:   107  of   211
     total cpu time spent up to now is      246.9 secs

     Computing kpt #:   108  of   211
     total cpu time spent up to now is      249.2 secs

     Computing kpt #:   109  of   211
     total cpu time spent up to now is      251.7 secs

     Computing kpt #:   110  of   211
     total cpu time spent up to now is      254.0 secs

     Computing kpt #:   111  of   211
     total cpu time spent up to now is      256.3 secs

     Computing kpt #:   112  of   211
     total cpu time spent up to now is      258.5 secs

     Computing kpt #:   113  of   211
     total cpu time spent up to now is      260.7 secs

     Computing kpt #:   114  of   211
     total cpu time spent up to now is      262.8 secs

     Computing kpt #:   115  of   211
     total cpu time spent up to now is      265.0 secs

     Computing kpt #:   116  of   211
     total cpu time spent up to now is      267.3 secs

     Computing kpt #:   117  of   211
     total cpu time spent up to now is      269.9 secs

     Computing kpt #:   118  of   211
     total cpu time spent up to now is      272.2 secs

     Computing kpt #:   119  of   211
     total cpu time spent up to now is      274.8 secs

     Computing kpt #:   120  of   211
     total cpu time spent up to now is      277.4 secs

     Computing kpt #:   121  of   211
     total cpu time spent up to now is      279.8 secs

     Computing kpt #:   122  of   211
     total cpu time spent up to now is      282.3 secs

     Computing kpt #:   123  of   211
     total cpu time spent up to now is      284.9 secs

     Computing kpt #:   124  of   211
     c_bands:  1 eigenvalues not converged
     total cpu time spent up to now is      288.3 secs

     Computing kpt #:   125  of   211
     total cpu time spent up to now is      290.8 secs

     Computing kpt #:   126  of   211
     total cpu time spent up to now is      293.4 secs

     Computing kpt #:   127  of   211
     total cpu time spent up to now is      296.0 secs

     Computing kpt #:   128  of   211
     total cpu time spent up to now is      298.3 secs

     Computing kpt #:   129  of   211
     total cpu time spent up to now is      300.9 secs

     Computing kpt #:   130  of   211
     total cpu time spent up to now is      303.6 secs

     Computing kpt #:   131  of   211
     total cpu time spent up to now is      306.1 secs

     Computing kpt #:   132  of   211
     total cpu time spent up to now is      308.6 secs

     Computing kpt #:   133  of   211
     total cpu time spent up to now is      311.2 secs

     Computing kpt #:   134  of   211
     total cpu time spent up to now is      314.0 secs

     Computing kpt #:   135  of   211
     total cpu time spent up to now is      316.4 secs

     Computing kpt #:   136  of   211
     total cpu time spent up to now is      319.0 secs

     Computing kpt #:   137  of   211
     total cpu time spent up to now is      321.6 secs

     Computing kpt #:   138  of   211
     total cpu time spent up to now is      324.2 secs

     Computing kpt #:   139  of   211
     total cpu time spent up to now is      326.9 secs

     Computing kpt #:   140  of   211
     total cpu time spent up to now is      329.5 secs

     Computing kpt #:   141  of   211
     total cpu time spent up to now is      332.1 secs

     Computing kpt #:   142  of   211
     total cpu time spent up to now is      334.7 secs

     Computing kpt #:   143  of   211
     total cpu time spent up to now is      337.5 secs

     Computing kpt #:   144  of   211
     total cpu time spent up to now is      340.1 secs

     Computing kpt #:   145  of   211
     total cpu time spent up to now is      342.5 secs

     Computing kpt #:   146  of   211
     total cpu time spent up to now is      344.8 secs

     Computing kpt #:   147  of   211
     total cpu time spent up to now is      347.2 secs

     Computing kpt #:   148  of   211
     total cpu time spent up to now is      349.7 secs

     Computing kpt #:   149  of   211
     total cpu time spent up to now is      352.3 secs

     Computing kpt #:   150  of   211
     total cpu time spent up to now is      354.7 secs

     Computing kpt #:   151  of   211
     total cpu time spent up to now is      357.1 secs

     Computing kpt #:   152  of   211
     total cpu time spent up to now is      359.4 secs

     Computing kpt #:   153  of   211
     total cpu time spent up to now is      361.9 secs

     Computing kpt #:   154  of   211
     total cpu time spent up to now is      364.3 secs

     Computing kpt #:   155  of   211
     total cpu time spent up to now is      366.6 secs

     Computing kpt #:   156  of   211
     total cpu time spent up to now is      368.9 secs

     Computing kpt #:   157  of   211
     total cpu time spent up to now is      371.2 secs

     Computing kpt #:   158  of   211
     total cpu time spent up to now is      373.5 secs

     Computing kpt #:   159  of   211
     total cpu time spent up to now is      375.8 secs

     Computing kpt #:   160  of   211
     total cpu time spent up to now is      378.1 secs

     Computing kpt #:   161  of   211
     total cpu time spent up to now is      380.7 secs

     Computing kpt #:   162  of   211
     total cpu time spent up to now is      383.3 secs

     Computing kpt #:   163  of   211
     total cpu time spent up to now is      385.6 secs

     Computing kpt #:   164  of   211
     total cpu time spent up to now is      387.9 secs

     Computing kpt #:   165  of   211
     total cpu time spent up to now is      390.1 secs

     Computing kpt #:   166  of   211
     total cpu time spent up to now is      392.4 secs

     Computing kpt #:   167  of   211
     total cpu time spent up to now is      394.9 secs

     Computing kpt #:   168  of   211
     total cpu time spent up to now is      397.4 secs

     Computing kpt #:   169  of   211
     total cpu time spent up to now is      399.6 secs

     Computing kpt #:   170  of   211
     total cpu time spent up to now is      401.7 secs

     Computing kpt #:   171  of   211
     total cpu time spent up to now is      403.7 secs

     Computing kpt #:   172  of   211
     total cpu time spent up to now is      405.9 secs

     Computing kpt #:   173  of   211
     total cpu time spent up to now is      408.1 secs

     Computing kpt #:   174  of   211
     total cpu time spent up to now is      410.3 secs

     Computing kpt #:   175  of   211
     total cpu time spent up to now is      412.3 secs

     Computing kpt #:   176  of   211
     total cpu time spent up to now is      414.3 secs

     Computing kpt #:   177  of   211
     total cpu time spent up to now is      416.6 secs

     Computing kpt #:   178  of   211
     total cpu time spent up to now is      419.0 secs

     Computing kpt #:   179  of   211
     total cpu time spent up to now is      421.3 secs

     Computing kpt #:   180  of   211
     total cpu time spent up to now is      423.5 secs

     Computing kpt #:   181  of   211
     total cpu time spent up to now is      425.8 secs

     Computing kpt #:   182  of   211
     total cpu time spent up to now is      428.1 secs

     Computing kpt #:   183  of   211
     total cpu time spent up to now is      430.7 secs

     Computing kpt #:   184  of   211
     c_bands:  1 eigenvalues not converged
     total cpu time spent up to now is      434.1 secs

     Computing kpt #:   185  of   211
     total cpu time spent up to now is      436.5 secs

     Computing kpt #:   186  of   211
     total cpu time spent up to now is      438.8 secs

     Computing kpt #:   187  of   211
     total cpu time spent up to now is      441.2 secs

     Computing kpt #:   188  of   211
     total cpu time spent up to now is      443.5 secs

     Computing kpt #:   189  of   211
     total cpu time spent up to now is      445.7 secs

     Computing kpt #:   190  of   211
     total cpu time spent up to now is      447.9 secs

     Computing kpt #:   191  of   211
     total cpu time spent up to now is      450.0 secs

     Computing kpt #:   192  of   211
     total cpu time spent up to now is      452.5 secs

     Computing kpt #:   193  of   211
     total cpu time spent up to now is      454.9 secs

     Computing kpt #:   194  of   211
     total cpu time spent up to now is      457.2 secs

     Computing kpt #:   195  of   211
     total cpu time spent up to now is      459.5 secs

     Computing kpt #:   196  of   211
     total cpu time spent up to now is      461.9 secs

     Computing kpt #:   197  of   211
     total cpu time spent up to now is      464.1 secs

     Computing kpt #:   198  of   211
     total cpu time spent up to now is      466.3 secs

     Computing kpt #:   199  of   211
     total cpu time spent up to now is      468.6 secs

     Computing kpt #:   200  of   211
     total cpu time spent up to now is      470.9 secs

     Computing kpt #:   201  of   211
     total cpu time spent up to now is      473.5 secs

     Computing kpt #:   202  of   211
     total cpu time spent up to now is      476.1 secs

     Computing kpt #:   203  of   211
     total cpu time spent up to now is      478.5 secs

     Computing kpt #:   204  of   211
     total cpu time spent up to now is      481.1 secs

     Computing kpt #:   205  of   211
     total cpu time spent up to now is      483.5 secs

     Computing kpt #:   206  of   211
     total cpu time spent up to now is      486.0 secs

     Computing kpt #:   207  of   211
     total cpu time spent up to now is      488.6 secs

     Computing kpt #:   208  of   211
     total cpu time spent up to now is      490.9 secs

     Computing kpt #:   209  of   211
     total cpu time spent up to now is      494.1 secs

     Computing kpt #:   210  of   211
     total cpu time spent up to now is      496.6 secs

     Computing kpt #:   211  of   211
     total cpu time spent up to now is      499.8 secs

     ethr =  1.28E-10,  avg # of iterations = 58.6

     total cpu time spent up to now is      499.8 secs

     End of band structure calculation

          k = 0.0000 0.0000 0.0000 ( 14963 PWs)   bands (ev):

   -34.8390 -34.8386 -34.8361 -34.8357 -34.8052 -34.8022 -34.7985 -34.7957
   -34.7889 -34.7860 -34.7327 -34.7285 -34.7146 -34.6907 -34.6891 -27.6211
   -27.6201 -27.6188 -27.6177 -27.6137 -27.6114 -27.6096 -27.6072 -27.6068
   -27.6044 -10.7427 -10.2023  -9.1297  -6.3978  -5.0601  -0.2886  -0.1146
     0.0798   0.1674   0.3146   0.6432   0.6853   0.8640   1.0885   1.9842
     2.5659   2.7061   3.4344   3.6994   3.7848   6.1054   6.2883   6.9149
     7.2044   7.4642   7.7548   8.2538   8.4540   8.5528   8.5889   9.1070
     9.3770   9.5713   9.9204   9.9752  10.4150  10.7815  11.2601  11.3297
    11.3694  11.5894  12.7341  12.7390  13.5856  13.8762  14.0936  14.0946
    14.3340  14.9275  15.3925  15.7311  15.8562  15.9504  16.0415  16.2308
    16.5368  16.6803  16.7419  16.8055  16.9902  17.0771  17.1433  17.1937
    17.3740  17.4486  17.5139  17.6769  17.7401  17.9730  18.6275  18.6715
    18.7683  18.9775  19.0776  19.1455

          k = 0.0071 0.0041 0.0000 ( 14959 PWs)   bands (ev):

   -34.8390 -34.8386 -34.8361 -34.8357 -34.8052 -34.8022 -34.7985 -34.7957
   -34.7889 -34.7860 -34.7327 -34.7285 -34.7146 -34.6907 -34.6891 -27.6211
   -27.6201 -27.6188 -27.6177 -27.6137 -27.6114 -27.6096 -27.6072 -27.6068
   -27.6044 -10.7423 -10.2020  -9.1295  -6.3979  -5.0609  -0.2902  -0.1207
     0.0746   0.1689   0.3137   0.6409   0.6884   0.8652   1.0912   1.9904
     2.5623   2.7059   3.4392   3.6996   3.7847   6.1062   6.2884   6.9150
     7.2023   7.4640   7.7548   8.2564   8.4512   8.5547   8.5876   9.1052
     9.3838   9.5735   9.9179   9.9771  10.4165  10.7829  11.2430  11.3067
    11.4064  11.5964  12.7282  12.7445  13.5757  13.8822  14.0596  14.1298
    14.3372  14.9286  15.3705  15.7356  15.8688  15.9383  16.0552  16.2307
    16.5276  16.6130  16.7521  16.8284  16.9976  17.0711  17.1576  17.2176
    17.3617  17.4550  17.5145  17.6934  17.7374  17.9847  18.5504  18.6627
    18.8044  19.0162  19.0449  19.1676

          k = 0.0143 0.0082 0.0000 ( 14969 PWs)   bands (ev):

   -34.8390 -34.8386 -34.8361 -34.8357 -34.8052 -34.8022 -34.7985 -34.7957
   -34.7889 -34.7860 -34.7327 -34.7285 -34.7146 -34.6907 -34.6891 -27.6211
   -27.6201 -27.6188 -27.6177 -27.6137 -27.6114 -27.6096 -27.6072 -27.6068
   -27.6044 -10.7410 -10.2008  -9.1289  -6.3983  -5.0635  -0.2953  -0.1391
     0.0618   0.1710   0.3112   0.6329   0.6984   0.8688   1.0996   2.0088
     2.5515   2.7058   3.4530   3.7003   3.7844   6.1084   6.2886   6.9153
     7.1961   7.4635   7.7551   8.2642   8.4436   8.5561   8.5878   9.1003
     9.4032   9.5797   9.9108   9.9828  10.4210  10.7868  11.2028  11.2822
    11.4636  11.6161  12.7198  12.7518  13.5493  13.8938  14.0318  14.1635
    14.3474  14.9292  15.3205  15.7312  15.9115  15.9135  16.0803  16.2318
    16.4759  16.5705  16.6598  16.9225  16.9940  17.0575  17.2034  17.2518
    17.3573  17.4612  17.5235  17.7265  17.7445  18.0138  18.4484  18.5758
    18.8702  19.0148  19.0925  19.1367

          k = 0.0214 0.0124 0.0000 ( 14972 PWs)   bands (ev):

   -34.8390 -34.8386 -34.8361 -34.8357 -34.8052 -34.8022 -34.7985 -34.7957
   -34.7889 -34.7860 -34.7327 -34.7285 -34.7146 -34.6907 -34.6891 -27.6211
   -27.6201 -27.6188 -27.6177 -27.6137 -27.6114 -27.6096 -27.6072 -27.6068
   -27.6044 -10.7390 -10.1990  -9.1278  -6.3988  -5.0677  -0.3037  -0.1692
     0.0460   0.1699   0.3079   0.6172   0.7155   0.8744   1.1146   2.0382
     2.5337   2.7068   3.4747   3.7009   3.7847   6.1121   6.2890   6.9158
     7.1859   7.4629   7.7559   8.2762   8.4321   8.5496   8.5974   9.0933
     9.4327   9.5899   9.8998   9.9922  10.4288  10.7918  11.1575  11.2579
    11.5248  11.6452  12.7102  12.7595  13.5130  13.8955  14.0203  14.1938
    14.3661  14.9212  15.2695  15.7081  15.8827  15.9748  16.0954  16.2394
    16.4040  16.5440  16.5751  16.9542  16.9812  17.1028  17.2203  17.2533
    17.4126  17.4814  17.5329  17.7498  17.7898  18.0477  18.3557  18.4682
    18.8643  19.0548  19.0910  19.1665

          k = 0.0286 0.0165 0.0000 ( 14964 PWs)   bands (ev):

   -34.8390 -34.8386 -34.8361 -34.8357 -34.8052 -34.8022 -34.7985 -34.7957
   -34.7889 -34.7860 -34.7327 -34.7285 -34.7146 -34.6907 -34.6891 -27.6211
   -27.6201 -27.6188 -27.6177 -27.6137 -27.6114 -27.6096 -27.6072 -27.6068
   -27.6044 -10.7361 -10.1964  -9.1263  -6.3996  -5.0736  -0.3156  -0.2096
     0.0298   0.1637   0.3043   0.5933   0.7388   0.8817   1.1365   2.0773
     2.5096   2.7097   3.5024   3.7011   3.7865   6.1173   6.2894   6.9161
     7.1722   7.4622   7.7577   8.2912   8.4176   8.5380   8.6150   9.0854
     9.4691   9.6033   9.8861  10.0054  10.4404  10.7956  11.1156  11.2323
    11.5874  11.6811  12.6993  12.7678  13.4720  13.8781  14.0285  14.2218
    14.3930  14.8928  15.2395  15.6736  15.8456  16.0211  16.1008  16.2575
    16.3521  16.4440  16.5785  16.9092  16.9847  17.1853  17.2032  17.2504
    17.4701  17.5262  17.5669  17.7903  17.8403  18.0687  18.2925  18.3561
    18.8158  19.0427  19.1051  19.2263

          k = 0.0357 0.0206 0.0000 ( 14963 PWs)   bands (ev):

   -34.8390 -34.8386 -34.8361 -34.8357 -34.8052 -34.8022 -34.7985 -34.7957
   -34.7889 -34.7860 -34.7327 -34.7285 -34.7146 -34.6907 -34.6891 -27.6211
   -27.6201 -27.6187 -27.6177 -27.6137 -27.6114 -27.6096 -27.6072 -27.6068
   -27.6044 -10.7324 -10.1930  -9.1243  -6.4006  -5.0811  -0.3312  -0.2580
     0.0141   0.1524   0.3004   0.5614   0.7671   0.8903   1.1650   2.1245
     2.4808   2.7150   3.5338   3.7004   3.7912   6.1238   6.2900   6.9160
     7.1556   7.4616   7.7609   8.3064   8.4019   8.5262   8.6371   9.0774
     9.5090   9.6195   9.8719  10.0226  10.4560  10.7954  11.0809  11.2064
    11.6501  11.7220  12.6868  12.7771  13.4297  13.8489  14.0448  14.2509
    14.4254  14.8396  15.2398  15.6330  15.7981  15.9959  16.1403  16.2551
    16.3332  16.3715  16.5961  16.8637  16.9669  17.1643  17.2105  17.3206
    17.4731  17.5872  17.6587  17.8383  17.8829  18.0693  18.2338  18.2933
    18.7596  18.9945  19.1072  19.2430

          k = 0.0429 0.0247 0.0000 ( 14963 PWs)   bands (ev):

   -34.8390 -34.8386 -34.8361 -34.8357 -34.8052 -34.8022 -34.7985 -34.7957
   -34.7889 -34.7860 -34.7327 -34.7285 -34.7146 -34.6907 -34.6891 -27.6211
   -27.6201 -27.6187 -27.6177 -27.6137 -27.6114 -27.6096 -27.6072 -27.6068
   -27.6044 -10.7279 -10.1889  -9.1220  -6.4019  -5.0903  -0.3524  -0.3105
    -0.0013   0.1369   0.2961   0.5228   0.7993   0.8998   1.1984   2.1782
     2.4490   2.7226   3.5661   3.6989   3.8000   6.1318   6.2905   6.9149
     7.1369   7.4613   7.7658   8.3158   8.3903   8.5168   8.6623   9.0698
     9.5481   9.6377   9.8599  10.0440  10.4761  10.7880  11.0566  11.1814
    11.7115  11.7670  12.6728  12.7873  13.3884  13.8155  14.0597  14.2836
    14.4579  14.7719  15.2638  15.5874  15.7385  15.9395  16.1573  16.2052
    16.3457  16.3731  16.6241  16.8248  16.9363  17.1205  17.2021  17.4186
    17.4695  17.6511  17.7552  17.8482  17.9446  18.0873  18.1247  18.3265
    18.7022  18.9470  19.0790  19.2073

          k = 0.0500 0.0289 0.0000 ( 14959 PWs)   bands (ev):

   -34.8390 -34.8386 -34.8361 -34.8357 -34.8052 -34.8022 -34.7985 -34.7957
   -34.7889 -34.7860 -34.7327 -34.7285 -34.7146 -34.6907 -34.6891 -27.6211
   -27.6201 -27.6187 -27.6177 -27.6137 -27.6114 -27.6096 -27.6073 -27.6068
   -27.6044 -10.7225 -10.1841  -9.1192  -6.4034  -5.1012  -0.3899  -0.3544
    -0.0168   0.1183   0.2908   0.4789   0.8341   0.9104   1.2350   2.2369
     2.4162   2.7326   3.5955   3.6985   3.8140   6.1411   6.2910   6.9119
     7.1175   7.4614   7.7725   8.3095   8.3928   8.5105   8.6900   9.0631
     9.5805   9.6584   9.8548  10.0698  10.5006  10.7718  11.0438  11.1585
    11.7698  11.8163  12.6574  12.7989  13.3494  13.7812  14.0701  14.3194
    14.4806  14.7084  15.3004  15.5342  15.6721  15.8784  16.0750  16.2191
    16.3605  16.4128  16.6547  16.8022  16.8999  17.0760  17.1824  17.4713
    17.5137  17.6804  17.8117  17.8851  17.9992  18.0485  18.1437  18.3790
    18.6458  18.9019  19.0389  19.1605

          k = 0.0571 0.0330 0.0000 ( 14959 PWs)   bands (ev):

   -34.8390 -34.8386 -34.8361 -34.8357 -34.8052 -34.8022 -34.7985 -34.7957
   -34.7889 -34.7860 -34.7327 -34.7285 -34.7146 -34.6907 -34.6891 -27.6211
   -27.6201 -27.6187 -27.6177 -27.6137 -27.6114 -27.6096 -27.6073 -27.6068
   -27.6044 -10.7164 -10.1785  -9.1160  -6.4052  -5.1137  -0.4489  -0.3830
    -0.0329   0.0975   0.2844   0.4314   0.8699   0.9227   1.2725   2.2994
     2.3843   2.7446   3.6162   3.7035   3.8339   6.1517   6.2914   6.9061
     7.0991   7.4618   7.7813   8.2892   8.4084   8.5069   8.7198   9.0578
     9.5990   9.6828   9.8613  10.0996  10.5296  10.7477  11.0408  11.1388
    11.8235  11.8698  12.6408  12.8117  13.3138  13.7471  14.0755  14.3534
    14.4759  14.6761  15.3385  15.4676  15.6120  15.8159  15.9894  16.2310
    16.3759  16.4550  16.6695  16.8057  16.8712  17.0341  17.1529  17.4694
    17.5900  17.6640  17.8450  17.9361  17.9664  18.1462  18.2142  18.4367
    18.5916  18.8611  18.9947  19.1117

          k = 0.0643 0.0371 0.0000 ( 14961 PWs)   bands (ev):

   -34.8390 -34.8386 -34.8361 -34.8357 -34.8052 -34.8022 -34.7985 -34.7957
   -34.7889 -34.7860 -34.7327 -34.7285 -34.7146 -34.6907 -34.6891 -27.6211
   -27.6200 -27.6187 -27.6177 -27.6137 -27.6113 -27.6096 -27.6073 -27.6068
   -27.6044 -10.7094 -10.1722  -9.1124  -6.4073  -5.1279  -0.5151  -0.4091
    -0.0501   0.0749   0.2767   0.3820   0.9029   0.9397   1.3084   2.3549
     2.3650   2.7587   3.6237   3.7177   3.8601   6.1636   6.2916   6.8960
     7.0836   7.4627   7.7920   8.2633   8.4293   8.5055   8.7514   9.0542
     9.6008   9.7107   9.8820  10.1331  10.5630  10.7191  11.0439  11.1238
    11.8729  11.9258  12.6237  12.8259  13.2825  13.7142  14.0737  14.3675
    14.4544  14.6863  15.3514  15.3983  15.5690  15.7535  15.9192  16.2361
    16.3878  16.4861  16.6698  16.7928  16.8913  16.9984  17.1187  17.4295
    17.6306  17.6821  17.7880  17.9986  18.0461  18.2550  18.2971  18.4930
    18.5425  18.8270  18.9508  19.0643

          k = 0.0714 0.0412 0.0000 ( 14957 PWs)   bands (ev):

   -34.8390 -34.8386 -34.8361 -34.8357 -34.8052 -34.8022 -34.7985 -34.7957
   -34.7889 -34.7860 -34.7327 -34.7285 -34.7146 -34.6907 -34.6891 -27.6210
   -27.6200 -27.6187 -27.6177 -27.6137 -27.6113 -27.6096 -27.6073 -27.6068
   -27.6044 -10.7016 -10.1652  -9.1084  -6.4096  -5.1437  -0.5841  -0.4359
    -0.0689   0.0504   0.2678   0.3327   0.9260   0.9678   1.3405   2.3312
     2.4313   2.7747   3.6208   3.7383   3.8921   6.1766   6.2914   6.8810
     7.0724   7.4641   7.8048   8.2364   8.4515   8.5054   8.7845   9.0528
     9.5902   9.7396   9.9149  10.1693  10.6001  10.6901  11.0487  11.1154
    11.9192  11.9817  12.6069  12.8413  13.2563  13.6827  14.0587  14.3379
    14.4662  14.7193  15.2724  15.3787  15.5458  15.7015  15.8688  16.2352
    16.3969  16.4955  16.6717  16.7651  16.9245  16.9814  17.0911  17.3605
    17.6229  17.6775  17.8118  18.0903  18.1231  18.3461  18.3937  18.5093
    18.5423  18.8030  18.9116  19.0219

          k = 0.0786 0.0454 0.0000 ( 14963 PWs)   bands (ev):

   -34.8390 -34.8386 -34.8361 -34.8357 -34.8052 -34.8022 -34.7985 -34.7957
   -34.7888 -34.7860 -34.7327 -34.7285 -34.7146 -34.6907 -34.6891 -27.6210
   -27.6200 -27.6187 -27.6177 -27.6137 -27.6113 -27.6097 -27.6073 -27.6068
   -27.6044 -10.6930 -10.1574  -9.1040  -6.4124  -5.1611  -0.6549  -0.4636
    -0.0896   0.0232   0.2576   0.2855   0.9406   1.0051   1.3663   2.3139
     2.4986   2.7925   3.6130   3.7610   3.9289   6.1907   6.2906   6.8611
     7.0662   7.4660   7.8194   8.2104   8.4738   8.5059   8.8188   9.0539
     9.5727   9.7680   9.9562  10.2064  10.6336  10.6710  11.0521  11.1151
    11.9627  12.0355  12.5918  12.8578  13.2357  13.6533  14.0209  14.3062
    14.4927  14.7605  15.1701  15.3339  15.5349  15.6715  15.8428  16.2271
    16.4051  16.4846  16.6595  16.7612  16.9125  16.9824  17.0902  17.3006
    17.5216  17.7356  17.8815  18.1808  18.1941  18.3877  18.4726  18.5488
    18.5793  18.7899  18.8823  18.9933

          k = 0.0857 0.0495 0.0000 ( 14959 PWs)   bands (ev):

   -34.8390 -34.8386 -34.8361 -34.8356 -34.8052 -34.8022 -34.7985 -34.7957
   -34.7888 -34.7860 -34.7327 -34.7285 -34.7146 -34.6906 -34.6891 -27.6210
   -27.6200 -27.6186 -27.6176 -27.6137 -27.6113 -27.6097 -27.6073 -27.6068
   -27.6044 -10.6836 -10.1489  -9.0992  -6.4154  -5.1801  -0.7268  -0.4921
    -0.1123  -0.0080   0.2418   0.2470   0.9523   1.0455   1.3840   2.3052
     2.5653   2.8122   3.6038   3.7839   3.9689   6.2059   6.2890   6.8371
     7.0646   7.4685   7.8359   8.1863   8.4947   8.5066   8.8540   9.0581
     9.5522   9.7956  10.0022  10.2420  10.6279  10.7005  11.0541  11.1222
    12.0030  12.0856  12.5797  12.8748  13.2211  13.6262  13.9576  14.2971
    14.5166  14.8029  15.0663  15.2581  15.5264  15.6520  15.8491  16.2107
    16.4123  16.4647  16.6250  16.7791  16.8815  16.9699  17.0861  17.2957
    17.4158  17.8028  17.9547  18.2452  18.2655  18.3813  18.5334  18.6037
    18.6568  18.7863  18.8613  18.9993

          k = 0.0929 0.0536 0.0000 ( 14959 PWs)   bands (ev):

   -34.8390 -34.8385 -34.8361 -34.8356 -34.8052 -34.8022 -34.7985 -34.7957
   -34.7888 -34.7859 -34.7327 -34.7285 -34.7146 -34.6906 -34.6891 -27.6210
   -27.6200 -27.6186 -27.6176 -27.6137 -27.6113 -27.6097 -27.6073 -27.6068
   -27.6044 -10.6734 -10.1397  -9.0940  -6.4188  -5.2006  -0.7993  -0.5211
    -0.1368  -0.0448   0.2053   0.2346   0.9627   1.0868   1.3920   2.3062
     2.6303   2.8338   3.5951   3.8067   4.0109   6.2219   6.2863   6.8108
     7.0669   7.4716   7.8541   8.1648   8.5027   8.5182   8.8896   9.0660
     9.5315   9.8221  10.0509  10.2729  10.6136  10.7507  11.0575  11.1337
    12.0389  12.1312  12.5723  12.8922  13.2129  13.6020  13.8770  14.3082
    14.5333  14.8328  14.9752  15.1666  15.5205  15.6283  15.8854  16.1861
    16.4055  16.4546  16.5830  16.7882  16.8347  16.9663  17.0611  17.3118
    17.3508  17.8745  18.0256  18.2533  18.3433  18.3904  18.5730  18.6236
    18.7669  18.7993  18.8516  19.0525

          k = 0.1000 0.0577 0.0000 ( 14954 PWs)   bands (ev):

   -34.8390 -34.8385 -34.8361 -34.8356 -34.8052 -34.8022 -34.7985 -34.7957
   -34.7888 -34.7859 -34.7327 -34.7285 -34.7146 -34.6906 -34.6891 -27.6210
   -27.6200 -27.6186 -27.6176 -27.6137 -27.6113 -27.6097 -27.6074 -27.6068
   -27.6044 -10.6624 -10.1298  -9.0885  -6.4226  -5.2227  -0.8721  -0.5504
    -0.1631  -0.0880   0.1754   0.2221   0.9722   1.1282   1.3897   2.3172
     2.6924   2.8574   3.5887   3.8298   4.0536   6.2387   6.2824   6.7838
     7.0721   7.4756   7.8741   8.1463   8.4997   8.5379   8.9249   9.0781
     9.5123   9.8472  10.1006  10.2957  10.6093  10.8064  11.0647  11.1477
    12.0689  12.1720  12.5714  12.9097  13.2105  13.5813  13.7888  14.3327
    14.5415  14.7969  14.9443  15.0748  15.5135  15.6062  15.9385  16.1548
    16.3746  16.4637  16.5409  16.7604  16.7853  16.9694  17.0627  17.2126
    17.4276  17.9468  18.0877  18.2345  18.3936  18.4285  18.5898  18.6375
    18.7868  18.8779  18.9088  19.1392

          k = 0.1071 0.0619 0.0000 ( 14960 PWs)   bands (ev):

   -34.8390 -34.8385 -34.8361 -34.8356 -34.8052 -34.8022 -34.7985 -34.7957
   -34.7888 -34.7859 -34.7327 -34.7285 -34.7146 -34.6906 -34.6891 -27.6209
   -27.6200 -27.6186 -27.6176 -27.6137 -27.6113 -27.6097 -27.6074 -27.6068
   -27.6044 -10.6506 -10.1192  -9.0827  -6.4267  -5.2462  -0.9450  -0.5797
    -0.1908  -0.1372   0.1517   0.2094   0.9811   1.1691   1.3773   2.3379
     2.7501   2.8831   3.5860   3.8534   4.0962   6.2553   6.2775   6.7574
     7.0795   7.4804   7.8956   8.1312   8.4935   8.5574   8.9590   9.0953
     9.4958   9.8708  10.1500  10.3083  10.6185  10.8653  11.0774  11.1634
    12.0913  12.2082  12.5777  12.9271  13.2122  13.5646  13.6997  14.3662
    14.5409  14.7034  14.9173  15.0362  15.4950  15.5996  15.9981  16.1187
    16.3330  16.4655  16.5090  16.6919  16.7497  16.9739  17.0887  17.1332
    17.5085  18.0140  18.1216  18.2310  18.4024  18.4923  18.5686  18.6854
    18.7698  18.9774  19.0113  19.2420

          k = 0.1143 0.0660 0.0000 ( 14963 PWs)   bands (ev):

   -34.8390 -34.8385 -34.8360 -34.8356 -34.8052 -34.8022 -34.7985 -34.7957
   -34.7888 -34.7859 -34.7326 -34.7285 -34.7146 -34.6906 -34.6891 -27.6209
   -27.6200 -27.6185 -27.6176 -27.6137 -27.6113 -27.6098 -27.6074 -27.6068
   -27.6044 -10.6380 -10.1079  -9.0764  -6.4314  -5.2713  -1.0177  -0.6089
    -0.2196  -0.1910   0.1328   0.1970   0.9892   1.2093   1.3558   2.3668
     2.8022   2.9108   3.5885   3.8776   4.1380   6.2626   6.2802   6.7330
     7.0887   7.4863   7.9186   8.1197   8.4840   8.5764   8.9912   9.1180
     9.4829   9.8925  10.1962  10.3134  10.6412  10.9254  11.0970  11.1815
    12.1051  12.2406  12.5913  12.9449  13.2143  13.5528  13.6157  14.4060
    14.5310  14.6009  14.8260  15.0742  15.4625  15.6117  16.0562  16.0816
    16.2854  16.4334  16.4928  16.6327  16.7118  16.9590  17.0611  17.1605
    17.5873  18.0605  18.1207  18.2597  18.4104  18.5252  18.5613  18.7313
    18.7862  19.0611  19.1353  19.3259

          k = 0.1214 0.0701 0.0000 ( 14951 PWs)   bands (ev):

   -34.8389 -34.8385 -34.8360 -34.8356 -34.8052 -34.8023 -34.7985 -34.7957
   -34.7888 -34.7859 -34.7326 -34.7285 -34.7146 -34.6906 -34.6891 -27.6209
   -27.6200 -27.6185 -27.6176 -27.6137 -27.6113 -27.6098 -27.6074 -27.6068
   -27.6044 -10.6245 -10.0959  -9.0699  -6.4365  -5.2978  -1.0900  -0.6378
    -0.2509  -0.2467   0.1167   0.1856   0.9965   1.2480   1.3272   2.4022
     2.8480   2.9399   3.5976   3.9027   4.1788   6.2534   6.2972   6.7117
     7.0994   7.4934   7.9430   8.1120   8.4711   8.5949   9.0210   9.1460
     9.4742   9.9123  10.2327  10.3198  10.6746  10.9842  11.1239  11.2038
    12.1104  12.2698  12.6110  12.9637  13.2091  13.5418  13.5493  14.4494
    14.4866  14.5253  14.7236  15.1290  15.4230  15.6351  16.0359  16.1175
    16.2328  16.3858  16.4501  16.6010  16.6891  16.8936  17.0783  17.2180
    17.6602  18.0549  18.1365  18.2862  18.4235  18.5167  18.5921  18.7697
    18.8435  19.1307  19.2629  19.2980

          k = 0.1286 0.0742 0.0000 ( 14946 PWs)   bands (ev):

   -34.8389 -34.8385 -34.8360 -34.8356 -34.8052 -34.8023 -34.7985 -34.7957
   -34.7888 -34.7859 -34.7326 -34.7285 -34.7146 -34.6906 -34.6891 -27.6209
   -27.6200 -27.6185 -27.6176 -27.6136 -27.6113 -27.6098 -27.6074 -27.6068
   -27.6044 -10.6103 -10.0832  -9.0630  -6.4421  -5.3257  -1.1618  -0.6661
    -0.3083  -0.2792   0.1018   0.1757   1.0030   1.2772   1.3005   2.4423
     2.8877   2.9690   3.6145   3.9286   4.2181   6.2390   6.3167   6.6943
     7.1112   7.5019   7.9688   8.1081   8.4551   8.6129   9.0492   9.1780
     9.4702   9.9300  10.2481  10.3419  10.7157  11.0389  11.1563  11.2347
    12.1084  12.2959  12.6349  12.9843  13.1853  13.4963  13.5475  14.3864
    14.4922  14.4987  14.6275  15.1878  15.3806  15.6638  15.9934  16.1631
    16.1766  16.3284  16.3975  16.5636  16.7023  16.8162  17.1246  17.2786
    17.7233  18.0271  18.1500  18.2967  18.4131  18.5488  18.6220  18.8224
    18.9061  19.1357  19.2620  19.3381

          k = 0.1357 0.0784 0.0000 ( 14953 PWs)   bands (ev):

   -34.8389 -34.8385 -34.8360 -34.8356 -34.8052 -34.8023 -34.7985 -34.7957
   -34.7888 -34.7859 -34.7326 -34.7285 -34.7146 -34.6906 -34.6891 -27.6208
   -27.6200 -27.6185 -27.6176 -27.6136 -27.6113 -27.6098 -27.6075 -27.6068
   -27.6044 -10.5953 -10.0698  -9.0558  -6.4482  -5.3549  -1.2329  -0.6939
    -0.3692  -0.3100   0.0867   0.1678   1.0086   1.2473   1.3266   2.4852
     2.9227   2.9967   3.6399   3.9556   4.2558   6.2209   6.3369   6.6815
     7.1242   7.5118   7.9959   8.1081   8.4362   8.6304   9.0766   9.2123
     9.4713   9.9458  10.2458  10.3781  10.7621  11.0890  11.1898  11.2795
    12.1011  12.3185  12.6613  13.0074  13.1360  13.4776  13.5548  14.2865
    14.4592  14.4939  14.5883  15.2473  15.3375  15.6940  15.9503  16.1092
    16.1799  16.2845  16.3594  16.5141  16.7256  16.7559  17.1848  17.3385
    17.7712  18.0013  18.1482  18.2937  18.3816  18.6085  18.6681  18.8664
    18.9543  19.0655  19.2061  19.3480

          k = 0.1429 0.0825 0.0000 ( 14953 PWs)   bands (ev):

   -34.8389 -34.8385 -34.8360 -34.8356 -34.8052 -34.8023 -34.7985 -34.7957
   -34.7888 -34.7859 -34.7326 -34.7285 -34.7146 -34.6906 -34.6891 -27.6208
   -27.6200 -27.6184 -27.6176 -27.6136 -27.6113 -27.6099 -27.6075 -27.6068
   -27.6044 -10.5796 -10.0557  -9.0484  -6.4549  -5.3855  -1.3033  -0.7211
    -0.4309  -0.3410   0.0706   0.1622   1.0133   1.2038   1.3608   2.5290
     2.9537   3.0225   3.6734   3.9836   4.2921   6.1992   6.3575   6.6735
[...]
     9.6272   9.9151  10.1784  10.5957  10.8321  10.9439  11.1568  11.4389
    12.3043  12.3516  12.7336  12.9492  13.2061  13.4213  13.5817  14.0843
    14.5465  14.6071  14.7893  15.0585  15.1933  15.3542  15.5957  16.1797
    16.2682  16.4007  16.5577  16.7243  16.8451  17.0919  17.1855  17.3698
    17.4154  17.5665  17.6513  17.7324  18.2069  18.9315  18.9909  19.1402
    19.1606  19.3009  19.3922  19.4630

          k = 0.0762 0.1355 0.0000 ( 14960 PWs)   bands (ev):

   -34.8390 -34.8384 -34.8361 -34.8355 -34.8052 -34.8022 -34.7985 -34.7957
   -34.7888 -34.7859 -34.7326 -34.7285 -34.7146 -34.6905 -34.6891 -27.6211
   -27.6197 -27.6187 -27.6173 -27.6135 -27.6112 -27.6097 -27.6073 -27.6070
   -27.6047 -10.5978 -10.0711  -9.0547  -6.4378  -5.3250  -1.0727  -0.7222
    -0.5120  -0.2033   0.0406   0.2805   0.6605   1.2963   1.4326   2.4877
     2.6379   3.0737   3.7461   3.8480   4.3262   6.2991   6.3406   6.7504
     6.9904   7.5159   7.8777   8.2476   8.3530   8.6277   8.8328   9.3474
     9.6043   9.8663  10.1959  10.5380  10.7711  10.9559  11.1024  11.3749
    12.2776  12.3065  12.7426  12.9126  13.1858  13.4482  13.6224  14.1671
    14.5662  14.6665  14.8247  15.0304  15.2869  15.4010  15.6209  16.1587
    16.2752  16.3552  16.5988  16.7743  16.8229  17.1190  17.2334  17.3390
    17.4034  17.5932  17.6594  17.6840  18.0957  18.8452  18.9803  19.1401
    19.2040  19.3320  19.3857  19.4160

          k = 0.0714 0.1270 0.0000 ( 14963 PWs)   bands (ev):

   -34.8390 -34.8384 -34.8361 -34.8355 -34.8052 -34.8022 -34.7985 -34.7957
   -34.7888 -34.7859 -34.7326 -34.7285 -34.7146 -34.6905 -34.6891 -27.6211
   -27.6197 -27.6187 -27.6173 -27.6136 -27.6112 -27.6097 -27.6073 -27.6070
   -27.6046 -10.6153 -10.0868  -9.0634  -6.4320  -5.2935  -0.9993  -0.6733
    -0.4458  -0.1709   0.0523   0.2994   0.6819   1.2757   1.4262   2.4821
     2.5792   3.0434   3.7128   3.8128   4.2819   6.2941   6.3220   6.7771
     7.0031   7.5002   7.8323   8.2507   8.3482   8.6551   8.8026   9.3086
     9.5851   9.8216  10.2175  10.4744  10.7090  10.9565  11.0617  11.3205
    12.2419  12.2597  12.7484  12.8974  13.1550  13.4645  13.6861  14.2469
    14.5392  14.7691  14.8157  15.0517  15.3924  15.4064  15.6900  16.1247
    16.2775  16.3067  16.6240  16.7789  16.8634  17.1315  17.2760  17.3132
    17.3942  17.5940  17.6428  17.7352  17.9939  18.7389  18.9014  19.1161
    19.2109  19.2514  19.3949  19.4186

          k = 0.0667 0.1186 0.0000 ( 14965 PWs)   bands (ev):

   -34.8390 -34.8385 -34.8361 -34.8356 -34.8052 -34.8022 -34.7985 -34.7957
   -34.7888 -34.7859 -34.7327 -34.7285 -34.7146 -34.6906 -34.6891 -27.6211
   -27.6198 -27.6187 -27.6174 -27.6136 -27.6112 -27.6097 -27.6073 -27.6070
   -27.6046 -10.6316 -10.1015  -9.0716  -6.4268  -5.2640  -0.9248  -0.6287
    -0.3760  -0.1393   0.0617   0.3184   0.7029   1.2428   1.4269   2.4637
     2.5347   3.0103   3.6741   3.7910   4.2358   6.2798   6.3126   6.8027
     7.0182   7.4873   7.7911   8.2532   8.3505   8.6671   8.7818   9.2702
     9.5706   9.7812  10.2406  10.4071  10.6478  10.9453  11.0275  11.2815
    12.1853  12.2269  12.7375  12.9127  13.1214  13.4732  13.7643  14.3081
    14.5300  14.7590  14.8832  15.1120  15.3875  15.5077  15.7762  16.0919
    16.2563  16.2767  16.6166  16.7807  16.9201  17.1505  17.2673  17.3271
    17.3887  17.5984  17.6190  17.8151  17.9257  18.6227  18.7890  19.0644
    19.1293  19.2530  19.3711  19.3829

          k = 0.0619 0.1101 0.0000 ( 14977 PWs)   bands (ev):

   -34.8390 -34.8385 -34.8361 -34.8356 -34.8052 -34.8022 -34.7985 -34.7957
   -34.7888 -34.7859 -34.7327 -34.7285 -34.7146 -34.6906 -34.6891 -27.6211
   -27.6198 -27.6187 -27.6174 -27.6136 -27.6112 -27.6097 -27.6073 -27.6070
   -27.6046 -10.6468 -10.1153  -9.0793  -6.4222  -5.2363  -0.8495  -0.5870
    -0.3053  -0.1078   0.0698   0.3377   0.7228   1.2017   1.4294   2.4254
     2.5131   2.9734   3.6382   3.7760   4.1879   6.2604   6.3089   6.8267
     7.0351   7.4775   7.7546   8.2568   8.3581   8.6597   8.7721   9.2342
     9.5616   9.7447  10.2593  10.3402  10.5924  10.9255  10.9917  11.2608
    12.1213  12.1961  12.7160  12.9456  13.0923  13.4806  13.8476  14.3307
    14.5596  14.7019  14.9921  15.1622  15.3912  15.6159  15.8491  16.0798
    16.2092  16.2724  16.5900  16.7689  16.9804  17.1767  17.2472  17.3420
    17.3958  17.5546  17.6390  17.8403  17.9681  18.5025  18.6620  18.9429
    19.1047  19.2428  19.3307  19.3480

          k = 0.0571 0.1016 0.0000 ( 14969 PWs)   bands (ev):

   -34.8390 -34.8385 -34.8361 -34.8356 -34.8052 -34.8022 -34.7985 -34.7957
   -34.7888 -34.7859 -34.7327 -34.7285 -34.7146 -34.6906 -34.6891 -27.6211
   -27.6199 -27.6187 -27.6175 -27.6136 -27.6113 -27.6096 -27.6073 -27.6069
   -27.6046 -10.6610 -10.1281  -9.0866  -6.4181  -5.2105  -0.7739  -0.5474
    -0.2367  -0.0758   0.0777   0.3578   0.7411   1.1557   1.4291   2.3804
     2.5029   2.9324   3.6092   3.7642   4.1382   6.2401   6.3065   6.8486
     7.0533   7.4707   7.7233   8.2628   8.3695   8.6381   8.7664   9.2023
     9.5591   9.7114  10.2448  10.2969  10.5505  10.8943  10.9592  11.2547
    12.0547  12.1632  12.6946  12.9697  13.0827  13.4914  13.9289  14.3222
    14.6032  14.6658  15.0959  15.1771  15.4403  15.7133  15.8798  16.1184
    16.1652  16.2701  16.5583  16.7386  17.0338  17.2082  17.2189  17.3478
    17.4303  17.5012  17.6350  17.8824  18.0688  18.3835  18.5293  18.8088
    19.0884  19.1995  19.2837  19.3268

          k = 0.0524 0.0931 0.0000 ( 14962 PWs)   bands (ev):

   -34.8390 -34.8385 -34.8361 -34.8356 -34.8052 -34.8022 -34.7985 -34.7957
   -34.7888 -34.7859 -34.7327 -34.7285 -34.7146 -34.6906 -34.6891 -27.6211
   -27.6199 -27.6187 -27.6175 -27.6136 -27.6113 -27.6096 -27.6073 -27.6069
   -27.6045 -10.6740 -10.1398  -9.0933  -6.4145  -5.1867  -0.6983  -0.5093
    -0.1732  -0.0429   0.0869   0.3791   0.7576   1.1068   1.4224   2.3389
     2.4952   2.8886   3.5880   3.7542   4.0874   6.2205   6.3043   6.8677
     7.0723   7.4668   7.6976   8.2717   8.3836   8.6101   8.7566   9.1753
     9.5632   9.6804  10.1831  10.2832  10.5323  10.8478  10.9401  11.2569
    11.9870  12.1266  12.6783  12.9622  13.1097  13.5087  14.0009  14.3042
    14.5842  14.7081  15.1334  15.2321  15.5230  15.7688  15.8997  16.1259
    16.2022  16.2726  16.5272  16.7006  17.0617  17.1766  17.2517  17.3508
    17.4460  17.4773  17.6389  17.9533  18.1751  18.2761  18.3957  18.6750
    19.0590  19.1195  19.2605  19.3059

          k = 0.0476 0.0847 0.0000 ( 14968 PWs)   bands (ev):

   -34.8390 -34.8385 -34.8361 -34.8356 -34.8052 -34.8022 -34.7985 -34.7957
   -34.7888 -34.7859 -34.7327 -34.7285 -34.7146 -34.6906 -34.6891 -27.6211
   -27.6199 -27.6187 -27.6175 -27.6137 -27.6113 -27.6096 -27.6073 -27.6069
   -27.6045 -10.6859 -10.1506  -9.0995  -6.4113  -5.1649  -0.6233  -0.4727
    -0.1176  -0.0100   0.1000   0.4024   0.7721   1.0565   1.4073   2.3029
     2.4885   2.8441   3.5733   3.7456   4.0360   6.2020   6.3022   6.8835
     7.0920   7.4650   7.6781   8.2834   8.3996   8.5796   8.7403   9.1532
     9.5733   9.6507  10.1164  10.2559  10.5394  10.7942  10.9321  11.2625
    11.9188  12.0852  12.6686  12.9367  13.1560  13.5353  14.0546  14.2867
    14.5608  14.7569  15.1254  15.3366  15.6167  15.7551  15.9568  16.1010
    16.2834  16.2943  16.5026  16.6650  17.0554  17.1329  17.2793  17.3730
    17.4023  17.5047  17.6877  18.0002  18.1929  18.2570  18.3030  18.5497
    18.9649  19.0745  19.2430  19.2668

          k = 0.0429 0.0762 0.0000 ( 14968 PWs)   bands (ev):

   -34.8390 -34.8385 -34.8361 -34.8356 -34.8052 -34.8022 -34.7985 -34.7957
   -34.7888 -34.7860 -34.7327 -34.7285 -34.7146 -34.6906 -34.6891 -27.6211
   -27.6199 -27.6187 -27.6176 -27.6137 -27.6113 -27.6096 -27.6072 -27.6069
   -27.6045 -10.6966 -10.1604  -9.1051  -6.4085  -5.1451  -0.5500  -0.4374
    -0.0706   0.0188   0.1207   0.4286   0.7843   1.0058   1.3826   2.2713
     2.4837   2.8018   3.5632   3.7381   3.9852   6.1847   6.3000   6.8958
     7.1116   7.4647   7.6657   8.2976   8.4165   8.5486   8.7185   9.1351
     9.5872   9.6218  10.0534  10.2168  10.5604  10.7434  10.9321  11.2693
    11.8507  12.0387  12.6654  12.9076  13.2057  13.5729  14.0828  14.2697
    14.5612  14.7754  15.1402  15.4395  15.7022  15.7253  16.0063  16.1004
    16.3083  16.3589  16.5053  16.6411  17.0098  17.1107  17.2737  17.3585
    17.4159  17.5340  17.7709  17.9565  18.1266  18.2202  18.3742  18.4762
    18.8378  19.0334  19.1740  19.2350

          k = 0.0381 0.0677 0.0000 ( 14957 PWs)   bands (ev):

   -34.8390 -34.8385 -34.8361 -34.8356 -34.8052 -34.8022 -34.7985 -34.7957
   -34.7889 -34.7860 -34.7327 -34.7285 -34.7146 -34.6907 -34.6891 -27.6211
   -27.6200 -27.6187 -27.6176 -27.6137 -27.6113 -27.6096 -27.6072 -27.6069
   -27.6045 -10.7063 -10.1692  -9.1102  -6.4061  -5.1273  -0.4800  -0.4031
    -0.0305   0.0391   0.1502   0.4585   0.7940   0.9562   1.3491   2.2404
     2.4830   2.7645   3.5550   3.7316   3.9367   6.1689   6.2979   6.9047
     7.1307   7.4648   7.6607   8.3131   8.4324   8.5195   8.6937   9.1208
     9.5888   9.6055   9.9977  10.1736  10.5763  10.7075  10.9399  11.2762
    11.7833  11.9872  12.6675  12.8791  13.2542  13.6219  14.0871  14.2484
    14.5830  14.7677  15.1810  15.5225  15.6992  15.7847  16.0388  16.1217
    16.3342  16.3714  16.5556  16.6442  16.9522  17.1027  17.2556  17.3273
    17.4203  17.5917  17.8286  17.9048  18.0160  18.2038  18.3958  18.5486
    18.7082  18.9470  19.1220  19.2202

          k = 0.0333 0.0593 0.0000 ( 14961 PWs)   bands (ev):

   -34.8390 -34.8386 -34.8361 -34.8357 -34.8052 -34.8022 -34.7985 -34.7957
   -34.7889 -34.7860 -34.7327 -34.7285 -34.7146 -34.6907 -34.6891 -27.6211
   -27.6200 -27.6188 -27.6176 -27.6137 -27.6113 -27.6096 -27.6072 -27.6069
   -27.6045 -10.7148 -10.1769  -9.1148  -6.4040  -5.1116  -0.4173  -0.3670
     0.0051   0.0520   0.1840   0.4922   0.8001   0.9098   1.3085   2.2066
     2.4885   2.7342   3.5461   3.7260   3.8924   6.1545   6.2958   6.9106
     7.1485   7.4648   7.6632   8.3280   8.4411   8.4997   8.6682   9.1100
     9.5590   9.6163   9.9530  10.1313  10.5662  10.7022  10.9567  11.2831
    11.7173  11.9314  12.6734  12.8525  13.3013  13.6808  14.0760  14.2220
    14.5960  14.7703  15.2255  15.5595  15.7383  15.8282  16.0846  16.1460
    16.3160  16.3892  16.6125  16.6824  16.9183  17.0986  17.2335  17.2936
    17.4100  17.6377  17.7498  17.9194  18.0036  18.1193  18.4754  18.5528
    18.6836  18.8285  19.1028  19.2024

          k = 0.0286 0.0508 0.0000 ( 14953 PWs)   bands (ev):

   -34.8390 -34.8386 -34.8361 -34.8357 -34.8052 -34.8022 -34.7985 -34.7957
   -34.7889 -34.7860 -34.7327 -34.7285 -34.7146 -34.6907 -34.6891 -27.6211
   -27.6200 -27.6188 -27.6176 -27.6137 -27.6113 -27.6096 -27.6072 -27.6068
   -27.6045 -10.7222 -10.1836  -9.1187  -6.4023  -5.0979  -0.3714  -0.3215
     0.0375   0.0616   0.2162   0.5287   0.7984   0.8722   1.2637   2.1680
     2.5006   2.7118   3.5340   3.7210   3.8548   6.1419   6.2940   6.9140
     7.1642   7.4646   7.6724   8.3380   8.4342   8.5008   8.6438   9.1028
     9.5260   9.6216   9.9227  10.0923  10.5353  10.7191  10.9842  11.2902
    11.6532  11.8724  12.6816  12.8285  13.3481  13.7470  14.0555  14.1938
    14.5707  14.8128  15.2489  15.5835  15.8037  15.8566  16.1178  16.1888
    16.2917  16.3965  16.6558  16.7289  16.9413  17.0976  17.2098  17.2542
    17.3975  17.6188  17.6551  17.8921  18.0320  18.1267  18.4154  18.5724
    18.7157  18.7898  19.0963  19.1773

          k = 0.0238 0.0423 0.0000 ( 14947 PWs)   bands (ev):

   -34.8390 -34.8386 -34.8361 -34.8357 -34.8052 -34.8022 -34.7985 -34.7957
   -34.7889 -34.7860 -34.7327 -34.7285 -34.7146 -34.6907 -34.6891 -27.6211
   -27.6200 -27.6188 -27.6176 -27.6137 -27.6114 -27.6096 -27.6072 -27.6068
   -27.6045 -10.7284 -10.1893  -9.1220  -6.4009  -5.0864  -0.3425  -0.2682
     0.0600   0.0773   0.2440   0.5653   0.7805   0.8532   1.2179   2.1258
     2.5171   2.6976   3.5174   3.7160   3.8258   6.1309   6.2923   6.9156
     7.1774   7.4642   7.6869   8.3357   8.4258   8.5152   8.6218   9.0991
     9.4915   9.6182   9.9076  10.0578  10.5009  10.7392  11.0227  11.2980
    11.5916  11.8114  12.6908  12.8072  13.3956  13.8171  14.0284  14.1677
    14.5231  14.8744  15.2469  15.6328  15.8231  15.9182  16.1000  16.2263
    16.3297  16.3943  16.6470  16.8128  16.9983  17.1040  17.1899  17.2102
    17.3860  17.5466  17.5640  17.8483  18.0436  18.2339  18.2961  18.5344
    18.7315  18.8934  19.0962  19.1441

          k = 0.0190 0.0339 0.0000 ( 14959 PWs)   bands (ev):

   -34.8390 -34.8386 -34.8361 -34.8357 -34.8052 -34.8022 -34.7985 -34.7957
   -34.7889 -34.7860 -34.7327 -34.7285 -34.7146 -34.6907 -34.6891 -27.6211
   -27.6200 -27.6188 -27.6177 -27.6137 -27.6114 -27.6096 -27.6072 -27.6068
   -27.6045 -10.7336 -10.1940  -9.1248  -6.3998  -5.0769  -0.3221  -0.2175
     0.0679   0.1043   0.2671   0.5983   0.7505   0.8507   1.1749   2.0832
     2.5346   2.6914   3.4966   3.7111   3.8061   6.1219   6.2909   6.9160
     7.1878   7.4640   7.7046   8.3187   8.4284   8.5320   8.6034   9.0987
     9.4572   9.6080   9.9046  10.0287  10.4704  10.7556  11.0705  11.3070
    11.5333  11.7504  12.7002  12.7886  13.4443  13.8875  13.9960  14.1459
    14.4708  14.9266  15.2435  15.7003  15.8220  15.9785  16.0437  16.2533
    16.3774  16.4407  16.6222  16.9126  17.0212  17.1056  17.1615  17.2194
    17.3746  17.4573  17.4875  17.7872  18.0518  18.2151  18.3559  18.4287
    18.8279  18.9720  19.0666  19.1442

          k = 0.0143 0.0254 0.0000 ( 14972 PWs)   bands (ev):

   -34.8390 -34.8386 -34.8361 -34.8357 -34.8052 -34.8022 -34.7985 -34.7957
   -34.7889 -34.7860 -34.7327 -34.7285 -34.7146 -34.6907 -34.6891 -27.6211
   -27.6201 -27.6188 -27.6177 -27.6137 -27.6114 -27.6096 -27.6072 -27.6068
   -27.6044 -10.7376 -10.1977  -9.1270  -6.3989  -5.0696  -0.3071  -0.1745
     0.0727   0.1300   0.2861   0.6236   0.7213   0.8541   1.1381   2.0439
     2.5492   2.6923   3.4741   3.7064   3.7944   6.1147   6.2898   6.9158
     7.1954   7.4639   7.7230   8.2955   8.4369   8.5465   8.5901   9.1005
     9.4256   9.5949   9.9084  10.0056  10.4461  10.7675  11.1245  11.3172
    11.4786  11.6920  12.7093  12.7725  13.4928  13.9434  13.9712  14.1292
    14.4212  14.9495  15.2659  15.7611  15.8284  15.9717  16.0177  16.2707
    16.4096  16.5381  16.6081  16.9725  17.0222  17.0869  17.1245  17.3043
    17.3492  17.3741  17.4404  17.7414  17.9612  18.1954  18.3803  18.4745
    18.9227  18.9902  19.0100  19.1844

          k = 0.0095 0.0169 0.0000 ( 14967 PWs)   bands (ev):

   -34.8390 -34.8386 -34.8361 -34.8357 -34.8052 -34.8022 -34.7985 -34.7957
   -34.7889 -34.7860 -34.7327 -34.7285 -34.7146 -34.6907 -34.6891 -27.6211
   -27.6201 -27.6188 -27.6177 -27.6137 -27.6114 -27.6096 -27.6072 -27.6068
   -27.6044 -10.7404 -10.2003  -9.1285  -6.3983  -5.0643  -0.2967  -0.1419
     0.0764   0.1502   0.3010   0.6384   0.6995   0.8588   1.1106   2.0122
     2.5590   2.6978   3.4538   3.7026   3.7883   6.1096   6.2890   6.9154
     7.2005   7.4640   7.7393   8.2740   8.4456   8.5540   8.5849   9.1034
     9.3999   9.5828   9.9142   9.9888  10.4288  10.7754  11.1803  11.3278
    11.4283  11.6406  12.7181  12.7588  13.5377  13.9176  14.0202  14.1169
    14.3781  14.9452  15.3156  15.7704  15.8745  15.9072  16.0360  16.2602
    16.4782  16.5757  16.6679  16.9110  17.0256  17.1004  17.1308  17.2564
    17.3633  17.3963  17.4270  17.7195  17.8440  18.1095  18.4474  18.5840
    18.8971  19.0055  19.0135  19.1904

          k = 0.0048 0.0085 0.0000 ( 14967 PWs)   bands (ev):

   -34.8390 -34.8386 -34.8361 -34.8357 -34.8052 -34.8022 -34.7985 -34.7957
   -34.7889 -34.7860 -34.7327 -34.7285 -34.7146 -34.6907 -34.6891 -27.6211
   -27.6201 -27.6188 -27.6177 -27.6137 -27.6114 -27.6096 -27.6072 -27.6068
   -27.6044 -10.7421 -10.2018  -9.1294  -6.3979  -5.0611  -0.2906  -0.1215
     0.0789   0.1630   0.3110   0.6430   0.6882   0.8626   1.0940   1.9914
     2.5643   2.7036   3.4395   3.7002   3.7856   6.1065   6.2885   6.9150
     7.2034   7.4641   7.7507   8.2591   8.4518   8.5538   8.5871   9.1060
     9.3829   9.5743   9.9187   9.9786  10.4185  10.7800  11.2321  11.3339
    11.3863  11.6034  12.7269  12.7472  13.5721  13.8882  14.0665  14.1072
    14.3464  14.9331  15.3684  15.7471  15.8675  15.9274  16.0417  16.2405
    16.5300  16.6132  16.7566  16.8221  17.0012  17.0889  17.1743  17.1786
    17.3704  17.4324  17.4782  17.7185  17.7420  18.0168  18.5472  18.6711
    18.8041  18.9951  19.0607  19.1638

          k = 0.0000 0.0000 0.0000 ( 14963 PWs)   bands (ev):

   -34.8390 -34.8386 -34.8361 -34.8357 -34.8052 -34.8022 -34.7985 -34.7957
   -34.7889 -34.7860 -34.7327 -34.7285 -34.7146 -34.6907 -34.6891 -27.6211
   -27.6201 -27.6188 -27.6177 -27.6137 -27.6114 -27.6096 -27.6072 -27.6068
   -27.6044 -10.7427 -10.2023  -9.1297  -6.3978  -5.0601  -0.2886  -0.1146
     0.0798   0.1674   0.3146   0.6432   0.6853   0.8640   1.0885   1.9842
     2.5659   2.7061   3.4344   3.6994   3.7848   6.1054   6.2883   6.9149
     7.2044   7.4642   7.7548   8.2538   8.4540   8.5528   8.5889   9.1070
     9.3770   9.5713   9.9204   9.9752  10.4150  10.7815  11.2601  11.3297
    11.3694  11.5894  12.7341  12.7390  13.5856  13.8762  14.0936  14.0946
    14.3340  14.9275  15.3925  15.7311  15.8562  15.9504  16.0415  16.2308
    16.5368  16.6803  16.7419  16.8055  16.9902  17.0771  17.1433  17.1937
    17.3740  17.4486  17.5139  17.6769  17.7401  17.9730  18.6275  18.6715
    18.7683  18.9775  19.0776  19.1455

     Writing all to output data dir tmp/Sb2Te3-uatsx-c1-4.0.save/ :
     XML data file, pseudopotentials, collected wavefunctions

     init_run     :      1.19s CPU      1.19s WALL (       1 calls)
     electrons    :    881.29s CPU    498.38s WALL (       1 calls)

     Called by init_run:
     wfcinit      :      0.00s CPU      0.00s WALL (       1 calls)
     wfcinit:wfcr :     18.23s CPU      9.47s WALL (     211 calls)
     potinit      :      0.48s CPU      0.47s WALL (       1 calls)
     hinit0       :      0.60s CPU      0.61s WALL (       1 calls)

     Called by electrons:
     c_bands      :    881.27s CPU    498.36s WALL (       1 calls)
     v_of_rho     :      0.05s CPU      0.03s WALL (       1 calls)
     v_h          :      0.01s CPU      0.00s WALL (       1 calls)
     v_xc         :      0.04s CPU      0.03s WALL (       1 calls)

     Called by c_bands:
     init_us_2    :      0.20s CPU      0.11s WALL (     211 calls)
     cegterg      :    860.36s CPU    487.15s WALL (     713 calls)

     Called by sum_band:

     Called by *egterg:
     cdiaghg      :    278.35s CPU    190.71s WALL (   12578 calls)
     cegterg:over :     52.68s CPU     28.57s WALL (   12367 calls)
     cegterg:upda :     29.18s CPU     12.76s WALL (   12367 calls)
     cegterg:last :     43.65s CPU     21.86s WALL (    5865 calls)
     h_psi        :    447.77s CPU    226.41s WALL (   13291 calls)
     g_psi        :      2.90s CPU      2.17s WALL (   12367 calls)

     Called by h_psi:
     h_psi:calbec :     20.91s CPU      8.77s WALL (   13291 calls)
     vloc_psi     :    413.13s CPU    211.22s WALL (   13291 calls)
     add_vuspsi   :     12.10s CPU      5.52s WALL (   13291 calls)

     General routines
     calbec       :     20.85s CPU      8.74s WALL (   13291 calls)
     fft          :      0.62s CPU      0.63s WALL (      11 calls)
     ffts         :      0.42s CPU      0.42s WALL (       1 calls)
     fftw         :    342.35s CPU    175.82s WALL ( 1216890 calls)
     interpolate  :      0.42s CPU      0.42s WALL (       1 calls)
     davcio       :      0.10s CPU      0.18s WALL (     422 calls)

     Parallel routines

     PWSCF        :  14m50.04s CPU   9m14.89s WALL


   This run was terminated on:  16:34:34  13Aug2025            

=------------------------------------------------------------------------------=
   JOB DONE.
=------------------------------------------------------------------------------=
