
     Program PWSCF v.7.4.1 starts on 22Aug2025 at 19:26:46 

     This program is part of the open-source Quantum ESPRESSO suite
     for quantum simulation of materials; please cite
         "P. Giannozzi et al., J. Phys.:Condens. Matter 21 395502 (2009);
         "P. Giannozzi et al., J. Phys.:Condens. Matter 29 465901 (2017);
         "P. Giannozzi et al., J. Chem. Phys. 152 154105 (2020);
          URL http://www.quantum-espresso.org", 
     in publications or presentations arising from this work. More details at
     http://www.quantum-espresso.org/quote

     Parallel version (MPI & OpenMP), running on      48 processor cores
     Number of MPI processes:                24
     Threads/MPI process:                     2

     MPI processes distributed on     2 nodes
     121176 MiB available memory on the printing compute node when the environment starts

     Waiting for input...
     Reading input from standard input

     Current dimensions of program PWSCF are:
     Max number of different atomic species (ntypx) = 10
     Max number of k-points (npk) =  40000
     Max angular momentum in pseudopotentials (lmaxx) =  4
     file Sb.rel-pbe-n-rrkjus_psl.1.0.0.UPF: wavefunction(s)  5S renormalized
     file Te.rel-pbe-n-rrkjus_psl.1.0.0.UPF: wavefunction(s)  5S renormalized

     IMPORTANT: XC functional enforced from input :
     Exchange-correlation= PBE
                           (   1   4   3   4   0   0   0)
     Any further DFT definition will be discarded
     Please, verify this is what you really want


     Atomic positions and unit cell read from directory:
     tmp/Sb2Te3-uatsx-c6-soc-0.0.save/


     R & G space division:  proc/nbgrp/npool/nimage =      24
     Subspace diagonalization in iterative solution of the eigenvalue problem:
     a serial algorithm will be used


     Parallelization info
     --------------------
     sticks:   dense  smooth     PW     G-vecs:    dense   smooth      PW
     Min          94      38     10                18908     4792     720
     Max          95      39     11                18933     4815     753
     Sum        2275     925    253               454177   115133   17665

     Using Slab Decomposition



     bravais-lattice index     =            0
     lattice parameter (alat)  =       8.1456  a.u.
     unit-cell volume          =    2407.5243 (a.u.)^3
     number of atoms/cell      =            5
     number of atomic types    =            2
     number of electrons       =        28.00
     number of Kohn-Sham states=          100
     kinetic-energy cutoff     =      50.0000  Ry
     charge density cutoff     =     500.0000  Ry
     Exchange-correlation= PBE
                           (   1   4   3   4   0   0   0)
     Non magnetic calculation with spin-orbit


     celldm(1)=   8.145633  celldm(2)=   0.000000  celldm(3)=   0.000000
     celldm(4)=   0.000000  celldm(5)=   0.000000  celldm(6)=   0.000000

     crystal axes: (cart. coord. in units of alat)
               a(1) = (   1.000000   0.000000   0.000000 )  
               a(2) = (  -0.500000   0.866351   0.000000 )  
               a(3) = (   0.000000   0.000000   5.141647 )  

     reciprocal axes: (cart. coord. in units 2 pi/alat)
               b(1) = (  1.000000  0.577133 -0.000000 )  
               b(2) = (  0.000000  1.154267  0.000000 )  
               b(3) = (  0.000000 -0.000000  0.194490 )  


     PseudoPot. # 1 for Sb read from file:
     /zfs-home/202401017n1/pseudos/Sb.rel-pbe-n-rrkjus_psl.1.0.0.UPF
     MD5 check sum: c1afc134568783a62b80e43a202109b2
     Pseudo is Ultrasoft + core correction, Zval =  5.0
     Generated using &quot;atomic&quot; code by A. Dal Corso  v.6.2.2
     Using radial grid of 1243 points, 10 beta functions with: 
                l(1) =   0
                l(2) =   0
                l(3) =   1
                l(4) =   1
                l(5) =   1
                l(6) =   1
                l(7) =   2
                l(8) =   2
                l(9) =   2
               l(10) =   2
     Q(r) pseudized with 0 coefficients 


     PseudoPot. # 2 for Te read from file:
     /zfs-home/202401017n1/pseudos/Te.rel-pbe-n-rrkjus_psl.1.0.0.UPF
     MD5 check sum: 7fd30b6833abd190471e4dcc2367351b
     Pseudo is Ultrasoft + core correction, Zval =  6.0
     Generated using &quot;atomic&quot; code by A. Dal Corso  v.6.3
     Using radial grid of 1245 points, 10 beta functions with: 
                l(1) =   0
                l(2) =   0
                l(3) =   1
                l(4) =   1
                l(5) =   1
                l(6) =   1
                l(7) =   2
                l(8) =   2
                l(9) =   2
               l(10) =   2
     Q(r) pseudized with 0 coefficients 


     atomic species   valence    mass     pseudopotential
     Sb                5.00   121.76000     Sb( 1.00)
     Te                6.00   127.60000     Te( 1.00)

     No symmetry found


                                    s                        frac. trans.

      isym =  1     identity                                     

 cryst.   s( 1) = (     1          0          0      )
                  (     0          1          0      )
                  (     0          0          1      )

 cart.    s( 1) = (  1.0000000  0.0000000  0.0000000 )
                  (  0.0000000  1.0000000  0.0000000 )
                  (  0.0000000  0.0000000  1.0000000 )


   Cartesian axes

     site n.     atom                  positions (alat units)
         1        Sb     tau(   1) = (   0.5754431   0.4220521   3.0333851  )
         2        Te     tau(   2) = (   0.5747551   0.4223309   1.7144876  )
         3        Sb     tau(   3) = (   0.0752910   0.1326355   2.1082148  )
         4        Te     tau(   4) = (   0.0751205   0.1338578   3.4271228  )
         5        Te     tau(   5) = (   0.0748618   0.7114055   2.5708084  )

     -------------------------------------------------
     Parameters for Dispersion (Grimme-D2) Correction:
     -------------------------------------------------
       atom      VdW radius       C_6     

        Sb         3.555       1333.532
        Te         3.575       1101.101

   Crystallographic axes

     site n.     atom                  positions (cryst. coord.)
         1        Sb     tau(   1) = (  0.8190235  0.4871607  0.5899637  )
         2        Te     tau(   2) = (  0.8184963  0.4874825  0.3334511  )
         3        Sb     tau(   3) = (  0.1518394  0.1530967  0.4100271  )
         4        Te     tau(   4) = (  0.1523743  0.1545076  0.6665418  )
         5        Te     tau(   5) = (  0.4854376  0.8211517  0.4999971  )

     number of k points=   211
                       cart. coord. in units 2pi/alat
        k(    1) = (   0.0000000   0.0000000   0.0000000), wk =   0.0047393
        k(    2) = (   0.0071429   0.0041224   0.0000000), wk =   0.0047393
        k(    3) = (   0.0142857   0.0082448   0.0000000), wk =   0.0047393
        k(    4) = (   0.0214286   0.0123671   0.0000000), wk =   0.0047393
        k(    5) = (   0.0285714   0.0164895   0.0000000), wk =   0.0047393
        k(    6) = (   0.0357143   0.0206119   0.0000000), wk =   0.0047393
        k(    7) = (   0.0428571   0.0247343   0.0000000), wk =   0.0047393
        k(    8) = (   0.0500000   0.0288567   0.0000000), wk =   0.0047393
        k(    9) = (   0.0571429   0.0329790   0.0000000), wk =   0.0047393
        k(   10) = (   0.0642857   0.0371014   0.0000000), wk =   0.0047393
        k(   11) = (   0.0714286   0.0412238   0.0000000), wk =   0.0047393
        k(   12) = (   0.0785714   0.0453462   0.0000000), wk =   0.0047393
        k(   13) = (   0.0857143   0.0494686   0.0000000), wk =   0.0047393
        k(   14) = (   0.0928571   0.0535910   0.0000000), wk =   0.0047393
        k(   15) = (   0.1000000   0.0577133   0.0000000), wk =   0.0047393
        k(   16) = (   0.1071429   0.0618357   0.0000000), wk =   0.0047393
        k(   17) = (   0.1142857   0.0659581   0.0000000), wk =   0.0047393
        k(   18) = (   0.1214286   0.0700805   0.0000000), wk =   0.0047393
        k(   19) = (   0.1285714   0.0742029   0.0000000), wk =   0.0047393
        k(   20) = (   0.1357143   0.0783252   0.0000000), wk =   0.0047393
        k(   21) = (   0.1428571   0.0824476   0.0000000), wk =   0.0047393
        k(   22) = (   0.1500000   0.0865700   0.0000000), wk =   0.0047393
        k(   23) = (   0.1571429   0.0906924   0.0000000), wk =   0.0047393
        k(   24) = (   0.1642857   0.0948148   0.0000000), wk =   0.0047393
        k(   25) = (   0.1714286   0.0989371   0.0000000), wk =   0.0047393
        k(   26) = (   0.1785714   0.1030595   0.0000000), wk =   0.0047393
        k(   27) = (   0.1857143   0.1071819   0.0000000), wk =   0.0047393
        k(   28) = (   0.1928571   0.1113043   0.0000000), wk =   0.0047393
        k(   29) = (   0.2000000   0.1154267   0.0000000), wk =   0.0047393
        k(   30) = (   0.2071429   0.1195490   0.0000000), wk =   0.0047393
        k(   31) = (   0.2142857   0.1236714   0.0000000), wk =   0.0047393
        k(   32) = (   0.2214286   0.1277938   0.0000000), wk =   0.0047393
        k(   33) = (   0.2285714   0.1319162   0.0000000), wk =   0.0047393
        k(   34) = (   0.2357143   0.1360386   0.0000000), wk =   0.0047393
        k(   35) = (   0.2428571   0.1401610   0.0000000), wk =   0.0047393
        k(   36) = (   0.2500000   0.1442833   0.0000000), wk =   0.0047393
        k(   37) = (   0.2571429   0.1484057   0.0000000), wk =   0.0047393
        k(   38) = (   0.2642857   0.1525281   0.0000000), wk =   0.0047393
        k(   39) = (   0.2714286   0.1566505   0.0000000), wk =   0.0047393
        k(   40) = (   0.2785714   0.1607729   0.0000000), wk =   0.0047393
        k(   41) = (   0.2857143   0.1648952   0.0000000), wk =   0.0047393
        k(   42) = (   0.2928571   0.1690176   0.0000000), wk =   0.0047393
        k(   43) = (   0.3000000   0.1731400   0.0000000), wk =   0.0047393
        k(   44) = (   0.3071429   0.1772624   0.0000000), wk =   0.0047393
        k(   45) = (   0.3142857   0.1813848   0.0000000), wk =   0.0047393
        k(   46) = (   0.3214286   0.1855071   0.0000000), wk =   0.0047393
        k(   47) = (   0.3285714   0.1896295   0.0000000), wk =   0.0047393
        k(   48) = (   0.3357143   0.1937519   0.0000000), wk =   0.0047393
        k(   49) = (   0.3428571   0.1978743   0.0000000), wk =   0.0047393
        k(   50) = (   0.3500000   0.2019967   0.0000000), wk =   0.0047393
        k(   51) = (   0.3571429   0.2061190   0.0000000), wk =   0.0047393
        k(   52) = (   0.3642857   0.2102414   0.0000000), wk =   0.0047393
        k(   53) = (   0.3714286   0.2143638   0.0000000), wk =   0.0047393
        k(   54) = (   0.3785714   0.2184862   0.0000000), wk =   0.0047393
        k(   55) = (   0.3857143   0.2226086   0.0000000), wk =   0.0047393
        k(   56) = (   0.3928571   0.2267309   0.0000000), wk =   0.0047393
        k(   57) = (   0.4000000   0.2308533   0.0000000), wk =   0.0047393
        k(   58) = (   0.4071429   0.2349757   0.0000000), wk =   0.0047393
        k(   59) = (   0.4142857   0.2390981   0.0000000), wk =   0.0047393
        k(   60) = (   0.4214286   0.2432205   0.0000000), wk =   0.0047393
        k(   61) = (   0.4285714   0.2473429   0.0000000), wk =   0.0047393
        k(   62) = (   0.4357143   0.2514652   0.0000000), wk =   0.0047393
        k(   63) = (   0.4428571   0.2555876   0.0000000), wk =   0.0047393
        k(   64) = (   0.4500000   0.2597100   0.0000000), wk =   0.0047393
        k(   65) = (   0.4571429   0.2638324   0.0000000), wk =   0.0047393
        k(   66) = (   0.4642857   0.2679548   0.0000000), wk =   0.0047393
        k(   67) = (   0.4714286   0.2720771   0.0000000), wk =   0.0047393
        k(   68) = (   0.4785714   0.2761995   0.0000000), wk =   0.0047393
        k(   69) = (   0.4857143   0.2803219   0.0000000), wk =   0.0047393
        k(   70) = (   0.4928571   0.2844443   0.0000000), wk =   0.0047393
        k(   71) = (   0.5000000   0.2885667   0.0000000), wk =   0.0047393
        k(   72) = (   0.4976190   0.2926890   0.0000000), wk =   0.0047393
        k(   73) = (   0.4952381   0.2968114   0.0000000), wk =   0.0047393
        k(   74) = (   0.4928571   0.3009338   0.0000000), wk =   0.0047393
        k(   75) = (   0.4904762   0.3050562   0.0000000), wk =   0.0047393
        k(   76) = (   0.4880952   0.3091786   0.0000000), wk =   0.0047393
        k(   77) = (   0.4857143   0.3133009   0.0000000), wk =   0.0047393
        k(   78) = (   0.4833333   0.3174233   0.0000000), wk =   0.0047393
        k(   79) = (   0.4809524   0.3215457   0.0000000), wk =   0.0047393
        k(   80) = (   0.4785714   0.3256681   0.0000000), wk =   0.0047393
        k(   81) = (   0.4761905   0.3297905   0.0000000), wk =   0.0047393
        k(   82) = (   0.4738095   0.3339129   0.0000000), wk =   0.0047393
        k(   83) = (   0.4714286   0.3380352   0.0000000), wk =   0.0047393
        k(   84) = (   0.4690476   0.3421576   0.0000000), wk =   0.0047393
        k(   85) = (   0.4666667   0.3462800   0.0000000), wk =   0.0047393
        k(   86) = (   0.4642857   0.3504024   0.0000000), wk =   0.0047393
        k(   87) = (   0.4619048   0.3545248   0.0000000), wk =   0.0047393
        k(   88) = (   0.4595238   0.3586471   0.0000000), wk =   0.0047393
        k(   89) = (   0.4571429   0.3627695   0.0000000), wk =   0.0047393
        k(   90) = (   0.4547619   0.3668919   0.0000000), wk =   0.0047393
        k(   91) = (   0.4523810   0.3710143   0.0000000), wk =   0.0047393
        k(   92) = (   0.4500000   0.3751367   0.0000000), wk =   0.0047393
        k(   93) = (   0.4476190   0.3792590   0.0000000), wk =   0.0047393
        k(   94) = (   0.4452381   0.3833814   0.0000000), wk =   0.0047393
        k(   95) = (   0.4428571   0.3875038   0.0000000), wk =   0.0047393
        k(   96) = (   0.4404762   0.3916262   0.0000000), wk =   0.0047393
        k(   97) = (   0.4380952   0.3957486   0.0000000), wk =   0.0047393
        k(   98) = (   0.4357143   0.3998709   0.0000000), wk =   0.0047393
        k(   99) = (   0.4333333   0.4039933   0.0000000), wk =   0.0047393
        k(  100) = (   0.4309524   0.4081157   0.0000000), wk =   0.0047393
        k(  101) = (   0.4285714   0.4122381   0.0000000), wk =   0.0047393
        k(  102) = (   0.4261905   0.4163605   0.0000000), wk =   0.0047393
        k(  103) = (   0.4238095   0.4204829   0.0000000), wk =   0.0047393
        k(  104) = (   0.4214286   0.4246052   0.0000000), wk =   0.0047393
        k(  105) = (   0.4190476   0.4287276   0.0000000), wk =   0.0047393
        k(  106) = (   0.4166667   0.4328500   0.0000000), wk =   0.0047393
        k(  107) = (   0.4142857   0.4369724   0.0000000), wk =   0.0047393
        k(  108) = (   0.4119048   0.4410948   0.0000000), wk =   0.0047393
        k(  109) = (   0.4095238   0.4452171   0.0000000), wk =   0.0047393
        k(  110) = (   0.4071429   0.4493395   0.0000000), wk =   0.0047393
        k(  111) = (   0.4047619   0.4534619   0.0000000), wk =   0.0047393
        k(  112) = (   0.4023810   0.4575843   0.0000000), wk =   0.0047393
        k(  113) = (   0.4000000   0.4617067   0.0000000), wk =   0.0047393
        k(  114) = (   0.3976190   0.4658290   0.0000000), wk =   0.0047393
        k(  115) = (   0.3952381   0.4699514   0.0000000), wk =   0.0047393
        k(  116) = (   0.3928571   0.4740738   0.0000000), wk =   0.0047393
        k(  117) = (   0.3904762   0.4781962   0.0000000), wk =   0.0047393
        k(  118) = (   0.3880952   0.4823186   0.0000000), wk =   0.0047393
        k(  119) = (   0.3857143   0.4864409   0.0000000), wk =   0.0047393
        k(  120) = (   0.3833333   0.4905633   0.0000000), wk =   0.0047393
        k(  121) = (   0.3809524   0.4946857   0.0000000), wk =   0.0047393
        k(  122) = (   0.3785714   0.4988081   0.0000000), wk =   0.0047393
        k(  123) = (   0.3761905   0.5029305   0.0000000), wk =   0.0047393
        k(  124) = (   0.3738095   0.5070529   0.0000000), wk =   0.0047393
        k(  125) = (   0.3714286   0.5111752   0.0000000), wk =   0.0047393
        k(  126) = (   0.3690476   0.5152976   0.0000000), wk =   0.0047393
        k(  127) = (   0.3666667   0.5194200   0.0000000), wk =   0.0047393
        k(  128) = (   0.3642857   0.5235424   0.0000000), wk =   0.0047393
        k(  129) = (   0.3619048   0.5276648   0.0000000), wk =   0.0047393
        k(  130) = (   0.3595238   0.5317871   0.0000000), wk =   0.0047393
        k(  131) = (   0.3571429   0.5359095   0.0000000), wk =   0.0047393
        k(  132) = (   0.3547619   0.5400319   0.0000000), wk =   0.0047393
        k(  133) = (   0.3523810   0.5441543   0.0000000), wk =   0.0047393
        k(  134) = (   0.3500000   0.5482767   0.0000000), wk =   0.0047393
        k(  135) = (   0.3476190   0.5523990   0.0000000), wk =   0.0047393
        k(  136) = (   0.3452381   0.5565214   0.0000000), wk =   0.0047393
        k(  137) = (   0.3428571   0.5606438   0.0000000), wk =   0.0047393
        k(  138) = (   0.3404762   0.5647662   0.0000000), wk =   0.0047393
        k(  139) = (   0.3380952   0.5688886   0.0000000), wk =   0.0047393
        k(  140) = (   0.3357143   0.5730109   0.0000000), wk =   0.0047393
        k(  141) = (   0.3333333   0.5771333   0.0000000), wk =   0.0047393
        k(  142) = (   0.3285714   0.5688886   0.0000000), wk =   0.0047393
        k(  143) = (   0.3238095   0.5606438   0.0000000), wk =   0.0047393
        k(  144) = (   0.3190476   0.5523990   0.0000000), wk =   0.0047393
        k(  145) = (   0.3142857   0.5441543   0.0000000), wk =   0.0047393
        k(  146) = (   0.3095238   0.5359095   0.0000000), wk =   0.0047393
        k(  147) = (   0.3047619   0.5276648   0.0000000), wk =   0.0047393
        k(  148) = (   0.3000000   0.5194200   0.0000000), wk =   0.0047393
        k(  149) = (   0.2952381   0.5111752   0.0000000), wk =   0.0047393
        k(  150) = (   0.2904762   0.5029305   0.0000000), wk =   0.0047393
        k(  151) = (   0.2857143   0.4946857   0.0000000), wk =   0.0047393
        k(  152) = (   0.2809524   0.4864409   0.0000000), wk =   0.0047393
        k(  153) = (   0.2761905   0.4781962   0.0000000), wk =   0.0047393
        k(  154) = (   0.2714286   0.4699514   0.0000000), wk =   0.0047393
        k(  155) = (   0.2666667   0.4617067   0.0000000), wk =   0.0047393
        k(  156) = (   0.2619048   0.4534619   0.0000000), wk =   0.0047393
        k(  157) = (   0.2571429   0.4452171   0.0000000), wk =   0.0047393
        k(  158) = (   0.2523810   0.4369724   0.0000000), wk =   0.0047393
        k(  159) = (   0.2476190   0.4287276   0.0000000), wk =   0.0047393
        k(  160) = (   0.2428571   0.4204829   0.0000000), wk =   0.0047393
        k(  161) = (   0.2380952   0.4122381   0.0000000), wk =   0.0047393
        k(  162) = (   0.2333333   0.4039933   0.0000000), wk =   0.0047393
        k(  163) = (   0.2285714   0.3957486   0.0000000), wk =   0.0047393
        k(  164) = (   0.2238095   0.3875038   0.0000000), wk =   0.0047393
        k(  165) = (   0.2190476   0.3792590   0.0000000), wk =   0.0047393
        k(  166) = (   0.2142857   0.3710143   0.0000000), wk =   0.0047393
        k(  167) = (   0.2095238   0.3627695   0.0000000), wk =   0.0047393
        k(  168) = (   0.2047619   0.3545248   0.0000000), wk =   0.0047393
        k(  169) = (   0.2000000   0.3462800   0.0000000), wk =   0.0047393
        k(  170) = (   0.1952381   0.3380352   0.0000000), wk =   0.0047393
        k(  171) = (   0.1904762   0.3297905   0.0000000), wk =   0.0047393
        k(  172) = (   0.1857143   0.3215457   0.0000000), wk =   0.0047393
        k(  173) = (   0.1809524   0.3133009   0.0000000), wk =   0.0047393
        k(  174) = (   0.1761905   0.3050562   0.0000000), wk =   0.0047393
        k(  175) = (   0.1714286   0.2968114   0.0000000), wk =   0.0047393
        k(  176) = (   0.1666667   0.2885667   0.0000000), wk =   0.0047393
        k(  177) = (   0.1619048   0.2803219   0.0000000), wk =   0.0047393
        k(  178) = (   0.1571429   0.2720771   0.0000000), wk =   0.0047393
        k(  179) = (   0.1523810   0.2638324   0.0000000), wk =   0.0047393
        k(  180) = (   0.1476190   0.2555876   0.0000000), wk =   0.0047393
        k(  181) = (   0.1428571   0.2473429   0.0000000), wk =   0.0047393
        k(  182) = (   0.1380952   0.2390981   0.0000000), wk =   0.0047393
        k(  183) = (   0.1333333   0.2308533   0.0000000), wk =   0.0047393
        k(  184) = (   0.1285714   0.2226086   0.0000000), wk =   0.0047393
        k(  185) = (   0.1238095   0.2143638   0.0000000), wk =   0.0047393
        k(  186) = (   0.1190476   0.2061190   0.0000000), wk =   0.0047393
        k(  187) = (   0.1142857   0.1978743   0.0000000), wk =   0.0047393
        k(  188) = (   0.1095238   0.1896295   0.0000000), wk =   0.0047393
        k(  189) = (   0.1047619   0.1813848   0.0000000), wk =   0.0047393
        k(  190) = (   0.1000000   0.1731400   0.0000000), wk =   0.0047393
        k(  191) = (   0.0952381   0.1648952   0.0000000), wk =   0.0047393
        k(  192) = (   0.0904762   0.1566505   0.0000000), wk =   0.0047393
        k(  193) = (   0.0857143   0.1484057   0.0000000), wk =   0.0047393
        k(  194) = (   0.0809524   0.1401610   0.0000000), wk =   0.0047393
        k(  195) = (   0.0761905   0.1319162   0.0000000), wk =   0.0047393
        k(  196) = (   0.0714286   0.1236714   0.0000000), wk =   0.0047393
        k(  197) = (   0.0666667   0.1154267   0.0000000), wk =   0.0047393
        k(  198) = (   0.0619048   0.1071819   0.0000000), wk =   0.0047393
        k(  199) = (   0.0571429   0.0989371   0.0000000), wk =   0.0047393
        k(  200) = (   0.0523810   0.0906924   0.0000000), wk =   0.0047393
        k(  201) = (   0.0476190   0.0824476   0.0000000), wk =   0.0047393
        k(  202) = (   0.0428571   0.0742029   0.0000000), wk =   0.0047393
        k(  203) = (   0.0380952   0.0659581   0.0000000), wk =   0.0047393
        k(  204) = (   0.0333333   0.0577133   0.0000000), wk =   0.0047393
        k(  205) = (   0.0285714   0.0494686   0.0000000), wk =   0.0047393
        k(  206) = (   0.0238095   0.0412238   0.0000000), wk =   0.0047393
        k(  207) = (   0.0190476   0.0329790   0.0000000), wk =   0.0047393
        k(  208) = (   0.0142857   0.0247343   0.0000000), wk =   0.0047393
        k(  209) = (   0.0095238   0.0164895   0.0000000), wk =   0.0047393
        k(  210) = (   0.0047619   0.0082448   0.0000000), wk =   0.0047393
        k(  211) = (   0.0000000   0.0000000   0.0000000), wk =   0.0047393

                       cryst. coord.
        k(    1) = (   0.0000000   0.0000000   0.0000000), wk =   0.0047393
        k(    2) = (   0.0071429   0.0000000   0.0000000), wk =   0.0047393
        k(    3) = (   0.0142857   0.0000000   0.0000000), wk =   0.0047393
        k(    4) = (   0.0214286   0.0000000   0.0000000), wk =   0.0047393
        k(    5) = (   0.0285714   0.0000000   0.0000000), wk =   0.0047393
        k(    6) = (   0.0357143   0.0000000   0.0000000), wk =   0.0047393
        k(    7) = (   0.0428571   0.0000000   0.0000000), wk =   0.0047393
        k(    8) = (   0.0500000  -0.0000000   0.0000000), wk =   0.0047393
        k(    9) = (   0.0571429   0.0000000   0.0000000), wk =   0.0047393
        k(   10) = (   0.0642857   0.0000000   0.0000000), wk =   0.0047393
        k(   11) = (   0.0714286   0.0000000   0.0000000), wk =   0.0047393
        k(   12) = (   0.0785714   0.0000000   0.0000000), wk =   0.0047393
        k(   13) = (   0.0857143   0.0000000   0.0000000), wk =   0.0047393
        k(   14) = (   0.0928571   0.0000000   0.0000000), wk =   0.0047393
        k(   15) = (   0.1000000  -0.0000000   0.0000000), wk =   0.0047393
        k(   16) = (   0.1071429   0.0000000   0.0000000), wk =   0.0047393
        k(   17) = (   0.1142857   0.0000000   0.0000000), wk =   0.0047393
        k(   18) = (   0.1214286   0.0000000   0.0000000), wk =   0.0047393
        k(   19) = (   0.1285714   0.0000000   0.0000000), wk =   0.0047393
        k(   20) = (   0.1357143   0.0000000   0.0000000), wk =   0.0047393
        k(   21) = (   0.1428571   0.0000000   0.0000000), wk =   0.0047393
        k(   22) = (   0.1500000   0.0000000   0.0000000), wk =   0.0047393
        k(   23) = (   0.1571429   0.0000000   0.0000000), wk =   0.0047393
        k(   24) = (   0.1642857   0.0000000   0.0000000), wk =   0.0047393
        k(   25) = (   0.1714286   0.0000000   0.0000000), wk =   0.0047393
        k(   26) = (   0.1785714   0.0000000   0.0000000), wk =   0.0047393
        k(   27) = (   0.1857143   0.0000000   0.0000000), wk =   0.0047393
        k(   28) = (   0.1928571  -0.0000000   0.0000000), wk =   0.0047393
        k(   29) = (   0.2000000  -0.0000000   0.0000000), wk =   0.0047393
        k(   30) = (   0.2071429  -0.0000000   0.0000000), wk =   0.0047393
        k(   31) = (   0.2142857   0.0000000   0.0000000), wk =   0.0047393
        k(   32) = (   0.2214286   0.0000000   0.0000000), wk =   0.0047393
        k(   33) = (   0.2285714   0.0000000   0.0000000), wk =   0.0047393
        k(   34) = (   0.2357143   0.0000000   0.0000000), wk =   0.0047393
        k(   35) = (   0.2428571   0.0000000   0.0000000), wk =   0.0047393
        k(   36) = (   0.2500000   0.0000000   0.0000000), wk =   0.0047393
        k(   37) = (   0.2571429   0.0000000   0.0000000), wk =   0.0047393
        k(   38) = (   0.2642857   0.0000000   0.0000000), wk =   0.0047393
        k(   39) = (   0.2714286   0.0000000   0.0000000), wk =   0.0047393
        k(   40) = (   0.2785714   0.0000000   0.0000000), wk =   0.0047393
        k(   41) = (   0.2857143   0.0000000   0.0000000), wk =   0.0047393
        k(   42) = (   0.2928571   0.0000000   0.0000000), wk =   0.0047393
        k(   43) = (   0.3000000   0.0000000   0.0000000), wk =   0.0047393
        k(   44) = (   0.3071429   0.0000000   0.0000000), wk =   0.0047393
        k(   45) = (   0.3142857   0.0000000   0.0000000), wk =   0.0047393
        k(   46) = (   0.3214286   0.0000000   0.0000000), wk =   0.0047393
        k(   47) = (   0.3285714   0.0000000   0.0000000), wk =   0.0047393
        k(   48) = (   0.3357143   0.0000000   0.0000000), wk =   0.0047393
        k(   49) = (   0.3428571   0.0000000   0.0000000), wk =   0.0047393
        k(   50) = (   0.3500000   0.0000000   0.0000000), wk =   0.0047393
        k(   51) = (   0.3571429   0.0000000   0.0000000), wk =   0.0047393
        k(   52) = (   0.3642857   0.0000000   0.0000000), wk =   0.0047393
        k(   53) = (   0.3714286   0.0000000   0.0000000), wk =   0.0047393
        k(   54) = (   0.3785714   0.0000000   0.0000000), wk =   0.0047393
        k(   55) = (   0.3857143  -0.0000000   0.0000000), wk =   0.0047393
        k(   56) = (   0.3928571   0.0000000   0.0000000), wk =   0.0047393
        k(   57) = (   0.4000000  -0.0000000   0.0000000), wk =   0.0047393
        k(   58) = (   0.4071429   0.0000000   0.0000000), wk =   0.0047393
        k(   59) = (   0.4142857  -0.0000000   0.0000000), wk =   0.0047393
        k(   60) = (   0.4214286   0.0000000   0.0000000), wk =   0.0047393
        k(   61) = (   0.4285714   0.0000000   0.0000000), wk =   0.0047393
        k(   62) = (   0.4357143   0.0000000   0.0000000), wk =   0.0047393
        k(   63) = (   0.4428571   0.0000000   0.0000000), wk =   0.0047393
        k(   64) = (   0.4500000   0.0000000   0.0000000), wk =   0.0047393
        k(   65) = (   0.4571429   0.0000000   0.0000000), wk =   0.0047393
        k(   66) = (   0.4642857   0.0000000   0.0000000), wk =   0.0047393
        k(   67) = (   0.4714286   0.0000000   0.0000000), wk =   0.0047393
        k(   68) = (   0.4785714   0.0000000   0.0000000), wk =   0.0047393
        k(   69) = (   0.4857143   0.0000000   0.0000000), wk =   0.0047393
        k(   70) = (   0.4928571   0.0000000   0.0000000), wk =   0.0047393
        k(   71) = (   0.5000000   0.0000000   0.0000000), wk =   0.0047393
        k(   72) = (   0.4976190   0.0047619   0.0000000), wk =   0.0047393
        k(   73) = (   0.4952381   0.0095238   0.0000000), wk =   0.0047393
        k(   74) = (   0.4928571   0.0142857   0.0000000), wk =   0.0047393
        k(   75) = (   0.4904762   0.0190476   0.0000000), wk =   0.0047393
        k(   76) = (   0.4880952   0.0238095   0.0000000), wk =   0.0047393
        k(   77) = (   0.4857143   0.0285714   0.0000000), wk =   0.0047393
        k(   78) = (   0.4833333   0.0333333   0.0000000), wk =   0.0047393
        k(   79) = (   0.4809524   0.0380952   0.0000000), wk =   0.0047393
        k(   80) = (   0.4785714   0.0428571   0.0000000), wk =   0.0047393
        k(   81) = (   0.4761905   0.0476190   0.0000000), wk =   0.0047393
        k(   82) = (   0.4738095   0.0523810   0.0000000), wk =   0.0047393
        k(   83) = (   0.4714286   0.0571429   0.0000000), wk =   0.0047393
        k(   84) = (   0.4690476   0.0619048   0.0000000), wk =   0.0047393
        k(   85) = (   0.4666667   0.0666667   0.0000000), wk =   0.0047393
        k(   86) = (   0.4642857   0.0714286   0.0000000), wk =   0.0047393
        k(   87) = (   0.4619048   0.0761905   0.0000000), wk =   0.0047393
        k(   88) = (   0.4595238   0.0809524   0.0000000), wk =   0.0047393
        k(   89) = (   0.4571429   0.0857143   0.0000000), wk =   0.0047393
        k(   90) = (   0.4547619   0.0904762   0.0000000), wk =   0.0047393
        k(   91) = (   0.4523810   0.0952381   0.0000000), wk =   0.0047393
        k(   92) = (   0.4500000   0.1000000   0.0000000), wk =   0.0047393
        k(   93) = (   0.4476190   0.1047619   0.0000000), wk =   0.0047393
        k(   94) = (   0.4452381   0.1095238   0.0000000), wk =   0.0047393
        k(   95) = (   0.4428571   0.1142857   0.0000000), wk =   0.0047393
        k(   96) = (   0.4404762   0.1190476   0.0000000), wk =   0.0047393
        k(   97) = (   0.4380952   0.1238095   0.0000000), wk =   0.0047393
        k(   98) = (   0.4357143   0.1285714   0.0000000), wk =   0.0047393
        k(   99) = (   0.4333333   0.1333333   0.0000000), wk =   0.0047393
        k(  100) = (   0.4309524   0.1380952   0.0000000), wk =   0.0047393
        k(  101) = (   0.4285714   0.1428571   0.0000000), wk =   0.0047393
        k(  102) = (   0.4261905   0.1476190   0.0000000), wk =   0.0047393
        k(  103) = (   0.4238095   0.1523810   0.0000000), wk =   0.0047393
        k(  104) = (   0.4214286   0.1571429   0.0000000), wk =   0.0047393
        k(  105) = (   0.4190476   0.1619048   0.0000000), wk =   0.0047393
        k(  106) = (   0.4166667   0.1666667   0.0000000), wk =   0.0047393
        k(  107) = (   0.4142857   0.1714286   0.0000000), wk =   0.0047393
        k(  108) = (   0.4119048   0.1761905   0.0000000), wk =   0.0047393
        k(  109) = (   0.4095238   0.1809524   0.0000000), wk =   0.0047393
        k(  110) = (   0.4071429   0.1857143   0.0000000), wk =   0.0047393
        k(  111) = (   0.4047619   0.1904762   0.0000000), wk =   0.0047393
        k(  112) = (   0.4023810   0.1952381   0.0000000), wk =   0.0047393
        k(  113) = (   0.4000000   0.2000000   0.0000000), wk =   0.0047393
        k(  114) = (   0.3976190   0.2047619   0.0000000), wk =   0.0047393
        k(  115) = (   0.3952381   0.2095238   0.0000000), wk =   0.0047393
        k(  116) = (   0.3928571   0.2142857   0.0000000), wk =   0.0047393
        k(  117) = (   0.3904762   0.2190476   0.0000000), wk =   0.0047393
        k(  118) = (   0.3880952   0.2238095   0.0000000), wk =   0.0047393
        k(  119) = (   0.3857143   0.2285714   0.0000000), wk =   0.0047393
        k(  120) = (   0.3833333   0.2333333   0.0000000), wk =   0.0047393
        k(  121) = (   0.3809524   0.2380952   0.0000000), wk =   0.0047393
        k(  122) = (   0.3785714   0.2428571   0.0000000), wk =   0.0047393
        k(  123) = (   0.3761905   0.2476190   0.0000000), wk =   0.0047393
        k(  124) = (   0.3738095   0.2523810   0.0000000), wk =   0.0047393
        k(  125) = (   0.3714286   0.2571429   0.0000000), wk =   0.0047393
        k(  126) = (   0.3690476   0.2619048   0.0000000), wk =   0.0047393
        k(  127) = (   0.3666667   0.2666667   0.0000000), wk =   0.0047393
        k(  128) = (   0.3642857   0.2714286   0.0000000), wk =   0.0047393
        k(  129) = (   0.3619048   0.2761905   0.0000000), wk =   0.0047393
        k(  130) = (   0.3595238   0.2809524   0.0000000), wk =   0.0047393
        k(  131) = (   0.3571429   0.2857143   0.0000000), wk =   0.0047393
        k(  132) = (   0.3547619   0.2904762   0.0000000), wk =   0.0047393
        k(  133) = (   0.3523810   0.2952381   0.0000000), wk =   0.0047393
        k(  134) = (   0.3500000   0.3000000   0.0000000), wk =   0.0047393
        k(  135) = (   0.3476190   0.3047619   0.0000000), wk =   0.0047393
        k(  136) = (   0.3452381   0.3095238   0.0000000), wk =   0.0047393
        k(  137) = (   0.3428571   0.3142857   0.0000000), wk =   0.0047393
        k(  138) = (   0.3404762   0.3190476   0.0000000), wk =   0.0047393
        k(  139) = (   0.3380952   0.3238095   0.0000000), wk =   0.0047393
        k(  140) = (   0.3357143   0.3285714   0.0000000), wk =   0.0047393
        k(  141) = (   0.3333333   0.3333333   0.0000000), wk =   0.0047393
        k(  142) = (   0.3285714   0.3285714   0.0000000), wk =   0.0047393
        k(  143) = (   0.3238095   0.3238095   0.0000000), wk =   0.0047393
        k(  144) = (   0.3190476   0.3190476   0.0000000), wk =   0.0047393
        k(  145) = (   0.3142857   0.3142857   0.0000000), wk =   0.0047393
        k(  146) = (   0.3095238   0.3095238   0.0000000), wk =   0.0047393
        k(  147) = (   0.3047619   0.3047619   0.0000000), wk =   0.0047393
        k(  148) = (   0.3000000   0.3000000   0.0000000), wk =   0.0047393
        k(  149) = (   0.2952381   0.2952381   0.0000000), wk =   0.0047393
        k(  150) = (   0.2904762   0.2904762   0.0000000), wk =   0.0047393
        k(  151) = (   0.2857143   0.2857143   0.0000000), wk =   0.0047393
        k(  152) = (   0.2809524   0.2809524   0.0000000), wk =   0.0047393
        k(  153) = (   0.2761905   0.2761905   0.0000000), wk =   0.0047393
        k(  154) = (   0.2714286   0.2714286   0.0000000), wk =   0.0047393
        k(  155) = (   0.2666667   0.2666667   0.0000000), wk =   0.0047393
        k(  156) = (   0.2619048   0.2619048   0.0000000), wk =   0.0047393
        k(  157) = (   0.2571429   0.2571429   0.0000000), wk =   0.0047393
        k(  158) = (   0.2523810   0.2523810   0.0000000), wk =   0.0047393
        k(  159) = (   0.2476190   0.2476190   0.0000000), wk =   0.0047393
        k(  160) = (   0.2428571   0.2428571   0.0000000), wk =   0.0047393
        k(  161) = (   0.2380952   0.2380952   0.0000000), wk =   0.0047393
        k(  162) = (   0.2333333   0.2333333   0.0000000), wk =   0.0047393
        k(  163) = (   0.2285714   0.2285714   0.0000000), wk =   0.0047393
        k(  164) = (   0.2238095   0.2238095   0.0000000), wk =   0.0047393
        k(  165) = (   0.2190476   0.2190476   0.0000000), wk =   0.0047393
        k(  166) = (   0.2142857   0.2142857   0.0000000), wk =   0.0047393
        k(  167) = (   0.2095238   0.2095238   0.0000000), wk =   0.0047393
        k(  168) = (   0.2047619   0.2047619   0.0000000), wk =   0.0047393
        k(  169) = (   0.2000000   0.2000000   0.0000000), wk =   0.0047393
        k(  170) = (   0.1952381   0.1952381   0.0000000), wk =   0.0047393
        k(  171) = (   0.1904762   0.1904762   0.0000000), wk =   0.0047393
        k(  172) = (   0.1857143   0.1857143   0.0000000), wk =   0.0047393
        k(  173) = (   0.1809524   0.1809524   0.0000000), wk =   0.0047393
        k(  174) = (   0.1761905   0.1761905   0.0000000), wk =   0.0047393
        k(  175) = (   0.1714286   0.1714286   0.0000000), wk =   0.0047393
        k(  176) = (   0.1666667   0.1666667   0.0000000), wk =   0.0047393
        k(  177) = (   0.1619048   0.1619048   0.0000000), wk =   0.0047393
        k(  178) = (   0.1571429   0.1571429   0.0000000), wk =   0.0047393
        k(  179) = (   0.1523810   0.1523810   0.0000000), wk =   0.0047393
        k(  180) = (   0.1476190   0.1476190   0.0000000), wk =   0.0047393
        k(  181) = (   0.1428571   0.1428571   0.0000000), wk =   0.0047393
        k(  182) = (   0.1380952   0.1380952   0.0000000), wk =   0.0047393
        k(  183) = (   0.1333333   0.1333333   0.0000000), wk =   0.0047393
        k(  184) = (   0.1285714   0.1285714   0.0000000), wk =   0.0047393
        k(  185) = (   0.1238095   0.1238095   0.0000000), wk =   0.0047393
        k(  186) = (   0.1190476   0.1190476   0.0000000), wk =   0.0047393
        k(  187) = (   0.1142857   0.1142857   0.0000000), wk =   0.0047393
        k(  188) = (   0.1095238   0.1095238   0.0000000), wk =   0.0047393
        k(  189) = (   0.1047619   0.1047619   0.0000000), wk =   0.0047393
        k(  190) = (   0.1000000   0.1000000   0.0000000), wk =   0.0047393
        k(  191) = (   0.0952381   0.0952381   0.0000000), wk =   0.0047393
        k(  192) = (   0.0904762   0.0904762   0.0000000), wk =   0.0047393
        k(  193) = (   0.0857143   0.0857143   0.0000000), wk =   0.0047393
        k(  194) = (   0.0809524   0.0809524   0.0000000), wk =   0.0047393
        k(  195) = (   0.0761905   0.0761905   0.0000000), wk =   0.0047393
        k(  196) = (   0.0714286   0.0714286   0.0000000), wk =   0.0047393
        k(  197) = (   0.0666667   0.0666667   0.0000000), wk =   0.0047393
        k(  198) = (   0.0619048   0.0619048   0.0000000), wk =   0.0047393
        k(  199) = (   0.0571429   0.0571429   0.0000000), wk =   0.0047393
        k(  200) = (   0.0523810   0.0523810   0.0000000), wk =   0.0047393
        k(  201) = (   0.0476190   0.0476190   0.0000000), wk =   0.0047393
        k(  202) = (   0.0428571   0.0428571   0.0000000), wk =   0.0047393
        k(  203) = (   0.0380952   0.0380952   0.0000000), wk =   0.0047393
        k(  204) = (   0.0333333   0.0333333   0.0000000), wk =   0.0047393
        k(  205) = (   0.0285714   0.0285714   0.0000000), wk =   0.0047393
        k(  206) = (   0.0238095   0.0238095   0.0000000), wk =   0.0047393
        k(  207) = (   0.0190476   0.0190476   0.0000000), wk =   0.0047393
        k(  208) = (   0.0142857   0.0142857   0.0000000), wk =   0.0047393
        k(  209) = (   0.0095238   0.0095238   0.0000000), wk =   0.0047393
        k(  210) = (   0.0047619   0.0047619   0.0000000), wk =   0.0047393
        k(  211) = (   0.0000000   0.0000000   0.0000000), wk =   0.0047393

     Dense  grid:   454177 G-vectors     FFT dimensions: (  60,  60, 300)

     Smooth grid:   115133 G-vectors     FFT dimensions: (  40,  40, 192)

     Dynamical RAM for                 wfc:       1.82 MB

     Dynamical RAM for     wfc (w. buffer):       1.82 MB

     Dynamical RAM for           str. fact:       0.58 MB

     Dynamical RAM for           local pot:       0.00 MB

     Dynamical RAM for          nlocal pot:       1.55 MB

     Dynamical RAM for                qrad:       9.40 MB

     Dynamical RAM for          rho,v,vnew:       7.75 MB

     Dynamical RAM for           G-vectors:       1.12 MB

     Dynamical RAM for          h,s,v(r/c):       1.83 MB

     Dynamical RAM for          <psi|beta>:       0.52 MB

     Dynamical RAM for                 psi:       3.65 MB

     Dynamical RAM for                hpsi:       3.65 MB

     Dynamical RAM for                spsi:       3.65 MB

     Dynamical RAM for      wfcinit/wfcrot:       2.97 MB

     Dynamical RAM for           addusdens:     177.04 MB

     Estimated static dynamical RAM per process >      25.95 MB

     Estimated max dynamical RAM per process >     202.98 MB

     Estimated total dynamical RAM >       4.76 GB

     The potential is recalculated from file :
     tmp/Sb2Te3-uatsx-c6-soc-0.0.save/charge-density


     negative rho (up, down):  3.692E-06 0.000E+00
     Starting wfcs are   40 randomized atomic wfcs +   60 random wfcs

     Band Structure Calculation
     Davidson diagonalization with overlap

     Computing kpt #:     1  of   211
     c_bands:  1 eigenvalues not converged
     total cpu time spent up to now is        9.0 secs

     Computing kpt #:     2  of   211
     c_bands:  2 eigenvalues not converged
     total cpu time spent up to now is       15.2 secs

     Computing kpt #:     3  of   211
     total cpu time spent up to now is       21.2 secs

     Computing kpt #:     4  of   211
     total cpu time spent up to now is       27.2 secs

     Computing kpt #:     5  of   211
     total cpu time spent up to now is       32.9 secs

     Computing kpt #:     6  of   211
     total cpu time spent up to now is       38.5 secs

     Computing kpt #:     7  of   211
     total cpu time spent up to now is       44.1 secs

     Computing kpt #:     8  of   211
     total cpu time spent up to now is       49.6 secs

     Computing kpt #:     9  of   211
     total cpu time spent up to now is       55.3 secs

     Computing kpt #:    10  of   211
     total cpu time spent up to now is       61.3 secs

     Computing kpt #:    11  of   211
     total cpu time spent up to now is       66.7 secs

     Computing kpt #:    12  of   211
     total cpu time spent up to now is       71.8 secs

     Computing kpt #:    13  of   211
     total cpu time spent up to now is       76.8 secs

     Computing kpt #:    14  of   211
     total cpu time spent up to now is       81.8 secs

     Computing kpt #:    15  of   211
     total cpu time spent up to now is       86.7 secs

     Computing kpt #:    16  of   211
     total cpu time spent up to now is       91.8 secs

     Computing kpt #:    17  of   211
     total cpu time spent up to now is       96.8 secs

     Computing kpt #:    18  of   211
     total cpu time spent up to now is      102.4 secs

     Computing kpt #:    19  of   211
     total cpu time spent up to now is      107.2 secs

     Computing kpt #:    20  of   211
     total cpu time spent up to now is      111.9 secs

     Computing kpt #:    21  of   211
     total cpu time spent up to now is      116.5 secs

     Computing kpt #:    22  of   211
     total cpu time spent up to now is      121.2 secs

     Computing kpt #:    23  of   211
     total cpu time spent up to now is      126.0 secs

     Computing kpt #:    24  of   211
     total cpu time spent up to now is      130.8 secs

     Computing kpt #:    25  of   211
     total cpu time spent up to now is      135.7 secs

     Computing kpt #:    26  of   211
     total cpu time spent up to now is      140.7 secs

     Computing kpt #:    27  of   211
     total cpu time spent up to now is      145.8 secs

     Computing kpt #:    28  of   211
     total cpu time spent up to now is      150.5 secs

     Computing kpt #:    29  of   211
     total cpu time spent up to now is      155.3 secs

     Computing kpt #:    30  of   211
     total cpu time spent up to now is      160.0 secs

     Computing kpt #:    31  of   211
     total cpu time spent up to now is      164.8 secs

     Computing kpt #:    32  of   211
     total cpu time spent up to now is      169.6 secs

     Computing kpt #:    33  of   211
     total cpu time spent up to now is      174.5 secs

     Computing kpt #:    34  of   211
     total cpu time spent up to now is      179.5 secs

     Computing kpt #:    35  of   211
     total cpu time spent up to now is      184.4 secs

     Computing kpt #:    36  of   211
     total cpu time spent up to now is      189.3 secs

     Computing kpt #:    37  of   211
     total cpu time spent up to now is      194.2 secs

     Computing kpt #:    38  of   211
     total cpu time spent up to now is      199.4 secs

     Computing kpt #:    39  of   211
     total cpu time spent up to now is      204.9 secs

     Computing kpt #:    40  of   211
     total cpu time spent up to now is      210.2 secs

     Computing kpt #:    41  of   211
     total cpu time spent up to now is      215.5 secs

     Computing kpt #:    42  of   211
     total cpu time spent up to now is      220.9 secs

     Computing kpt #:    43  of   211
     total cpu time spent up to now is      226.4 secs

     Computing kpt #:    44  of   211
     total cpu time spent up to now is      232.1 secs

     Computing kpt #:    45  of   211
     total cpu time spent up to now is      237.6 secs

     Computing kpt #:    46  of   211
     total cpu time spent up to now is      243.5 secs

     Computing kpt #:    47  of   211
     total cpu time spent up to now is      248.9 secs

     Computing kpt #:    48  of   211
     total cpu time spent up to now is      254.3 secs

     Computing kpt #:    49  of   211
     total cpu time spent up to now is      260.2 secs

     Computing kpt #:    50  of   211
     total cpu time spent up to now is      266.1 secs

     Computing kpt #:    51  of   211
     total cpu time spent up to now is      272.6 secs

     Computing kpt #:    52  of   211
     c_bands:  2 eigenvalues not converged
     total cpu time spent up to now is      279.3 secs

     Computing kpt #:    53  of   211
     total cpu time spent up to now is      284.8 secs

     Computing kpt #:    54  of   211
     total cpu time spent up to now is      290.3 secs

     Computing kpt #:    55  of   211
     total cpu time spent up to now is      295.8 secs

     Computing kpt #:    56  of   211
     total cpu time spent up to now is      301.3 secs

     Computing kpt #:    57  of   211
     total cpu time spent up to now is      307.0 secs

     Computing kpt #:    58  of   211
     total cpu time spent up to now is      312.8 secs

     Computing kpt #:    59  of   211
     total cpu time spent up to now is      319.0 secs

     Computing kpt #:    60  of   211
     total cpu time spent up to now is      325.1 secs

     Computing kpt #:    61  of   211
     total cpu time spent up to now is      331.3 secs

     Computing kpt #:    62  of   211
     total cpu time spent up to now is      337.8 secs

     Computing kpt #:    63  of   211
     total cpu time spent up to now is      344.2 secs

     Computing kpt #:    64  of   211
     total cpu time spent up to now is      350.5 secs

     Computing kpt #:    65  of   211
     total cpu time spent up to now is      356.8 secs

     Computing kpt #:    66  of   211
     total cpu time spent up to now is      363.5 secs

     Computing kpt #:    67  of   211
     total cpu time spent up to now is      369.9 secs

     Computing kpt #:    68  of   211
     total cpu time spent up to now is      376.3 secs

     Computing kpt #:    69  of   211
     total cpu time spent up to now is      382.6 secs

     Computing kpt #:    70  of   211
     total cpu time spent up to now is      389.0 secs

     Computing kpt #:    71  of   211
     total cpu time spent up to now is      395.1 secs

     Computing kpt #:    72  of   211
     total cpu time spent up to now is      401.7 secs

     Computing kpt #:    73  of   211
     total cpu time spent up to now is      408.2 secs

     Computing kpt #:    74  of   211
     total cpu time spent up to now is      415.4 secs

     Computing kpt #:    75  of   211
     total cpu time spent up to now is      422.5 secs

     Computing kpt #:    76  of   211
     c_bands:  2 eigenvalues not converged
     total cpu time spent up to now is      429.7 secs

     Computing kpt #:    77  of   211
     c_bands:  2 eigenvalues not converged
     total cpu time spent up to now is      437.1 secs

     Computing kpt #:    78  of   211
     total cpu time spent up to now is      444.4 secs

     Computing kpt #:    79  of   211
     total cpu time spent up to now is      450.9 secs

     Computing kpt #:    80  of   211
     total cpu time spent up to now is      457.5 secs

     Computing kpt #:    81  of   211
     total cpu time spent up to now is      464.0 secs

     Computing kpt #:    82  of   211
     total cpu time spent up to now is      470.7 secs

     Computing kpt #:    83  of   211
     total cpu time spent up to now is      476.9 secs

     Computing kpt #:    84  of   211
     total cpu time spent up to now is      483.4 secs

     Computing kpt #:    85  of   211
     total cpu time spent up to now is      489.7 secs

     Computing kpt #:    86  of   211
     total cpu time spent up to now is      496.1 secs

     Computing kpt #:    87  of   211
     total cpu time spent up to now is      502.5 secs

     Computing kpt #:    88  of   211
     total cpu time spent up to now is      509.6 secs

     Computing kpt #:    89  of   211
     total cpu time spent up to now is      516.3 secs

     Computing kpt #:    90  of   211
     total cpu time spent up to now is      523.0 secs

     Computing kpt #:    91  of   211
     total cpu time spent up to now is      529.8 secs

     Computing kpt #:    92  of   211
     total cpu time spent up to now is      536.6 secs

     Computing kpt #:    93  of   211
     total cpu time spent up to now is      543.3 secs

     Computing kpt #:    94  of   211
     total cpu time spent up to now is      550.0 secs

     Computing kpt #:    95  of   211
     total cpu time spent up to now is      556.5 secs

     Computing kpt #:    96  of   211
     total cpu time spent up to now is      563.1 secs

     Computing kpt #:    97  of   211
     total cpu time spent up to now is      569.6 secs

     Computing kpt #:    98  of   211
     total cpu time spent up to now is      575.6 secs

     Computing kpt #:    99  of   211
     total cpu time spent up to now is      581.9 secs

     Computing kpt #:   100  of   211
     total cpu time spent up to now is      588.7 secs

     Computing kpt #:   101  of   211
     total cpu time spent up to now is      595.1 secs

     Computing kpt #:   102  of   211
     total cpu time spent up to now is      601.5 secs

     Computing kpt #:   103  of   211
     total cpu time spent up to now is      608.2 secs

     Computing kpt #:   104  of   211
     total cpu time spent up to now is      614.8 secs

     Computing kpt #:   105  of   211
     total cpu time spent up to now is      621.2 secs

     Computing kpt #:   106  of   211
     total cpu time spent up to now is      627.7 secs

     Computing kpt #:   107  of   211
     total cpu time spent up to now is      634.1 secs

     Computing kpt #:   108  of   211
     total cpu time spent up to now is      640.4 secs

     Computing kpt #:   109  of   211
     total cpu time spent up to now is      646.7 secs

     Computing kpt #:   110  of   211
     total cpu time spent up to now is      652.6 secs

     Computing kpt #:   111  of   211
     total cpu time spent up to now is      658.4 secs

     Computing kpt #:   112  of   211
     total cpu time spent up to now is      664.0 secs

     Computing kpt #:   113  of   211
     total cpu time spent up to now is      669.6 secs

     Computing kpt #:   114  of   211
     total cpu time spent up to now is      675.2 secs

     Computing kpt #:   115  of   211
     total cpu time spent up to now is      680.8 secs

     Computing kpt #:   116  of   211
     total cpu time spent up to now is      686.3 secs

     Computing kpt #:   117  of   211
     total cpu time spent up to now is      691.8 secs

     Computing kpt #:   118  of   211
     total cpu time spent up to now is      697.1 secs

     Computing kpt #:   119  of   211
     total cpu time spent up to now is      702.6 secs

     Computing kpt #:   120  of   211
     total cpu time spent up to now is      708.0 secs

     Computing kpt #:   121  of   211
     total cpu time spent up to now is      713.4 secs

     Computing kpt #:   122  of   211
     total cpu time spent up to now is      718.7 secs

     Computing kpt #:   123  of   211
     total cpu time spent up to now is      724.2 secs

     Computing kpt #:   124  of   211
     total cpu time spent up to now is      729.6 secs

     Computing kpt #:   125  of   211
     total cpu time spent up to now is      735.0 secs

     Computing kpt #:   126  of   211
     total cpu time spent up to now is      740.4 secs

     Computing kpt #:   127  of   211
     total cpu time spent up to now is      745.8 secs

     Computing kpt #:   128  of   211
     total cpu time spent up to now is      751.1 secs

     Computing kpt #:   129  of   211
     total cpu time spent up to now is      756.5 secs

     Computing kpt #:   130  of   211
     total cpu time spent up to now is      762.0 secs

     Computing kpt #:   131  of   211
     total cpu time spent up to now is      767.4 secs

     Computing kpt #:   132  of   211
     total cpu time spent up to now is      772.6 secs

     Computing kpt #:   133  of   211
     total cpu time spent up to now is      777.9 secs

     Computing kpt #:   134  of   211
     total cpu time spent up to now is      783.7 secs

     Computing kpt #:   135  of   211
     total cpu time spent up to now is      789.2 secs

     Computing kpt #:   136  of   211
     total cpu time spent up to now is      794.6 secs

     Computing kpt #:   137  of   211
     total cpu time spent up to now is      799.9 secs

     Computing kpt #:   138  of   211
     total cpu time spent up to now is      805.4 secs

     Computing kpt #:   139  of   211
     total cpu time spent up to now is      811.1 secs

     Computing kpt #:   140  of   211
     total cpu time spent up to now is      817.5 secs

     Computing kpt #:   141  of   211
     c_bands:  4 eigenvalues not converged
     total cpu time spent up to now is      824.6 secs

     Computing kpt #:   142  of   211
     total cpu time spent up to now is      830.9 secs

     Computing kpt #:   143  of   211
     total cpu time spent up to now is      836.3 secs

     Computing kpt #:   144  of   211
     total cpu time spent up to now is      841.7 secs

     Computing kpt #:   145  of   211
     total cpu time spent up to now is      847.1 secs

     Computing kpt #:   146  of   211
     total cpu time spent up to now is      852.6 secs

     Computing kpt #:   147  of   211
     total cpu time spent up to now is      857.9 secs

     Computing kpt #:   148  of   211
     total cpu time spent up to now is      863.3 secs

     Computing kpt #:   149  of   211
     total cpu time spent up to now is      868.6 secs

     Computing kpt #:   150  of   211
     total cpu time spent up to now is      873.9 secs

     Computing kpt #:   151  of   211
     total cpu time spent up to now is      879.0 secs

     Computing kpt #:   152  of   211
     total cpu time spent up to now is      884.1 secs

     Computing kpt #:   153  of   211
     total cpu time spent up to now is      889.0 secs

     Computing kpt #:   154  of   211
     total cpu time spent up to now is      894.1 secs

     Computing kpt #:   155  of   211
     total cpu time spent up to now is      899.0 secs

     Computing kpt #:   156  of   211
     total cpu time spent up to now is      904.1 secs

     Computing kpt #:   157  of   211
     total cpu time spent up to now is      909.5 secs

     Computing kpt #:   158  of   211
     total cpu time spent up to now is      915.3 secs

     Computing kpt #:   159  of   211
     total cpu time spent up to now is      921.1 secs

     Computing kpt #:   160  of   211
     total cpu time spent up to now is      926.7 secs

     Computing kpt #:   161  of   211
     total cpu time spent up to now is      931.6 secs

     Computing kpt #:   162  of   211
     total cpu time spent up to now is      937.3 secs

     Computing kpt #:   163  of   211
     total cpu time spent up to now is      943.2 secs

     Computing kpt #:   164  of   211
     total cpu time spent up to now is      948.8 secs

     Computing kpt #:   165  of   211
     total cpu time spent up to now is      953.7 secs

     Computing kpt #:   166  of   211
     total cpu time spent up to now is      959.0 secs

     Computing kpt #:   167  of   211
     total cpu time spent up to now is      964.3 secs

     Computing kpt #:   168  of   211
     total cpu time spent up to now is      969.5 secs

     Computing kpt #:   169  of   211
     total cpu time spent up to now is      974.7 secs

     Computing kpt #:   170  of   211
     total cpu time spent up to now is      979.9 secs

     Computing kpt #:   171  of   211
     total cpu time spent up to now is      985.2 secs

     Computing kpt #:   172  of   211
     total cpu time spent up to now is      990.4 secs

     Computing kpt #:   173  of   211
     total cpu time spent up to now is      995.3 secs

     Computing kpt #:   174  of   211
     total cpu time spent up to now is     1000.5 secs

     Computing kpt #:   175  of   211
     total cpu time spent up to now is     1005.8 secs

     Computing kpt #:   176  of   211
     total cpu time spent up to now is     1011.2 secs

     Computing kpt #:   177  of   211
     total cpu time spent up to now is     1016.5 secs

     Computing kpt #:   178  of   211
     total cpu time spent up to now is     1022.1 secs

     Computing kpt #:   179  of   211
     total cpu time spent up to now is     1027.5 secs

     Computing kpt #:   180  of   211
     total cpu time spent up to now is     1032.6 secs

     Computing kpt #:   181  of   211
     total cpu time spent up to now is     1038.0 secs

     Computing kpt #:   182  of   211
     total cpu time spent up to now is     1043.9 secs

     Computing kpt #:   183  of   211
     total cpu time spent up to now is     1049.1 secs

     Computing kpt #:   184  of   211
     total cpu time spent up to now is     1054.1 secs

     Computing kpt #:   185  of   211
     total cpu time spent up to now is     1059.5 secs

     Computing kpt #:   186  of   211
     total cpu time spent up to now is     1065.0 secs

     Computing kpt #:   187  of   211
     total cpu time spent up to now is     1069.8 secs

     Computing kpt #:   188  of   211
     total cpu time spent up to now is     1074.7 secs

     Computing kpt #:   189  of   211
     total cpu time spent up to now is     1079.6 secs

     Computing kpt #:   190  of   211
     total cpu time spent up to now is     1084.7 secs

     Computing kpt #:   191  of   211
     total cpu time spent up to now is     1089.6 secs

     Computing kpt #:   192  of   211
     total cpu time spent up to now is     1094.5 secs

     Computing kpt #:   193  of   211
     total cpu time spent up to now is     1099.4 secs

     Computing kpt #:   194  of   211
     total cpu time spent up to now is     1104.6 secs

     Computing kpt #:   195  of   211
     total cpu time spent up to now is     1109.8 secs

     Computing kpt #:   196  of   211
     total cpu time spent up to now is     1114.9 secs

     Computing kpt #:   197  of   211
     c_bands:  2 eigenvalues not converged
     total cpu time spent up to now is     1121.3 secs

     Computing kpt #:   198  of   211
     total cpu time spent up to now is     1126.3 secs

     Computing kpt #:   199  of   211
     total cpu time spent up to now is     1131.3 secs

     Computing kpt #:   200  of   211
     total cpu time spent up to now is     1135.9 secs

     Computing kpt #:   201  of   211
     total cpu time spent up to now is     1140.4 secs

     Computing kpt #:   202  of   211
     total cpu time spent up to now is     1144.9 secs

     Computing kpt #:   203  of   211
     total cpu time spent up to now is     1149.5 secs

     Computing kpt #:   204  of   211
     total cpu time spent up to now is     1154.2 secs

     Computing kpt #:   205  of   211
     total cpu time spent up to now is     1159.1 secs

     Computing kpt #:   206  of   211
     total cpu time spent up to now is     1164.2 secs

     Computing kpt #:   207  of   211
     total cpu time spent up to now is     1170.4 secs

     Computing kpt #:   208  of   211
     c_bands:  2 eigenvalues not converged
     total cpu time spent up to now is     1176.7 secs

     Computing kpt #:   209  of   211
     c_bands:  2 eigenvalues not converged
     total cpu time spent up to now is     1182.8 secs

     Computing kpt #:   210  of   211
     c_bands:  2 eigenvalues not converged
     total cpu time spent up to now is     1188.9 secs

     Computing kpt #:   211  of   211
     c_bands:  1 eigenvalues not converged
     total cpu time spent up to now is     1194.8 secs

     ethr =  3.57E-10,  avg # of iterations = 74.6

     total cpu time spent up to now is     1194.8 secs

     End of band structure calculation

          k = 0.0000 0.0000 0.0000 ( 14301 PWs)   bands (ev):

   -12.5716 -12.5716 -12.0397 -12.0397 -10.9371 -10.9371  -8.1652  -8.1652
    -6.7087  -6.7087  -2.3866  -2.3866  -1.8425  -1.8425  -1.6045  -1.6045
    -1.3250  -1.3250  -1.2345  -1.2345  -1.1255  -1.1255  -0.9176  -0.9176
    -0.5217  -0.5217  -0.3737  -0.3737   0.3492   0.3492   0.9511   0.9511
     1.2636   1.2636   1.5148   1.5148   2.2902   2.2902   2.3670   2.3670
     4.2993   4.2993   4.5039   4.5039   5.0610   5.0610   5.7186   5.7186
     5.8676   5.8676   5.8993   5.8993   6.5220   6.5220   6.8145   6.8145
     6.9555   6.9555   7.1980   7.1980   7.2038   7.2038   7.8385   7.8385
     7.8609   7.8609   8.1693   8.1693   8.2583   8.2583   8.6807   8.6807
     9.3468   9.3468   9.4170   9.4170   9.6857   9.6857   9.7784   9.7784
     9.8536   9.8536  10.9291  10.9291  10.9778  10.9778  12.2194  12.2194
    12.2507  12.2507  12.4073  12.4073  12.4836  12.4836  12.5392  12.5392
    13.2703  13.2703  14.1037  14.1037

          k = 0.0071 0.0041 0.0000 ( 14317 PWs)   bands (ev):

   -12.5711 -12.5711 -12.0393 -12.0393 -10.9368 -10.9368  -8.1653  -8.1653
    -6.7094  -6.7094  -2.3872  -2.3872  -1.8486  -1.8481  -1.6042  -1.6033
    -1.3280  -1.3268  -1.2533  -1.2462  -1.1208  -1.1126  -0.9144  -0.9127
    -0.5264  -0.5252  -0.3699  -0.3689   0.3543   0.3552   0.9516   0.9523
     1.2566   1.2586   1.5197   1.5218   2.2929   2.2933   2.3661   2.3666
     4.3002   4.3002   4.5041   4.5041   5.0613   5.0613   5.7186   5.7187
     5.8655   5.8657   5.8974   5.8976   6.5257   6.5257   6.8140   6.8140
     6.9535   6.9536   7.1970   7.1972   7.2028   7.2030   7.8418   7.8422
     7.8642   7.8646   8.1690   8.1691   8.2617   8.2618   8.6839   8.6839
     9.3432   9.3444   9.4110   9.4130   9.6644   9.6652   9.7947   9.7965
     9.8675   9.8692  10.9291  10.9291  10.9793  10.9793  12.2055  12.2077
    12.2302  12.2337  12.4186  12.4219  12.4891  12.4910  12.5490  12.5490
    13.2751  13.2752  14.0914  14.0922

          k = 0.0143 0.0082 0.0000 ( 14313 PWs)   bands (ev):

   -12.5698 -12.5698 -12.0380 -12.0380 -10.9360 -10.9360  -8.1653  -8.1653
    -6.7116  -6.7116  -2.3890  -2.3889  -1.8655  -1.8646  -1.6032  -1.6013
    -1.3363  -1.3340  -1.2896  -1.2799  -1.1062  -1.0944  -0.9032  -0.9001
    -0.5388  -0.5365  -0.3575  -0.3556   0.3699   0.3715   0.9539   0.9553
     1.2400   1.2436   1.5347   1.5383   2.3013   2.3021   2.3642   2.3653
     4.3027   4.3027   4.5048   4.5048   5.0622   5.0622   5.7186   5.7187
     5.8569   5.8573   5.8948   5.8951   6.5362   6.5362   6.8124   6.8125
     6.9475   6.9477   7.1939   7.1945   7.2012   7.2015   7.8511   7.8517
     7.8744   7.8751   8.1686   8.1688   8.2720   8.2720   8.6935   8.6935
     9.3335   9.3360   9.3956   9.3994   9.6271   9.6281   9.8245   9.8270
     9.9071   9.9096  10.9291  10.9292  10.9839  10.9839  12.1691  12.1713
    12.1905  12.1940  12.4402  12.4439  12.5064  12.5084  12.5794  12.5796
    13.2883  13.2883  14.0517  14.0528

          k = 0.0214 0.0124 0.0000 ( 14320 PWs)   bands (ev):

   -12.5675 -12.5675 -12.0359 -12.0359 -10.9347 -10.9347  -8.1655  -8.1655
    -6.7152  -6.7152  -2.3920  -2.3918  -1.8917  -1.8906  -1.6028  -1.6002
    -1.3551  -1.3506  -1.3271  -1.3182  -1.0933  -1.0802  -0.8856  -0.8814
    -0.5570  -0.5538  -0.3367  -0.3341   0.3939   0.3961   0.9580   0.9600
     1.2185   1.2229   1.5560   1.5606   2.3147   2.3158   2.3619   2.3635
     4.3069   4.3069   4.5059   4.5059   5.0637   5.0637   5.7183   5.7184
     5.8391   5.8394   5.8959   5.8962   6.5524   6.5525   6.8090   6.8091
     6.9378   6.9381   7.1895   7.1903   7.2007   7.2011   7.8644   7.8651
     7.8905   7.8914   8.1696   8.1698   8.2887   8.2888   8.7096   8.7097
     9.3174   9.3210   9.3719   9.3770   9.5932   9.5941   9.8588   9.8614
     9.9608   9.9632  10.9293  10.9293  10.9914  10.9914  12.1153  12.1163
    12.1486  12.1502  12.4515  12.4539  12.5382  12.5392  12.6255  12.6258
    13.3055  13.3056  13.9880  13.9884

          k = 0.0286 0.0165 0.0000 ( 14317 PWs)   bands (ev):

   -12.5644 -12.5643 -12.0330 -12.0330 -10.9329 -10.9328  -8.1657  -8.1656
    -6.7202  -6.7202  -2.3963  -2.3961  -1.9256  -1.9244  -1.6050  -1.6017
    -1.3964  -1.3882  -1.3491  -1.3429  -1.0859  -1.0724  -0.8648  -0.8596
    -0.5776  -0.5734  -0.3089  -0.3058   0.4232   0.4260   0.9640   0.9664
     1.1966   1.2015   1.5803   1.5854   2.3308   2.3318   2.3614   2.3638
     4.3127   4.3128   4.5074   4.5075   5.0655   5.0656   5.7172   5.7173
     5.8138   5.8141   5.9008   5.9011   6.5729   6.5729   6.8022   6.8025
     6.9260   6.9263   7.1852   7.1861   7.2024   7.2029   7.8804   7.8812
     7.9091   7.9101   8.1742   8.1744   8.3117   8.3118   8.7325   8.7326
     9.2947   9.2993   9.3417   9.3477   9.5685   9.5691   9.8980   9.9005
    10.0197  10.0220  10.9296  10.9297  11.0018  11.0019  12.0530  12.0541
    12.1047  12.1056  12.4535  12.4549  12.5798  12.5801  12.6797  12.6799
    13.3199  13.3200  13.9193  13.9194

          k = 0.0357 0.0206 0.0000 ( 14321 PWs)   bands (ev):

   -12.5603 -12.5603 -12.0293 -12.0293 -10.9305 -10.9305  -8.1659  -8.1659
    -6.7267  -6.7267  -2.4020  -2.4017  -1.9657  -1.9644  -1.6112  -1.6073
    -1.4473  -1.4380  -1.3656  -1.3595  -1.0846  -1.0711  -0.8448  -0.8387
    -0.5955  -0.5905  -0.2760  -0.2726   0.4548   0.4579   0.9721   0.9744
     1.1783   1.1831   1.6053   1.6106   2.3395   2.3410   2.3723   2.3752
     4.3202   4.3202   4.5094   4.5095   5.0677   5.0678   5.7138   5.7139
     5.7852   5.7854   5.9085   5.9087   6.5960   6.5960   6.7900   6.7903
     6.9148   6.9151   7.1814   7.1822   7.2076   7.2080   7.8980   7.8988
     7.9261   7.9273   8.1855   8.1858   8.3404   8.3405   8.7621   8.7622
     9.2650   9.2700   9.3091   9.3152   9.5535   9.5538   9.9416   9.9441
    10.0800  10.0822  10.9303  10.9304  11.0151  11.0151  11.9880  11.9891
    12.0598  12.0606  12.4533  12.4543  12.6242  12.6245  12.7374  12.7376
    13.3218  13.3220  13.8608  13.8609

          k = 0.0429 0.0247 0.0000 ( 14323 PWs)   bands (ev):

   -12.5553 -12.5553 -12.0247 -12.0247 -10.9276 -10.9276  -8.1662  -8.1662
    -6.7347  -6.7347  -2.4092  -2.4089  -2.0108  -2.0096  -1.6224  -1.6182
    -1.4996  -1.4903  -1.3819  -1.3756  -1.0893  -1.0763  -0.8301  -0.8234
    -0.6049  -0.5994  -0.2402  -0.2367   0.4853   0.4886   0.9827   0.9843
     1.1667   1.1709   1.6297   1.6351   2.3377   2.3399   2.3979   2.4008
     4.3291   4.3292   4.5118   4.5119   5.0700   5.0701   5.7035   5.7036
     5.7599   5.7601   5.9185   5.9187   6.6202   6.6203   6.7709   6.7712
     6.9074   6.9077   7.1782   7.1788   7.2169   7.2172   7.9133   7.9141
     7.9410   7.9420   8.2064   8.2066   8.3741   8.3742   8.7983   8.7985
     9.2285   9.2326   9.2790   9.2840   9.5461   9.5463   9.9887   9.9911
    10.1397  10.1418  10.9314  10.9315  11.0310  11.0311  11.9227  11.9238
    12.0151  12.0157  12.4549  12.4556  12.6686  12.6691  12.7957  12.7960
    13.3021  13.3023  13.8216  13.8218

          k = 0.0500 0.0289 0.0000 ( 14313 PWs)   bands (ev):

   -12.5495 -12.5495 -12.0193 -12.0193 -10.9242 -10.9242  -8.1666  -8.1666
    -6.7441  -6.7441  -2.4182  -2.4178  -2.0601  -2.0589  -1.6398  -1.6357
    -1.5505  -1.5420  -1.3989  -1.3924  -1.1007  -1.0883  -0.8230  -0.8162
    -0.6014  -0.5959  -0.2039  -0.2005   0.5121   0.5154   0.9960   0.9968
     1.1641   1.1673   1.6530   1.6583   2.3330   2.3358   2.4303   2.4331
     4.3395   4.3396   4.5146   4.5147   5.0721   5.0722   5.6801   5.6802
     5.7458   5.7460   5.9306   5.9307   6.6442   6.6443   6.7456   6.7460
     6.9048   6.9051   7.1756   7.1760   7.2303   7.2305   7.9186   7.9189
     7.9598   7.9604   8.2378   8.2380   8.4120   8.4121   8.8408   8.8410
     9.1875   9.1904   9.2528   9.2564   9.5438   9.5442  10.0383  10.0407
    10.1975  10.1994  10.9332  10.9333  11.0493  11.0494  11.8589  11.8600
    11.9712  11.9718  12.4603  12.4608  12.7112  12.7118  12.8519  12.8523
    13.2588  13.2589  13.8016  13.8019

          k = 0.0571 0.0330 0.0000 ( 14313 PWs)   bands (ev):

   -12.5427 -12.5427 -12.0131 -12.0131 -10.9203 -10.9203  -8.1672  -8.1671
    -6.7550  -6.7549  -2.4293  -2.4287  -2.1127  -2.1116  -1.6657  -1.6617
    -1.5963  -1.5900  -1.4167  -1.4103  -1.1190  -1.1076  -0.8225  -0.8161
    -0.5848  -0.5799  -0.1695  -0.1664   0.5339   0.5370   1.0114   1.0136
     1.1715   1.1738   1.6751   1.6802   2.3281   2.3313   2.4664   2.4693
     4.3513   4.3514   4.5177   4.5178   5.0737   5.0737   5.6470   5.6472
     5.7407   5.7409   5.9446   5.9447   6.6644   6.6645   6.7192   6.7195
     6.9062   6.9065   7.1739   7.1742   7.2475   7.2476   7.9119   7.9122
     7.9840   7.9842   8.2789   8.2791   8.4530   8.4532   8.8885   8.8887
     9.1464   9.1482   9.2300   9.2325   9.5448   9.5453  10.0897  10.0920
    10.2523  10.2541  10.9359  10.9361  11.0694  11.0694  11.7985  11.7995
    11.9289  11.9295  12.4704  12.4709  12.7503  12.7511  12.8996  12.9002
    13.2019  13.2021  13.7904  13.7908

          k = 0.0643 0.0371 0.0000 ( 14320 PWs)   bands (ev):

   -12.5351 -12.5351 -12.0061 -12.0061 -10.9159 -10.9159  -8.1678  -8.1677
    -6.7673  -6.7673  -2.4428  -2.4422  -2.1675  -2.1666  -1.7032  -1.6977
    -1.6342  -1.6307  -1.4358  -1.4297  -1.1439  -1.1337  -0.8246  -0.8188
    -0.5589  -0.5545  -0.1396  -0.1368   0.5509   0.5536   1.0298   1.0339
     1.1887   1.1911   1.6961   1.7008   2.3238   2.3273   2.5052   2.5080
     4.3645   4.3646   4.5212   4.5213   5.0742   5.0743   5.6111   5.6113
     5.7392   5.7394   5.9604   5.9605   6.6640   6.6642   6.7104   6.7108
     6.9098   6.9101   7.1734   7.1736   7.2682   7.2684   7.8978   7.8980
     8.0109   8.0110   8.3280   8.3282   8.4960   8.4962   8.9378   8.9380
     9.1107   9.1117   9.2105   9.2122   9.5477   9.5482  10.1423  10.1445
    10.3033  10.3050  10.9401  10.9402  11.0903  11.0904  11.7432  11.7442
    11.8886  11.8891  12.4859  12.4863  12.7844  12.7856  12.9217  12.9228
    13.1563  13.1565  13.7747  13.7751

          k = 0.0714 0.0412 0.0000 ( 14330 PWs)   bands (ev):

   -12.5265 -12.5265 -11.9982 -11.9982 -10.9110 -10.9110  -8.1686  -8.1685
    -6.7811  -6.7811  -2.4597  -2.4590  -2.2236  -2.2227  -1.7499  -1.7424
    -1.6665  -1.6633  -1.4568  -1.4510  -1.1740  -1.1654  -0.8265  -0.8213
    -0.5274  -0.5234  -0.1168  -0.1142   0.5652   0.5674   1.0512   1.0569
     1.2148   1.2180   1.7164   1.7208   2.3210   2.3248   2.5456   2.5483
     4.3788   4.3789   4.5250   4.5251   5.0732   5.0733   5.5760   5.5761
     5.7389   5.7391   5.9780   5.9780   6.6378   6.6379   6.7266   6.7269
     6.9139   6.9142   7.1745   7.1746   7.2924   7.2926   7.8793   7.8794
     8.0389   8.0389   8.3831   8.3833   8.5398   8.5400   8.9763   8.9767
     9.0943   9.0946   9.1951   9.1960   9.5515   9.5520  10.1952  10.1974
    10.3496  10.3513  10.9460  10.9461  11.1107  11.1108  11.6954  11.6963
    11.8509  11.8513  12.5065  12.5069  12.8103  12.8126  12.8925  12.8947
    13.1553  13.1554  13.7468  13.7472

          k = 0.0786 0.0453 0.0000 ( 14332 PWs)   bands (ev):

   -12.5171 -12.5171 -11.9896 -11.9896 -10.9056 -10.9056  -8.1695  -8.1694
    -6.7964  -6.7963  -2.4812  -2.4804  -2.2791  -2.2783  -1.8008  -1.7922
    -1.6961  -1.6923  -1.4801  -1.4748  -1.2077  -1.2007  -0.8267  -0.8222
    -0.4929  -0.4892  -0.1029  -0.1006   0.5795   0.5812   1.0752   1.0816
     1.2483   1.2522   1.7368   1.7407   2.3201   2.3241   2.5870   2.5896
     4.3942   4.3943   4.5289   4.5291   5.0700   5.0701   5.5435   5.5437
     5.7393   5.7394   5.9973   5.9974   6.6076   6.6077   6.7471   6.7474
     6.9171   6.9174   7.1773   7.1774   7.3202   7.3203   7.8585   7.8586
     8.0671   8.0671   8.4428   8.4431   8.5833   8.5836   8.9805   8.9812
     9.1199   9.1219   9.1848   9.1853   9.5558   9.5562  10.2480  10.2501
    10.3906  10.3922  10.9542  10.9543  11.1287  11.1288  11.6577  11.6585
    11.8164  11.8167  12.5310  12.5314  12.8013  12.8051  12.8481  12.8520
    13.1933  13.1936  13.7037  13.7040

          k = 0.0857 0.0495 0.0000 ( 14340 PWs)   bands (ev):

   -12.5068 -12.5068 -11.9801 -11.9801 -10.8998 -10.8997  -8.1706  -8.1705
    -6.8131  -6.8130  -2.5092  -2.5084  -2.3319  -2.3309  -1.8533  -1.8442
    -1.7246  -1.7203  -1.5063  -1.5015  -1.2428  -1.2375  -0.8253  -0.8214
    -0.4572  -0.4536  -0.0996  -0.0972   0.5965   0.5976   1.1013   1.1078
     1.2865   1.2907   1.7581   1.7615   2.3219   2.3260   2.6286   2.6310
     4.4105   4.4107   4.5330   4.5331   5.0639   5.0640   5.5152   5.5154
     5.7399   5.7401   6.0183   6.0184   6.5786   6.5788   6.7678   6.7680
     6.9182   6.9184   7.1821   7.1822   7.3513   7.3514   7.8371   7.8372
     8.0948   8.0948   8.5054   8.5056   8.6249   8.6251   8.9646   8.9653
     9.1621   9.1676   9.1916   9.1958   9.5604   9.5608  10.2999  10.3021
    10.4256  10.4272  10.9647  10.9647  11.1426  11.1427  11.6328  11.6333
    11.7858  11.7860  12.5538  12.5544  12.7262  12.7272  12.8549  12.8561
    13.2468  13.2470  13.6453  13.6454

          k = 0.0929 0.0536 0.0000 ( 14350 PWs)   bands (ev):

   -12.4956 -12.4956 -11.9698 -11.9698 -10.8934 -10.8934  -8.1719  -8.1718
    -6.8313  -6.8312  -2.5462  -2.5452  -2.3790  -2.3778  -1.9065  -1.8971
    -1.7526  -1.7482  -1.5356  -1.5313  -1.2777  -1.2739  -0.8227  -0.8195
    -0.4213  -0.4178  -0.1068  -0.1042   0.6177   0.6182   1.1293   1.1355
     1.3264   1.3308   1.7816   1.7843   2.3269   2.3309   2.6698   2.6721
     4.4276   4.4277   4.5370   4.5372   5.0544   5.0546   5.4923   5.4925
     5.7409   5.7410   6.0409   6.0411   6.5526   6.5527   6.7880   6.7882
     6.9163   6.9165   7.1892   7.1893   7.3856   7.3857   7.8163   7.8164
     8.1213   8.1214   8.5687   8.5689   8.6623   8.6626   8.9519   8.9523
     9.1694   9.1721   9.2563   9.2577   9.5655   9.5658  10.3503  10.3524
    10.4542  10.4559  10.9768  10.9769  11.1518  11.1519  11.6223  11.6225
    11.7600  11.7601  12.5446  12.5455  12.6736  12.6737  12.8591  12.8597
    13.3049  13.3052  13.5731  13.5732

          k = 0.1000 0.0577 0.0000 ( 14348 PWs)   bands (ev):

   -12.4835 -12.4835 -11.9588 -11.9587 -10.8866 -10.8866  -8.1734  -8.1734
    -6.8510  -6.8509  -2.5933  -2.5923  -2.4188  -2.4173  -1.9600  -1.9506
    -1.7803  -1.7760  -1.5680  -1.5641  -1.3111  -1.3086  -0.8196  -0.8169
    -0.3863  -0.3829  -0.1237  -0.1207   0.6432   0.6433   1.1592   1.1648
     1.3649   1.3696   1.8083   1.8103   2.3355   2.3394   2.7101   2.7122
     4.4451   4.4452   4.5409   4.5411   5.0416   5.0418   5.4755   5.4757
     5.7422   5.7423   6.0652   6.0653   6.5302   6.5303   6.8076   6.8079
     6.9107   6.9109   7.1988   7.1989   7.4227   7.4228   7.7972   7.7973
     8.1462   8.1463   8.6286   8.6289   8.6938   8.6941   8.9527   8.9529
     9.1750   9.1767   9.3308   9.3316   9.5721   9.5724  10.3982  10.4005
    10.4763  10.4781  10.9889  10.9890  11.1585  11.1586  11.6255  11.6257
    11.7402  11.7406  12.4696  12.4703  12.6887  12.6888  12.8555  12.8559
    13.3616  13.3619  13.4914  13.4915

          k = 0.1071 0.0618 0.0000 ( 14346 PWs)   bands (ev):

   -12.4705 -12.4705 -11.9469 -11.9469 -10.8794 -10.8794  -8.1752  -8.1752
    -6.8721  -6.8720  -2.6495  -2.6484  -2.4520  -2.4503  -2.0139  -2.0046
    -1.8079  -1.8039  -1.6033  -1.5996  -1.3427  -1.3405  -0.8165  -0.8143
    -0.3536  -0.3503  -0.1476  -0.1442   0.6718   0.6721   1.1910   1.1959
     1.3998   1.4048   1.8392   1.8405   2.3482   2.3518   2.7491   2.7510
     4.4625   4.4627   4.5448   4.5450   5.0258   5.0260   5.4651   5.4652
     5.7440   5.7441   6.0910   6.0912   6.5119   6.5120   6.8265   6.8268
     6.9013   6.9015   7.2111   7.2112   7.4619   7.4620   7.7809   7.7809
     8.1691   8.1692   8.6736   8.6741   8.7261   8.7263   8.9725   8.9727
     9.1858   9.1872   9.4066   9.4070   9.5822   9.5824  10.4426  10.4451
    10.4921  10.4943  10.9976  10.9978  11.1678  11.1679  11.6383  11.6392
    11.7288  11.7299  12.3715  12.3721  12.7314  12.7315  12.8445  12.8448
    13.3732  13.3735  13.4438  13.4439

          k = 0.1143 0.0660 0.0000 ( 14348 PWs)   bands (ev):

   -12.4567 -12.4567 -11.9342 -11.9342 -10.8717 -10.8717  -8.1773  -8.1773
    -6.8946  -6.8945  -2.7120  -2.7110  -2.4809  -2.4790  -2.0682  -2.0590
    -1.8355  -1.8318  -1.6405  -1.6370  -1.3721  -1.3693  -0.8139  -0.8119
    -0.3262  -0.3228  -0.1746  -0.1706   0.7024   0.7031   1.2247   1.2289
     1.4298   1.4352   1.8746   1.8756   2.3653   2.3685   2.7864   2.7881
     4.4789   4.4791   4.5487   4.5490   5.0081   5.0083   5.4608   5.4609
     5.7464   5.7465   6.1184   6.1186   6.4980   6.4982   6.8441   6.8443
     6.8888   6.8890   7.2262   7.2263   7.5021   7.5022   7.7681   7.7681
     8.1896   8.1897   8.6907   8.6913   8.7715   8.7717   9.0112   9.0114
     9.2029   9.2040   9.4780   9.4782   9.6009   9.6011  10.4804  10.4840
    10.5035  10.5068  11.0003  11.0005  11.1855  11.1856  11.6539  11.6558
    11.7297  11.7317  12.2708  12.2712  12.7818  12.7821  12.8284  12.8287
    13.2834  13.2835  13.4771  13.4773

          k = 0.1214 0.0701 0.0000 ( 14347 PWs)   bands (ev):

   -12.4419 -12.4419 -11.9208 -11.9208 -10.8636 -10.8636  -8.1797  -8.1797
    -6.9186  -6.9185  -2.7785  -2.7776  -2.5073  -2.5053  -2.1230  -2.1140
    -1.8633  -1.8599  -1.6788  -1.6754  -1.3991  -1.3954  -0.8123  -0.8102
    -0.3116  -0.3081  -0.1954  -0.1910   0.7336   0.7346   1.2601   1.2636
     1.4548   1.4605   1.9141   1.9149   2.3873   2.3899   2.8218   2.8232
     4.4924   4.4926   4.5540   4.5542   4.9899   4.9901   5.4620   5.4621
     5.7498   5.7499   6.1473   6.1475   6.4888   6.4889   6.8550   6.8551
     6.8788   6.8791   7.2443   7.2444   7.5420   7.5421   7.7599   7.7599
     8.2077   8.2078   8.6934   8.6939   8.8204   8.8206   9.0636   9.0638
     9.2264   9.2273   9.5354   9.5355   9.6389   9.6391  10.4991  10.5009
    10.5263  10.5280  10.9970  10.9973  11.2141  11.2142  11.6664  11.6690
    11.7443  11.7468  12.1744  12.1748  12.7977  12.7981  12.8463  12.8466
    13.1805  13.1806  13.4117  13.4117

          k = 0.1286 0.0742 0.0000 ( 14352 PWs)   bands (ev):

   -12.4264 -12.4263 -11.9066 -11.9066 -10.8551 -10.8551  -8.1825  -8.1825
    -6.9440  -6.9439  -2.8475  -2.8466  -2.5325  -2.5303  -2.1783  -2.1695
    -1.8916  -1.8887  -1.7169  -1.7138  -1.4237  -1.4192  -0.8120  -0.8095
    -0.3221  -0.3180  -0.1966  -0.1923   0.7640   0.7652   1.2969   1.2997
     1.4757   1.4815   1.9566   1.9576   2.4142   2.4162   2.8551   2.8563
     4.4999   4.5002   4.5627   4.5629   4.9730   4.9732   5.4680   5.4681
     5.7544   5.7544   6.1778   6.1780   6.4841   6.4842   6.8430   6.8430
     6.8878   6.8881   7.2654   7.2655   7.5797   7.5799   7.7575   7.7576
     8.2234   8.2236   8.6928   8.6933   8.8656   8.8658   9.1231   9.1233
     9.2564   9.2572   9.5760   9.5762   9.7008   9.7009  10.5001  10.5006
    10.5557  10.5560  10.9910  10.9913  11.2524  11.2526  11.6777  11.6805
    11.7622  11.7647  12.0907  12.0912  12.7715  12.7718  12.9038  12.9039
    13.0767  13.0767  13.3014  13.3015

          k = 0.1357 0.0783 0.0000 ( 14344 PWs)   bands (ev):

   -12.4099 -12.4099 -11.8916 -11.8916 -10.8462 -10.8462  -8.1857  -8.1856
[...]
     9.2838   9.2843   9.4980   9.4985   9.8158   9.8160  10.6064  10.6069
    10.6900  10.6905  11.1012  11.1027  11.2914  11.2923  11.5784  11.5786
    11.7648  11.7653  12.0778  12.0781  12.3603  12.3606  13.1166  13.1169
    13.2314  13.2316  13.3619  13.3622

          k = 0.0762 0.1319 0.0000 ( 14343 PWs)   bands (ev):

   -12.4187 -12.4187 -11.8996 -11.8996 -10.8510 -10.8509  -8.1840  -8.1839
    -6.9565  -6.9564  -2.8253  -2.8237  -2.5552  -2.5535  -2.3316  -2.3276
    -1.9387  -1.9342  -1.6134  -1.6107  -1.3510  -1.3484  -0.9886  -0.9865
    -0.2492  -0.2455  -0.1562  -0.1527   0.8327   0.8341   1.2082   1.2099
     1.4277   1.4310   2.0935   2.0957   2.4161   2.4180   2.8495   2.8506
     4.5441   4.5443   4.5633   4.5636   5.0097   5.0098   5.3083   5.3085
     5.7369   5.7370   6.3251   6.3256   6.5959   6.5966   6.7076   6.7083
     6.8493   6.8498   7.1678   7.1681   7.6167   7.6169   7.9846   7.9855
     8.2473   8.2478   8.5794   8.5798   8.9241   8.9242   9.1186   9.1192
     9.3081   9.3088   9.4255   9.4262   9.7276   9.7279  10.5911  10.5922
    10.6554  10.6563  11.1001  11.1018  11.2276  11.2285  11.5328  11.5330
    11.7796  11.7801  12.1717  12.1721  12.4363  12.4366  13.0734  13.0736
    13.2934  13.2936  13.3855  13.3857

          k = 0.0714 0.1237 0.0000 ( 14347 PWs)   bands (ev):

   -12.4371 -12.4371 -11.9163 -11.9163 -10.8610 -10.8609  -8.1806  -8.1805
    -6.9265  -6.9264  -2.7549  -2.7535  -2.5212  -2.5194  -2.2572  -2.2528
    -1.8953  -1.8906  -1.5874  -1.5845  -1.3274  -1.3246  -0.9627  -0.9605
    -0.2685  -0.2660  -0.1528  -0.1499   0.8235   0.8248   1.1492   1.1511
     1.4044   1.4081   2.0513   2.0542   2.3732   2.3761   2.8148   2.8160
     4.5182   4.5183   4.5586   4.5588   5.0277   5.0278   5.3330   5.3333
     5.7250   5.7250   6.2711   6.2716   6.6038   6.6045   6.6942   6.6951
     6.8712   6.8718   7.1558   7.1562   7.5806   7.5807   7.9602   7.9610
     8.1975   8.1980   8.5940   8.5944   8.8654   8.8655   9.0634   9.0639
     9.3298   9.3316   9.3686   9.3705   9.6400   9.6403  10.5605  10.5622
    10.6215  10.6229  11.1160  11.1185  11.1691  11.1708  11.4910  11.4912
    11.7887  11.7891  12.2670  12.2675  12.5194  12.5198  13.0293  13.0295
    13.2261  13.2262  13.4816  13.4817

          k = 0.0667 0.1154 0.0000 ( 14347 PWs)   bands (ev):

   -12.4543 -12.4543 -11.9321 -11.9321 -10.8704 -10.8704  -8.1778  -8.1777
    -6.8984  -6.8983  -2.6870  -2.6858  -2.4871  -2.4851  -2.1827  -2.1779
    -1.8504  -1.8454  -1.5641  -1.5609  -1.3035  -1.3006  -0.9370  -0.9349
    -0.3019  -0.3002  -0.1400  -0.1374   0.8084   0.8098   1.0951   1.0975
     1.3825   1.3863   2.0005   2.0040   2.3439   2.3474   2.7777   2.7790
     4.4930   4.4931   4.5535   4.5537   5.0430   5.0431   5.3623   5.3626
     5.7161   5.7162   6.2193   6.2197   6.6145   6.6153   6.6878   6.6888
     6.8784   6.8790   7.1564   7.1568   7.5397   7.5399   7.9403   7.9410
     8.1523   8.1527   8.6112   8.6116   8.7981   8.7983   9.0115   9.0120
     9.3046   9.3057   9.3696   9.3707   9.5558   9.5561  10.5179  10.5199
    10.5872  10.5890  11.1113  11.1130  11.1496  11.1506  11.4575  11.4578
    11.7946  11.7951  12.3606  12.3612  12.6049  12.6054  12.9903  12.9904
    13.1449  13.1450  13.5907  13.5909

          k = 0.0619 0.1072 0.0000 ( 14351 PWs)   bands (ev):

   -12.4704 -12.4704 -11.9468 -11.9468 -10.8794 -10.8793  -8.1753  -8.1753
    -6.8722  -6.8721  -2.6239  -2.6230  -2.4504  -2.4481  -2.1091  -2.1040
    -1.8040  -1.7988  -1.5432  -1.5396  -1.2792  -1.2760  -0.9119  -0.9101
    -0.3427  -0.3413  -0.1254  -0.1228   0.7851   0.7866   1.0508   1.0537
     1.3594   1.3632   1.9453   1.9492   2.3258   2.3296   2.7379   2.7393
     4.4689   4.4690   4.5482   4.5483   5.0553   5.0554   5.3959   5.3961
     5.7103   5.7103   6.1706   6.1710   6.6271   6.6280   6.6882   6.6892
     6.8726   6.8731   7.1668   7.1672   7.4951   7.4952   7.9255   7.9261
     8.1123   8.1127   8.6262   8.6266   8.7250   8.7254   8.9673   8.9678
     9.2595   9.2602   9.3923   9.3927   9.4799   9.4805  10.4673  10.4694
    10.5515  10.5533  11.0674  11.0678  11.1749  11.1753  11.4406  11.4409
    11.7999  11.8003  12.4484  12.4491  12.6868  12.6873  12.9610  12.9611
    13.0705  13.0706  13.5770  13.5773

          k = 0.0571 0.0989 0.0000 ( 14347 PWs)   bands (ev):

   -12.4853 -12.4853 -11.9604 -11.9604 -10.8877 -10.8876  -8.1733  -8.1732
    -6.8480  -6.8479  -2.5691  -2.5683  -2.4081  -2.4055  -2.0370  -2.0317
    -1.7566  -1.7514  -1.5240  -1.5201  -1.2543  -1.2507  -0.8879  -0.8862
    -0.3876  -0.3861  -0.1131  -0.1105   0.7529   0.7546   1.0189   1.0223
     1.3333   1.3371   1.8903   1.8943   2.3158   2.3197   2.6957   2.6972
     4.4460   4.4460   4.5427   4.5428   5.0646   5.0647   5.4331   5.4334
     5.7072   5.7073   6.1256   6.1259   6.6413   6.6422   6.6942   6.6952
     6.8583   6.8588   7.1815   7.1819   7.4480   7.4482   7.9163   7.9168
     8.0776   8.0780   8.6266   8.6279   8.6533   8.6547   8.9378   8.9384
     9.2112   9.2118   9.3948   9.3962   9.4346   9.4364  10.4114  10.4136
    10.5132  10.5150  11.0291  11.0292  11.1860  11.1865  11.4509  11.4512
    11.8066  11.8070  12.5237  12.5244  12.7539  12.7544  12.9475  12.9477
    13.0125  13.0126  13.5444  13.5446

          k = 0.0524 0.0907 0.0000 ( 14339 PWs)   bands (ev):

   -12.4990 -12.4990 -11.9730 -11.9730 -10.8954 -10.8954  -8.1716  -8.1715
    -6.8257  -6.8256  -2.5250  -2.5241  -2.3579  -2.3551  -1.9667  -1.9612
    -1.7093  -1.7044  -1.5059  -1.5017  -1.2288  -1.2246  -0.8650  -0.8636
    -0.4344  -0.4327  -0.1063  -0.1036   0.7142   0.7163   0.9989   1.0027
     1.3035   1.3070   1.8388   1.8430   2.3117   2.3155   2.6515   2.6531
     4.4243   4.4244   4.5372   4.5373   5.0710   5.0711   5.4736   5.4738
     5.7065   5.7066   6.0844   6.0846   6.6571   6.6579   6.7039   6.7048
     6.8407   6.8413   7.1957   7.1961   7.4004   7.4005   7.9129   7.9133
     8.0474   8.0477   8.5660   8.5666   8.6263   8.6271   8.9310   8.9317
     9.1554   9.1559   9.3573   9.3582   9.4460   9.4473  10.3522  10.3544
    10.4712  10.4730  10.9981  10.9982  11.1769  11.1773  11.4912  11.4915
    11.8162  11.8166  12.5771  12.5779  12.7843  12.7847  12.9530  12.9533
    12.9928  12.9932  13.5144  13.5145

          k = 0.0476 0.0824 0.0000 ( 14323 PWs)   bands (ev):

   -12.5116 -12.5116 -11.9845 -11.9845 -10.9025 -10.9025  -8.1701  -8.1701
    -6.8053  -6.8052  -2.4913  -2.4905  -2.3006  -2.2978  -1.8981  -1.8926
    -1.6637  -1.6591  -1.4881  -1.4837  -1.2027  -1.1976  -0.8436  -0.8422
    -0.4817  -0.4795  -0.1075  -0.1048   0.6733   0.6758   0.9880   0.9919
     1.2703   1.2735   1.7929   1.7972   2.3117   2.3153   2.6058   2.6075
     4.4040   4.4041   4.5319   4.5320   5.0748   5.0749   5.5166   5.5168
     5.7077   5.7078   6.0471   6.0473   6.6737   6.6743   6.7141   6.7145
     6.8253   6.8260   7.2062   7.2067   7.3540   7.3541   7.9150   7.9153
     8.0207   8.0211   8.4906   8.4910   8.5962   8.5967   8.9482   8.9491
     9.0923   9.0927   9.3288   9.3296   9.4632   9.4642  10.2908  10.2930
    10.4247  10.4265  10.9745  10.9746  11.1546  11.1549  11.5526  11.5530
    11.8302  11.8306  12.6027  12.6034  12.7662  12.7666  12.9747  12.9755
    13.0213  13.0221  13.4987  13.4987

          k = 0.0429 0.0742 0.0000 ( 14325 PWs)   bands (ev):

   -12.5230 -12.5230 -11.9950 -11.9949 -10.9090 -10.9090  -8.1690  -8.1689
    -6.7869  -6.7868  -2.4657  -2.4649  -2.2391  -2.2363  -1.8315  -1.8263
    -1.6215  -1.6172  -1.4697  -1.4651  -1.1764  -1.1703  -0.8242  -0.8223
    -0.5274  -0.5247  -0.1186  -0.1158   0.6332   0.6361   0.9833   0.9871
     1.2359   1.2387   1.7528   1.7573   2.3147   2.3180   2.5595   2.5612
     4.3852   4.3853   4.5269   4.5270   5.0763   5.0764   5.5616   5.5618
     5.7102   5.7103   6.0139   6.0141   6.6871   6.6873   6.7218   6.7223
     6.8188   6.8198   7.2119   7.2124   7.3109   7.3110   7.9212   7.9216
     7.9969   7.9972   8.4175   8.4179   8.5538   8.5541   8.9791   8.9808
     9.0302   9.0314   9.3130   9.3138   9.4787   9.4797  10.2281  10.2304
    10.3733  10.3751  10.9575  10.9576  11.1272  11.1274  11.6260  11.6266
    11.8497  11.8502  12.6051  12.6059  12.7249  12.7253  12.9912  12.9921
    13.0767  13.0775  13.5095  13.5096

          k = 0.0381 0.0660 0.0000 ( 14321 PWs)   bands (ev):

   -12.5331 -12.5331 -12.0043 -12.0043 -10.9148 -10.9148  -8.1680  -8.1680
    -6.7704  -6.7704  -2.4457  -2.4451  -2.1763  -2.1737  -1.7679  -1.7631
    -1.5839  -1.5795  -1.4497  -1.4452  -1.1508  -1.1433  -0.8083  -0.8054
    -0.5688  -0.5652  -0.1400  -0.1372   0.5951   0.5985   0.9821   0.9857
     1.2039   1.2065   1.7177   1.7224   2.3198   2.3227   2.5136   2.5153
     4.3680   4.3681   4.5223   4.5224   5.0761   5.0761   5.6077   5.6079
     5.7136   5.7137   5.9847   5.9849   6.6854   6.6855   6.7332   6.7342
     6.8259   6.8271   7.2126   7.2131   7.2728   7.2729   7.9291   7.9296
     7.9754   7.9759   8.3492   8.3496   8.5054   8.5057   8.9513   8.9521
     9.0415   9.0421   9.3066   9.3075   9.4926   9.4935  10.1650  10.1673
    10.3171  10.3190  10.9460  10.9461  11.0990  11.0992  11.7058  11.7066
    11.8757  11.8763  12.5940  12.5949  12.6799  12.6804  12.9771  12.9779
    13.1473  13.1478  13.5526  13.5528

          k = 0.0333 0.0577 0.0000 ( 14317 PWs)   bands (ev):

   -12.5421 -12.5421 -12.0126 -12.0126 -10.9200 -10.9200  -8.1672  -8.1672
    -6.7559  -6.7559  -2.4299  -2.4294  -2.1145  -2.1120  -1.7096  -1.7052
    -1.5497  -1.5444  -1.4279  -1.4236  -1.1271  -1.1182  -0.7992  -0.7950
    -0.6008  -0.5961  -0.1707  -0.1678   0.5582   0.5619   0.9818   0.9852
     1.1794   1.1821   1.6859   1.6908   2.3261   2.3286   2.4692   2.4710
     4.3525   4.3525   4.5181   4.5182   5.0745   5.0746   5.6533   5.6536
     5.7178   5.7179   5.9597   5.9598   6.6674   6.6675   6.7514   6.7522
     6.8434   6.8445   7.2091   7.2095   7.2419   7.2421   7.9333   7.9342
     7.9575   7.9585   8.2883   8.2886   8.4559   8.4562   8.8918   8.8922
     9.0953   9.0958   9.3073   9.3083   9.5054   9.5063  10.1023  10.1046
    10.2565  10.2583  10.9385  10.9387  11.0723  11.0724  11.7888  11.7898
    11.9086  11.9094  12.5760  12.5772  12.6378  12.6387  12.9349  12.9355
    13.2187  13.2189  13.6215  13.6218

          k = 0.0286 0.0495 0.0000 ( 14313 PWs)   bands (ev):

   -12.5499 -12.5499 -12.0198 -12.0198 -10.9245 -10.9245  -8.1666  -8.1666
    -6.7434  -6.7433  -2.4174  -2.4169  -2.0552  -2.0529  -1.6615  -1.6573
    -1.5143  -1.5076  -1.4051  -1.4013  -1.1072  -1.0970  -0.8025  -0.7973
    -0.6159  -0.6106  -0.2081  -0.2052   0.5210   0.5248   0.9797   0.9829
     1.1671   1.1705   1.6558   1.6609   2.3328   2.3348   2.4279   2.4296
     4.3388   4.3388   4.5144   4.5145   5.0722   5.0723   5.6940   5.6944
     5.7260   5.7263   5.9387   5.9389   6.6422   6.6423   6.7703   6.7708
     6.8662   6.8670   7.2017   7.2021   7.2206   7.2209   7.9248   7.9258
     7.9483   7.9495   8.2378   8.2381   8.4085   8.4087   8.8368   8.8370
     9.1540   9.1547   9.3135   9.3149   9.5184   9.5193  10.0409  10.0433
    10.1920  10.1939  10.9340  10.9341  11.0481  11.0482  11.8724  11.8739
    11.9486  11.9497  12.5543  12.5559  12.6012  12.6024  12.8747  12.8752
    13.2781  13.2783  13.7060  13.7064

          k = 0.0238 0.0412 0.0000 ( 14321 PWs)   bands (ev):

   -12.5565 -12.5565 -12.0258 -12.0258 -10.9283 -10.9283  -8.1662  -8.1661
    -6.7328  -6.7327  -2.4074  -2.4071  -1.9998  -1.9978  -1.6285  -1.6246
    -1.4713  -1.4637  -1.3825  -1.3794  -1.0932  -1.0819  -0.8201  -0.8148
    -0.6108  -0.6058  -0.2489  -0.2460   0.4827   0.4863   0.9744   0.9775
     1.1694   1.1736   1.6263   1.6314   2.3386   2.3399   2.3918   2.3932
     4.3269   4.3270   4.5112   4.5113   5.0695   5.0696   5.7126   5.7129
     5.7538   5.7541   5.9218   5.9220   6.6144   6.6145   6.7866   6.7869
     6.8901   6.8906   7.1926   7.1930   7.2094   7.2098   7.9077   7.9084
     7.9395   7.9405   8.2013   8.2016   8.3654   8.3655   8.7891   8.7893
     9.2124   9.2136   9.3247   9.3268   9.5333   9.5341   9.9821   9.9845
    10.1246  10.1266  10.9314  10.9315  11.0271  11.0272  11.9545  11.9567
    11.9954  11.9972  12.5303  12.5324  12.5708  12.5723  12.8047  12.8051
    13.3149  13.3150  13.7979  13.7984

          k = 0.0190 0.0330 0.0000 ( 14325 PWs)   bands (ev):

   -12.5620 -12.5619 -12.0308 -12.0308 -10.9315 -10.9314  -8.1658  -8.1658
    -6.7241  -6.7241  -2.3996  -2.3994  -1.9498  -1.9480  -1.6108  -1.6075
    -1.4200  -1.4128  -1.3610  -1.3589  -1.0868  -1.0748  -0.8465  -0.8418
    -0.5914  -0.5874  -0.2890  -0.2862   0.4439   0.4471   0.9672   0.9700
     1.1848   1.1893   1.5967   1.6017   2.3381   2.3388   2.3663   2.3679
     4.3171   4.3172   4.5086   4.5087   5.0669   5.0669   5.7167   5.7169
     5.7917   5.7920   5.9089   5.9091   6.5867   6.5868   6.7989   6.7991
     6.9125   6.9128   7.1874   7.1880   7.2038   7.2043   7.8894   7.8900
     7.9223   7.9232   8.1800   8.1802   8.3283   8.3283   8.7498   8.7500
     9.2650   9.2671   9.3409   9.3441   9.5526   9.5534   9.9272   9.9296
    10.0555  10.0576  10.9300  10.9301  11.0097  11.0097  12.0317  12.0354
    12.0484  12.0517  12.5050  12.5075  12.5460  12.5478  12.7307  12.7310
    13.3243  13.3245  13.8913  13.8916

          k = 0.0143 0.0247 0.0000 ( 14321 PWs)   bands (ev):

   -12.5662 -12.5662 -12.0347 -12.0347 -10.9339 -10.9339  -8.1656  -8.1655
    -6.7173  -6.7173  -2.3938  -2.3936  -1.9067  -1.9052  -1.6038  -1.6012
    -1.3676  -1.3641  -1.3397  -1.3355  -1.0894  -1.0773  -0.8744  -0.8704
    -0.5667  -0.5636  -0.3245  -0.3220   0.4073   0.4099   0.9602   0.9625
     1.2081   1.2125   1.5676   1.5721   2.3221   2.3234   2.3611   2.3627
     4.3094   4.3094   4.5065   4.5066   5.0645   5.0645   5.7181   5.7182
     5.8257   5.8260   5.9002   5.9005   6.5613   6.5614   6.8070   6.8072
     6.9311   6.9314   7.1881   7.1888   7.2014   7.2019   7.8717   7.8723
     7.8995   7.9004   8.1708   8.1710   8.2983   8.2984   8.7194   8.7194
     9.3048   9.3077   9.3635   9.3677   9.5794   9.5804   9.8779   9.8803
     9.9867   9.9889  10.9294  10.9295  10.9959  10.9959  12.0990  12.1021
    12.1111  12.1143  12.4788  12.4817  12.5255  12.5274  12.6581  12.6583
    13.3129  13.3130  13.9761  13.9774

          k = 0.0095 0.0165 0.0000 ( 14313 PWs)   bands (ev):

   -12.5692 -12.5692 -12.0375 -12.0375 -10.9357 -10.9357  -8.1654  -8.1654
    -6.7125  -6.7125  -2.3898  -2.3897  -1.8728  -1.8717  -1.6028  -1.6010
    -1.3395  -1.3372  -1.3023  -1.2933  -1.1011  -1.0900  -0.8978  -0.8948
    -0.5438  -0.5416  -0.3518  -0.3499   0.3766   0.3784   0.9549   0.9565
     1.2337   1.2373   1.5410   1.5448   2.3049   2.3058   2.3636   2.3646
     4.3038   4.3039   4.5051   4.5051   5.0626   5.0626   5.7186   5.7186
     5.8510   5.8513   5.8963   5.8965   6.5406   6.5406   6.8116   6.8117
     6.9447   6.9450   7.1923   7.1930   7.2013   7.2017   7.8556   7.8562
     7.8785   7.8792   8.1686   8.1687   8.2763   8.2763   8.6978   8.6978
     9.3292   9.3316   9.3895   9.3931   9.6161   9.6171   9.8355   9.8378
     9.9221   9.9243  10.9291  10.9292  10.9859  10.9859  12.1566  12.1588
    12.1738  12.1769  12.4510  12.4544  12.5076  12.5096  12.5944  12.5947
    13.2932  13.2933  14.0398  14.0412

          k = 0.0048 0.0082 0.0000 ( 14310 PWs)   bands (ev):

   -12.5710 -12.5710 -12.0391 -12.0391 -10.9367 -10.9367  -8.1653  -8.1653
    -6.7096  -6.7096  -2.3874  -2.3874  -1.8505  -1.8499  -1.6040  -1.6031
    -1.3287  -1.3275  -1.2580  -1.2510  -1.1182  -1.1101  -0.9130  -0.9113
    -0.5277  -0.5266  -0.3685  -0.3675   0.3561   0.3571   0.9518   0.9526
     1.2546   1.2567   1.5215   1.5237   2.2938   2.2943   2.3659   2.3664
     4.3005   4.3005   4.5042   4.5042   5.0614   5.0614   5.7186   5.7187
     5.8642   5.8644   5.8974   5.8976   6.5269   6.5269   6.8138   6.8139
     6.9528   6.9530   7.1965   7.1968   7.2027   7.2029   7.8432   7.8436
     7.8652   7.8656   8.1689   8.1690   8.2628   8.2629   8.6849   8.6850
     9.3422   9.3435   9.4092   9.4112   9.6591   9.6599   9.7994   9.8011
     9.8720   9.8737  10.9291  10.9291  10.9798  10.9798  12.2012  12.2032
    12.2251  12.2284  12.4222  12.4252  12.4912  12.4929  12.5523  12.5524
    13.2766  13.2767  14.0869  14.0877

          k = 0.0000 0.0000 0.0000 ( 14301 PWs)   bands (ev):

   -12.5716 -12.5716 -12.0397 -12.0397 -10.9371 -10.9371  -8.1652  -8.1652
    -6.7087  -6.7087  -2.3866  -2.3866  -1.8425  -1.8425  -1.6045  -1.6045
    -1.3250  -1.3250  -1.2345  -1.2345  -1.1255  -1.1255  -0.9176  -0.9176
    -0.5217  -0.5217  -0.3737  -0.3737   0.3492   0.3492   0.9511   0.9511
     1.2636   1.2636   1.5148   1.5148   2.2902   2.2902   2.3670   2.3670
     4.2993   4.2993   4.5039   4.5039   5.0610   5.0610   5.7186   5.7186
     5.8676   5.8676   5.8993   5.8993   6.5220   6.5220   6.8145   6.8145
     6.9555   6.9555   7.1980   7.1980   7.2038   7.2038   7.8385   7.8385
     7.8609   7.8609   8.1693   8.1693   8.2583   8.2583   8.6807   8.6807
     9.3468   9.3468   9.4170   9.4170   9.6857   9.6857   9.7784   9.7784
     9.8536   9.8536  10.9291  10.9291  10.9778  10.9778  12.2194  12.2194
    12.2507  12.2507  12.4073  12.4073  12.4836  12.4836  12.5392  12.5392
    13.2703  13.2703  14.1037  14.1037

     Writing all to output data dir tmp/Sb2Te3-uatsx-c6-soc-0.0.save/ :
     XML data file, pseudopotentials, collected wavefunctions

     init_run     :      1.81s CPU      1.84s WALL (       1 calls)
     electrons    :   2190.34s CPU   1191.68s WALL (       1 calls)

     Called by init_run:
     wfcinit      :      0.00s CPU      0.01s WALL (       1 calls)
     wfcinit:atom :      0.11s CPU      0.07s WALL (     211 calls)
     wfcinit:wfcr :     42.82s CPU     22.42s WALL (     211 calls)
     potinit      :      0.50s CPU      0.48s WALL (       1 calls)
     hinit0       :      0.68s CPU      0.70s WALL (       1 calls)

     Called by electrons:
     c_bands      :   2190.33s CPU   1191.66s WALL (       1 calls)
     v_of_rho     :      0.05s CPU      0.03s WALL (       1 calls)
     v_h          :      0.01s CPU      0.01s WALL (       1 calls)
     v_xc         :      0.04s CPU      0.03s WALL (       1 calls)
     newd         :      0.53s CPU      0.54s WALL (       1 calls)

     Called by c_bands:
     init_us_2    :      0.20s CPU      0.17s WALL (     211 calls)
     cegterg      :   2139.18s CPU   1160.98s WALL (     886 calls)

     Called by sum_band:

     Called by *egterg:
     cdiaghg      :    344.54s CPU    231.43s WALL (   15944 calls)
     cegterg:over :    126.80s CPU     66.43s WALL (   15733 calls)
     cegterg:upda :     65.53s CPU     30.90s WALL (   15733 calls)
     cegterg:last :    150.92s CPU     75.95s WALL (    7803 calls)
     h_psi        :   1325.05s CPU    682.82s WALL (   16830 calls)
     s_psi        :     90.74s CPU     52.20s WALL (   16830 calls)
     g_psi        :      6.92s CPU      4.74s WALL (   15733 calls)

     Called by h_psi:
     h_psi:calbec :     72.88s CPU     36.58s WALL (   16830 calls)
     vloc_psi     :   1176.79s CPU    598.80s WALL (   16830 calls)
     add_vuspsi   :     72.11s CPU     45.35s WALL (   16830 calls)

     General routines
     calbec       :     72.76s CPU     36.54s WALL (   16830 calls)
     fft          :      0.58s CPU      0.58s WALL (      19 calls)
     ffts         :      0.42s CPU      0.42s WALL (       4 calls)
     fftw         :    866.11s CPU    439.72s WALL ( 3105316 calls)
     interpolate  :      0.44s CPU      0.43s WALL (       4 calls)
     davcio       :      0.19s CPU      0.78s WALL (     422 calls)

     Parallel routines

     PWSCF        :  36m48.80s CPU  21m44.10s WALL


   This run was terminated on:  19:48:30  22Aug2025            

=------------------------------------------------------------------------------=
   JOB DONE.
=------------------------------------------------------------------------------=
