
     Program BANDS v.7.4.1 starts on 13Aug2025 at 15:30: 1 

     This program is part of the open-source Quantum ESPRESSO suite
     for quantum simulation of materials; please cite
         "P. Giannozzi et al., J. Phys.:Condens. Matter 21 395502 (2009);
         "P. Giannozzi et al., J. Phys.:Condens. Matter 29 465901 (2017);
         "P. Giannozzi et al., J. Chem. Phys. 152 154105 (2020);
          URL http://www.quantum-espresso.org", 
     in publications or presentations arising from this work. More details at
     http://www.quantum-espresso.org/quote

     Parallel version (MPI & OpenMP), running on      48 processor cores
     Number of MPI processes:                24
     Threads/MPI process:                     2

     MPI processes distributed on     2 nodes
     R & G space division:  proc/nbgrp/npool/nimage =      24
     116568 MiB available memory on the printing compute node when the environment starts


     Reading xml data from directory:

     tmp/Sb2Te3-uatsx-c1-0.0.save/

     IMPORTANT: XC functional enforced from input :
     Exchange-correlation= PBE
                           (   1   4   3   4   0   0   0)
     Any further DFT definition will be discarded
     Please, verify this is what you really want


     Parallelization info
     --------------------
     sticks:   dense  smooth     PW     G-vecs:    dense   smooth      PW
     Min          94      38     10                18908     4792     720
     Max          95      39     11                18933     4815     753
     Sum        2275     925    253               454177   115133   17665

     Using Slab Decomposition

     Reading collected, re-writing distributed wavefunctions
     high-symmetry point:  0.0000 0.0000 0.0000   x coordinate   0.0000
     high-symmetry point:  0.5000 0.2886 0.0000   x coordinate   0.5773
     high-symmetry point:  0.3333 0.5771 0.0000   x coordinate   0.9105
     high-symmetry point:  0.0000 0.0000 0.0000   x coordinate   1.5770

     Plottable bands (eV) written to file ./bands/Sb2Te3-uatsx-c1-0.0.bands.gnu
     Bands written to file ./bands/Sb2Te3-uatsx-c1-0.0.bands

 **************************************************************************

                    xk=(   0.00000,   0.00000,   0.00000  )

     point group C_1 (1)    
     there are  1 classes
     the character table:

       E    
A      1.00

     the symmetry operations in each class and the name of the first element:

     E        1
                                                                 

     Band symmetry, C_1 (1)     point group:

     e(  1 -  1) =    -34.56769  eV     1   --> A              
     e(  2 -  2) =    -34.56754  eV     1   --> A              
     e(  3 -  3) =    -34.56201  eV     1   --> A              
     e(  4 -  4) =    -34.56188  eV     1   --> A              
     e(  5 -  5) =    -34.54090  eV     1   --> A              
     e(  6 -  6) =    -34.53944  eV     1   --> A              
     e(  7 -  7) =    -34.53504  eV     1   --> A              
     e(  8 -  8) =    -34.53407  eV     1   --> A              
     e(  9 -  9) =    -34.53005  eV     1   --> A              
     e( 10 - 10) =    -34.52446  eV     1   --> A              
     e( 11 - 11) =    -34.45886  eV     1   --> A              
     e( 12 - 12) =    -34.44690  eV     1   --> A              
     e( 13 - 13) =    -34.44661  eV     1   --> A              
     e( 14 - 15) =    -34.40771  eV     2   -->   2 A              
     e( 16 - 17) =    -27.31233  eV     2   -->   2 A              
     e( 18 - 19) =    -27.30921  eV     2   -->   2 A              
     e( 20 - 20) =    -27.30332  eV     1   --> A              
     e( 21 - 23) =    -27.30036  eV     3   -->   3 A              
     e( 24 - 25) =    -27.29728  eV     2   -->   2 A              
     e( 26 - 26) =    -10.60602  eV     1   --> A              
     e( 27 - 27) =    -10.06869  eV     1   --> A              
     e( 28 - 28) =     -8.97222  eV     1   --> A              
     e( 29 - 29) =     -6.19311  eV     1   --> A              
     e( 30 - 30) =     -4.74100  eV     1   --> A              
     e( 31 - 31) =     -0.10794  eV     1   --> A              
     e( 32 - 32) =      0.37743  eV     1   --> A              
     e( 33 - 33) =      0.37968  eV     1   --> A              
     e( 34 - 34) =      0.59312  eV     1   --> A              
     e( 35 - 35) =      0.59740  eV     1   --> A              
     e( 36 - 36) =      0.92863  eV     1   --> A              
     e( 37 - 37) =      1.19372  eV     1   --> A              
     e( 38 - 38) =      1.19526  eV     1   --> A              
     e( 39 - 39) =      1.49574  eV     1   --> A              
     e( 40 - 40) =      2.56018  eV     1   --> A              
     e( 41 - 41) =      2.99338  eV     1   --> A              
     e( 42 - 42) =      2.99520  eV     1   --> A              
     e( 43 - 43) =      4.03469  eV     1   --> A              
     e( 44 - 44) =      4.05321  eV     1   --> A              
     e( 45 - 45) =      4.05724  eV     1   --> A              
     e( 46 - 46) =      6.32612  eV     1   --> A              
     e( 47 - 47) =      6.52745  eV     1   --> A              
     e( 48 - 48) =      7.06830  eV     1   --> A              
     e( 49 - 49) =      7.76160  eV     1   --> A              
     e( 50 - 50) =      7.86214  eV     1   --> A              
     e( 51 - 51) =      7.86658  eV     1   --> A              
     e( 52 - 52) =      8.52261  eV     1   --> A              
     e( 53 - 53) =      8.81063  eV     1   --> A              
     e( 54 - 54) =      8.96514  eV     1   --> A              
     e( 55 - 55) =      9.17215  eV     1   --> A              
     e( 56 - 56) =      9.17698  eV     1   --> A              
     e( 57 - 57) =      9.82593  eV     1   --> A              
     e( 58 - 58) =      9.82981  eV     1   --> A              
     e( 59 - 59) =     10.16218  eV     1   --> A              
     e( 60 - 60) =     10.27463  eV     1   --> A              
     e( 61 - 61) =     10.65807  eV     1   --> A              
     e( 62 - 62) =     11.36495  eV     1   --> A              
     e( 63 - 63) =     11.36944  eV     1   --> A              
     e( 64 - 64) =     11.66319  eV     1   --> A              
     e( 65 - 65) =     11.79329  eV     1   --> A              
     e( 66 - 66) =     11.79621  eV     1   --> A              
     e( 67 - 67) =     12.91032  eV     1   --> A              
     e( 68 - 68) =     12.99698  eV     1   --> A              
     e( 69 - 69) =     14.19378  eV     1   --> A              
     e( 70 - 70) =     14.19754  eV     1   --> A              
     e( 71 - 71) =     14.41222  eV     1   --> A              
     e( 72 - 72) =     14.41616  eV     1   --> A              
     e( 73 - 73) =     14.53626  eV     1   --> A              
     e( 74 - 74) =     15.27646  eV     1   --> A              
     e( 75 - 75) =     16.12244  eV     1   --> A              
     e( 76 - 76) =     16.12637  eV     1   --> A              
     e( 77 - 77) =     16.18781  eV     1   --> A              
     e( 78 - 78) =     16.44118  eV     1   --> A              
     e( 79 - 79) =     16.44522  eV     1   --> A              
     e( 80 - 80) =     16.51170  eV     1   --> A              
     e( 81 - 81) =     16.88739  eV     1   --> A              
     e( 82 - 82) =     17.37189  eV     1   --> A              
     e( 83 - 83) =     17.50757  eV     1   --> A              
     e( 84 - 84) =     17.51153  eV     1   --> A              
     e( 85 - 85) =     17.55724  eV     1   --> A              
     e( 86 - 86) =     17.67547  eV     1   --> A              
     e( 87 - 87) =     17.67916  eV     1   --> A              
     e( 88 - 88) =     17.89194  eV     1   --> A              
     e( 89 - 89) =     17.89593  eV     1   --> A              
     e( 90 - 90) =     17.91835  eV     1   --> A              
     e( 91 - 91) =     17.93852  eV     1   --> A              
     e( 92 - 92) =     17.94204  eV     1   --> A              
     e( 93 - 93) =     18.14774  eV     1   --> A              
     e( 94 - 94) =     18.41130  eV     1   --> A              
     e( 95 - 95) =     19.41291  eV     1   --> A              
     e( 96 - 96) =     19.41696  eV     1   --> A              
     e( 97 - 97) =     19.48691  eV     1   --> A              
     e( 98 - 98) =     19.49191  eV     1   --> A              
     e( 99 - 99) =     19.49565  eV     1   --> A              
     e(100 -100) =     19.72881  eV     1   --> A              

 **************************************************************************

 **************************************************************************

                    xk=(   0.00714,   0.00412,   0.00000  )

     Band symmetry, C_1 (1)     point group:

     e(  1 -  1) =    -34.56769  eV     1   --> A              
     e(  2 -  2) =    -34.56754  eV     1   --> A              
     e(  3 -  3) =    -34.56201  eV     1   --> A              
     e(  4 -  4) =    -34.56188  eV     1   --> A              
     e(  5 -  5) =    -34.54090  eV     1   --> A              
     e(  6 -  6) =    -34.53944  eV     1   --> A              
     e(  7 -  7) =    -34.53504  eV     1   --> A              
     e(  8 -  8) =    -34.53407  eV     1   --> A              
     e(  9 -  9) =    -34.53005  eV     1   --> A              
     e( 10 - 10) =    -34.52447  eV     1   --> A              
     e( 11 - 11) =    -34.45886  eV     1   --> A              
     e( 12 - 12) =    -34.44690  eV     1   --> A              
     e( 13 - 13) =    -34.44661  eV     1   --> A              
     e( 14 - 15) =    -34.40771  eV     2   -->   2 A              
     e( 16 - 17) =    -27.31233  eV     2   -->   2 A              
     e( 18 - 19) =    -27.30921  eV     2   -->   2 A              
     e( 20 - 20) =    -27.30332  eV     1   --> A              
     e( 21 - 23) =    -27.30037  eV     3   -->   3 A              
     e( 24 - 25) =    -27.29728  eV     2   -->   2 A              
     e( 26 - 26) =    -10.60555  eV     1   --> A              
     e( 27 - 27) =    -10.06831  eV     1   --> A              
     e( 28 - 28) =     -8.97200  eV     1   --> A              
     e( 29 - 29) =     -6.19316  eV     1   --> A              
     e( 30 - 30) =     -4.74175  eV     1   --> A              
     e( 31 - 31) =     -0.10871  eV     1   --> A              
     e( 32 - 32) =      0.37070  eV     1   --> A              
     e( 33 - 33) =      0.37757  eV     1   --> A              
     e( 34 - 34) =      0.58861  eV     1   --> A              
     e( 35 - 35) =      0.59554  eV     1   --> A              
     e( 36 - 36) =      0.93247  eV     1   --> A              
     e( 37 - 37) =      1.19112  eV     1   --> A              
     e( 38 - 38) =      1.19498  eV     1   --> A              
     e( 39 - 39) =      1.50181  eV     1   --> A              
     e( 40 - 40) =      2.56596  eV     1   --> A              
     e( 41 - 41) =      2.99086  eV     1   --> A              
     e( 42 - 42) =      2.99477  eV     1   --> A              
     e( 43 - 43) =      4.03848  eV     1   --> A              
     e( 44 - 44) =      4.05418  eV     1   --> A              
     e( 45 - 45) =      4.05699  eV     1   --> A              
     e( 46 - 46) =      6.32697  eV     1   --> A              
     e( 47 - 47) =      6.52766  eV     1   --> A              
     e( 48 - 48) =      7.06855  eV     1   --> A              
     e( 49 - 49) =      7.76168  eV     1   --> A              
     e( 50 - 50) =      7.85949  eV     1   --> A              
     e( 51 - 51) =      7.86540  eV     1   --> A              
     e( 52 - 52) =      8.52637  eV     1   --> A              
     e( 53 - 53) =      8.81023  eV     1   --> A              
     e( 54 - 54) =      8.96233  eV     1   --> A              
     e( 55 - 55) =      9.17168  eV     1   --> A              
     e( 56 - 56) =      9.17655  eV     1   --> A              
     e( 57 - 57) =      9.82843  eV     1   --> A              
     e( 58 - 58) =      9.83435  eV     1   --> A              
     e( 59 - 59) =     10.16185  eV     1   --> A              
     e( 60 - 60) =     10.27780  eV     1   --> A              
     e( 61 - 61) =     10.66133  eV     1   --> A              
     e( 62 - 62) =     11.36075  eV     1   --> A              
     e( 63 - 63) =     11.36591  eV     1   --> A              
     e( 64 - 64) =     11.64310  eV     1   --> A              
     e( 65 - 65) =     11.79986  eV     1   --> A              
     e( 66 - 66) =     11.82061  eV     1   --> A              
     e( 67 - 67) =     12.91034  eV     1   --> A              
     e( 68 - 68) =     12.99842  eV     1   --> A              
     e( 69 - 69) =     14.17879  eV     1   --> A              
     e( 70 - 70) =     14.18436  eV     1   --> A              
     e( 71 - 71) =     14.42032  eV     1   --> A              
     e( 72 - 72) =     14.42543  eV     1   --> A              
     e( 73 - 73) =     14.54510  eV     1   --> A              
     e( 74 - 74) =     15.28106  eV     1   --> A              
     e( 75 - 75) =     16.10490  eV     1   --> A              
     e( 76 - 76) =     16.11316  eV     1   --> A              
     e( 77 - 77) =     16.18206  eV     1   --> A              
     e( 78 - 78) =     16.45356  eV     1   --> A              
     e( 79 - 79) =     16.45723  eV     1   --> A              
     e( 80 - 80) =     16.51494  eV     1   --> A              
     e( 81 - 81) =     16.89569  eV     1   --> A              
     e( 82 - 82) =     17.36322  eV     1   --> A              
     e( 83 - 83) =     17.42925  eV     1   --> A              
     e( 84 - 84) =     17.48432  eV     1   --> A              
     e( 85 - 85) =     17.60984  eV     1   --> A              
     e( 86 - 86) =     17.69508  eV     1   --> A              
     e( 87 - 87) =     17.69754  eV     1   --> A              
     e( 88 - 88) =     17.78779  eV     1   --> A              
     e( 89 - 89) =     17.84622  eV     1   --> A              
     e( 90 - 90) =     17.92824  eV     1   --> A              
     e( 91 - 91) =     17.99166  eV     1   --> A              
     e( 92 - 92) =     18.03612  eV     1   --> A              
     e( 93 - 93) =     18.16701  eV     1   --> A              
     e( 94 - 94) =     18.42788  eV     1   --> A              
     e( 95 - 95) =     19.35798  eV     1   --> A              
     e( 96 - 96) =     19.38319  eV     1   --> A              
     e( 97 - 97) =     19.41933  eV     1   --> A              
     e( 98 - 98) =     19.50777  eV     1   --> A              
     e( 99 - 99) =     19.57240  eV     1   --> A              
     e(100 -100) =     19.70289  eV     1   --> A              

 **************************************************************************

 **************************************************************************

                    xk=(   0.01429,   0.00824,   0.00000  )

     Band symmetry, C_1 (1)     point group:

     e(  1 -  1) =    -34.56769  eV     1   --> A              
     e(  2 -  2) =    -34.56753  eV     1   --> A              
     e(  3 -  3) =    -34.56200  eV     1   --> A              
     e(  4 -  4) =    -34.56188  eV     1   --> A              
     e(  5 -  5) =    -34.54090  eV     1   --> A              
     e(  6 -  6) =    -34.53944  eV     1   --> A              
     e(  7 -  7) =    -34.53504  eV     1   --> A              
     e(  8 -  8) =    -34.53407  eV     1   --> A              
     e(  9 -  9) =    -34.53005  eV     1   --> A              
     e( 10 - 10) =    -34.52446  eV     1   --> A              
     e( 11 - 11) =    -34.45886  eV     1   --> A              
     e( 12 - 12) =    -34.44690  eV     1   --> A              
     e( 13 - 13) =    -34.44661  eV     1   --> A              
     e( 14 - 15) =    -34.40771  eV     2   -->   2 A              
     e( 16 - 17) =    -27.31232  eV     2   -->   2 A              
     e( 18 - 19) =    -27.30921  eV     2   -->   2 A              
     e( 20 - 20) =    -27.30332  eV     1   --> A              
     e( 21 - 23) =    -27.30037  eV     3   -->   3 A              
     e( 24 - 25) =    -27.29728  eV     2   -->   2 A              
     e( 26 - 26) =    -10.60418  eV     1   --> A              
     e( 27 - 27) =    -10.06704  eV     1   --> A              
     e( 28 - 28) =     -8.97121  eV     1   --> A              
     e( 29 - 29) =     -6.19324  eV     1   --> A              
     e( 30 - 30) =     -4.74391  eV     1   --> A              
     e( 31 - 31) =     -0.11106  eV     1   --> A              
     e( 32 - 32) =      0.35137  eV     1   --> A              
     e( 33 - 33) =      0.37127  eV     1   --> A              
     e( 34 - 34) =      0.57198  eV     1   --> A              
     e( 35 - 35) =      0.59360  eV     1   --> A              
     e( 36 - 36) =      0.94270  eV     1   --> A              
     e( 37 - 37) =      1.18135  eV     1   --> A              
     e( 38 - 38) =      1.19687  eV     1   --> A              
     e( 39 - 39) =      1.51953  eV     1   --> A              
     e( 40 - 40) =      2.58284  eV     1   --> A              
     e( 41 - 41) =      2.97995  eV     1   --> A              
     e( 42 - 42) =      2.99731  eV     1   --> A              
     e( 43 - 43) =      4.04399  eV     1   --> A              
     e( 44 - 44) =      4.05623  eV     1   --> A              
     e( 45 - 45) =      4.06271  eV     1   --> A              
     e( 46 - 46) =      6.32953  eV     1   --> A              
     e( 47 - 47) =      6.52832  eV     1   --> A              
     e( 48 - 48) =      7.06928  eV     1   --> A              
     e( 49 - 49) =      7.76184  eV     1   --> A              
     e( 50 - 50) =      7.84622  eV     1   --> A              
     e( 51 - 51) =      7.86769  eV     1   --> A              
     e( 52 - 52) =      8.53723  eV     1   --> A              
     e( 53 - 53) =      8.80879  eV     1   --> A              
     e( 54 - 54) =      8.95394  eV     1   --> A              
     e( 55 - 55) =      9.17047  eV     1   --> A              
     e( 56 - 56) =      9.17591  eV     1   --> A              
     e( 57 - 57) =      9.83557  eV     1   --> A              
     e( 58 - 58) =      9.84726  eV     1   --> A              
     e( 59 - 59) =     10.16122  eV     1   --> A              
     e( 60 - 60) =     10.28731  eV     1   --> A              
     e( 61 - 61) =     10.67115  eV     1   --> A              
     e( 62 - 62) =     11.34804  eV     1   --> A              
     e( 63 - 63) =     11.35554  eV     1   --> A              
     e( 64 - 64) =     11.60570  eV     1   --> A              
     e( 65 - 65) =     11.81852  eV     1   --> A              
     e( 66 - 66) =     11.87189  eV     1   --> A              
     e( 67 - 67) =     12.91041  eV     1   --> A              
     e( 68 - 68) =     13.00274  eV     1   --> A              
     e( 69 - 69) =     14.13854  eV     1   --> A              
     e( 70 - 70) =     14.15361  eV     1   --> A              
     e( 71 - 71) =     14.42837  eV     1   --> A              
     e( 72 - 72) =     14.45600  eV     1   --> A              
     e( 73 - 73) =     14.57218  eV     1   --> A              
     e( 74 - 74) =     15.29353  eV     1   --> A              
     e( 75 - 75) =     16.05193  eV     1   --> A              
     e( 76 - 76) =     16.08356  eV     1   --> A              
     e( 77 - 77) =     16.17321  eV     1   --> A              
     e( 78 - 78) =     16.47384  eV     1   --> A              
     e( 79 - 79) =     16.48872  eV     1   --> A              
     e( 80 - 80) =     16.52865  eV     1   --> A              
     e( 81 - 81) =     16.92046  eV     1   --> A              
     e( 82 - 82) =     17.28463  eV     1   --> A              
     e( 83 - 83) =     17.38683  eV     1   --> A              
     e( 84 - 84) =     17.43202  eV     1   --> A              
     e( 85 - 85) =     17.60066  eV     1   --> A              
     e( 86 - 86) =     17.65530  eV     1   --> A              
     e( 87 - 87) =     17.71808  eV     1   --> A              
     e( 88 - 88) =     17.78868  eV     1   --> A              
     e( 89 - 89) =     17.81250  eV     1   --> A              
     e( 90 - 90) =     17.91757  eV     1   --> A              
     e( 91 - 91) =     18.06438  eV     1   --> A              
     e( 92 - 92) =     18.15339  eV     1   --> A              
     e( 93 - 93) =     18.22063  eV     1   --> A              
     e( 94 - 94) =     18.47596  eV     1   --> A              
     e( 95 - 95) =     19.24598  eV     1   --> A              
     e( 96 - 96) =     19.32569  eV     1   --> A              
     e( 97 - 97) =     19.34777  eV     1   --> A              
     e( 98 - 98) =     19.51017  eV     1   --> A              
     e( 99 - 99) =     19.59222  eV     1   --> A              
     e(100 -100) =     19.67286  eV     1   --> A              

 **************************************************************************

 **************************************************************************

                    xk=(   0.02143,   0.01237,   0.00000  )

     Band symmetry, C_1 (1)     point group:

     e(  1 -  1) =    -34.56769  eV     1   --> A              
     e(  2 -  2) =    -34.56753  eV     1   --> A              
     e(  3 -  3) =    -34.56200  eV     1   --> A              
     e(  4 -  4) =    -34.56188  eV     1   --> A              
     e(  5 -  5) =    -34.54090  eV     1   --> A              
     e(  6 -  6) =    -34.53944  eV     1   --> A              
     e(  7 -  7) =    -34.53504  eV     1   --> A              
     e(  8 -  8) =    -34.53407  eV     1   --> A              
     e(  9 -  9) =    -34.53005  eV     1   --> A              
     e( 10 - 10) =    -34.52446  eV     1   --> A              
     e( 11 - 11) =    -34.45886  eV     1   --> A              
     e( 12 - 12) =    -34.44690  eV     1   --> A              
     e( 13 - 13) =    -34.44661  eV     1   --> A              
     e( 14 - 15) =    -34.40771  eV     2   -->   2 A              
     e( 16 - 17) =    -27.31232  eV     2   -->   2 A              
     e( 18 - 19) =    -27.30921  eV     2   -->   2 A              
     e( 20 - 20) =    -27.30331  eV     1   --> A              
     e( 21 - 23) =    -27.30037  eV     3   -->   3 A              
     e( 24 - 25) =    -27.29729  eV     2   -->   2 A              
     e( 26 - 26) =    -10.60191  eV     1   --> A              
     e( 27 - 27) =    -10.06498  eV     1   --> A              
     e( 28 - 28) =     -8.96990  eV     1   --> A              
     e( 29 - 29) =     -6.19338  eV     1   --> A              
     e( 30 - 30) =     -4.74754  eV     1   --> A              
     e( 31 - 31) =     -0.11521  eV     1   --> A              
     e( 32 - 32) =      0.32139  eV     1   --> A              
     e( 33 - 33) =      0.36100  eV     1   --> A              
     e( 34 - 34) =      0.54527  eV     1   --> A              
     e( 35 - 35) =      0.59100  eV     1   --> A              
     e( 36 - 36) =      0.95519  eV     1   --> A              
     e( 37 - 37) =      1.16813  eV     1   --> A              
     e( 38 - 38) =      1.20009  eV     1   --> A              
     e( 39 - 39) =      1.54739  eV     1   --> A              
     e( 40 - 40) =      2.60929  eV     1   --> A              
     e( 41 - 41) =      2.96336  eV     1   --> A              
     e( 42 - 42) =      3.00170  eV     1   --> A              
     e( 43 - 43) =      4.04045  eV     1   --> A              
     e( 44 - 44) =      4.06021  eV     1   --> A              
     e( 45 - 45) =      4.08346  eV     1   --> A              
     e( 46 - 46) =      6.33377  eV     1   --> A              
     e( 47 - 47) =      6.52941  eV     1   --> A              
     e( 48 - 48) =      7.07042  eV     1   --> A              
     e( 49 - 49) =      7.76175  eV     1   --> A              
     e( 50 - 50) =      7.82481  eV     1   --> A              
     e( 51 - 51) =      7.87245  eV     1   --> A              
     e( 52 - 52) =      8.55405  eV     1   --> A              
     e( 53 - 53) =      8.80564  eV     1   --> A              
     e( 54 - 54) =      8.94050  eV     1   --> A              
     e( 55 - 55) =      9.16847  eV     1   --> A              
     e( 56 - 56) =      9.17707  eV     1   --> A              
     e( 57 - 57) =      9.84708  eV     1   --> A              
     e( 58 - 58) =      9.86590  eV     1   --> A              
     e( 59 - 59) =     10.16143  eV     1   --> A              
     e( 60 - 60) =     10.30305  eV     1   --> A              
     e( 61 - 61) =     10.68760  eV     1   --> A              
     e( 62 - 62) =     11.32848  eV     1   --> A              
     e( 63 - 63) =     11.33683  eV     1   --> A              
     e( 64 - 64) =     11.57138  eV     1   --> A              
     e( 65 - 65) =     11.84719  eV     1   --> A              
     e( 66 - 66) =     11.93132  eV     1   --> A              
     e( 67 - 67) =     12.91056  eV     1   --> A              
     e( 68 - 68) =     13.00992  eV     1   --> A              
     e( 69 - 69) =     14.08473  eV     1   --> A              
     e( 70 - 70) =     14.11417  eV     1   --> A              
     e( 71 - 71) =     14.43151  eV     1   --> A              
     e( 72 - 72) =     14.49641  eV     1   --> A              
     e( 73 - 73) =     14.61468  eV     1   --> A              
     e( 74 - 74) =     15.30984  eV     1   --> A              
     e( 75 - 75) =     15.98264  eV     1   --> A              
     e( 76 - 76) =     16.04424  eV     1   --> A              
     e( 77 - 77) =     16.16406  eV     1   --> A              
     e( 78 - 78) =     16.48113  eV     1   --> A              
     e( 79 - 79) =     16.53546  eV     1   --> A              
     e( 80 - 80) =     16.55257  eV     1   --> A              
     e( 81 - 81) =     16.95967  eV     1   --> A              
     e( 82 - 82) =     17.16635  eV     1   --> A              
     e( 83 - 83) =     17.36504  eV     1   --> A              
     e( 84 - 84) =     17.37190  eV     1   --> A              
     e( 85 - 85) =     17.54856  eV     1   --> A              
     e( 86 - 86) =     17.56791  eV     1   --> A              
     e( 87 - 87) =     17.67613  eV     1   --> A              
     e( 88 - 88) =     17.85144  eV     1   --> A              
     e( 89 - 89) =     17.87118  eV     1   --> A              
     e( 90 - 90) =     17.91685  eV     1   --> A              
     e( 91 - 91) =     18.14004  eV     1   --> A              
     e( 92 - 92) =     18.26223  eV     1   --> A              
     e( 93 - 93) =     18.29894  eV     1   --> A              
     e( 94 - 94) =     18.55159  eV     1   --> A              
     e( 95 - 95) =     19.12731  eV     1   --> A              
     e( 96 - 96) =     19.25181  eV     1   --> A              
     e( 97 - 97) =     19.26270  eV     1   --> A              
     e( 98 - 98) =     19.48222  eV     1   --> A              
     e( 99 - 99) =     19.55758  eV     1   --> A              
     e(100 -100) =     19.63275  eV     1   --> A              

 **************************************************************************

 **************************************************************************

                    xk=(   0.02857,   0.01649,   0.00000  )

     Band symmetry, C_1 (1)     point group:

     e(  1 -  1) =    -34.56768  eV     1   --> A              
     e(  2 -  2) =    -34.56753  eV     1   --> A              
     e(  3 -  3) =    -34.56200  eV     1   --> A              
     e(  4 -  4) =    -34.56188  eV     1   --> A              
     e(  5 -  5) =    -34.54090  eV     1   --> A              
     e(  6 -  6) =    -34.53944  eV     1   --> A              
     e(  7 -  7) =    -34.53504  eV     1   --> A              
     e(  8 -  8) =    -34.53407  eV     1   --> A              
     e(  9 -  9) =    -34.53005  eV     1   --> A              
     e( 10 - 10) =    -34.52446  eV     1   --> A              
     e( 11 - 11) =    -34.45886  eV     1   --> A              
     e( 12 - 12) =    -34.44690  eV     1   --> A              
     e( 13 - 13) =    -34.44661  eV     1   --> A              
     e( 14 - 15) =    -34.40771  eV     2   -->   2 A              
     e( 16 - 17) =    -27.31232  eV     2   -->   2 A              
     e( 18 - 19) =    -27.30921  eV     2   -->   2 A              
     e( 20 - 20) =    -27.30330  eV     1   --> A              
     e( 21 - 23) =    -27.30038  eV     3   -->   3 A              
     e( 24 - 25) =    -27.29729  eV     2   -->   2 A              
     e( 26 - 26) =    -10.59875  eV     1   --> A              
     e( 27 - 27) =    -10.06204  eV     1   --> A              
     e( 28 - 28) =     -8.96806  eV     1   --> A              
     e( 29 - 29) =     -6.19357  eV     1   --> A              
     e( 30 - 30) =     -4.75259  eV     1   --> A              
     e( 31 - 31) =     -0.12152  eV     1   --> A              
     e( 32 - 32) =      0.28316  eV     1   --> A              
     e( 33 - 33) =      0.34708  eV     1   --> A              
     e( 34 - 34) =      0.51104  eV     1   --> A              
     e( 35 - 35) =      0.58725  eV     1   --> A              
     e( 36 - 36) =      0.96248  eV     1   --> A              
     e( 37 - 37) =      1.15797  eV     1   --> A              
     e( 38 - 38) =      1.20447  eV     1   --> A              
     e( 39 - 39) =      1.58315  eV     1   --> A              
     e( 40 - 40) =      2.64270  eV     1   --> A              
     e( 41 - 41) =      2.94397  eV     1   --> A              
     e( 42 - 42) =      3.00781  eV     1   --> A              
     e( 43 - 43) =      4.03207  eV     1   --> A              
     e( 44 - 44) =      4.06602  eV     1   --> A              
     e( 45 - 45) =      4.11406  eV     1   --> A              
     e( 46 - 46) =      6.33966  eV     1   --> A              
     e( 47 - 47) =      6.53092  eV     1   --> A              
     e( 48 - 48) =      7.07188  eV     1   --> A              
     e( 49 - 49) =      7.75995  eV     1   --> A              
     e( 50 - 50) =      7.79875  eV     1   --> A              
     e( 51 - 51) =      7.87921  eV     1   --> A              
     e( 52 - 52) =      8.57534  eV     1   --> A              
     e( 53 - 53) =      8.79931  eV     1   --> A              
     e( 54 - 54) =      8.92400  eV     1   --> A              
     e( 55 - 55) =      9.16554  eV     1   --> A              
     e( 56 - 56) =      9.18202  eV     1   --> A              
     e( 57 - 57) =      9.86262  eV     1   --> A              
     e( 58 - 58) =      9.88626  eV     1   --> A              
     e( 59 - 59) =     10.16459  eV     1   --> A              
     e( 60 - 60) =     10.32482  eV     1   --> A              
     e( 61 - 61) =     10.71079  eV     1   --> A              
     e( 62 - 62) =     11.30354  eV     1   --> A              
     e( 63 - 63) =     11.30945  eV     1   --> A              
     e( 64 - 64) =     11.54680  eV     1   --> A              
     e( 65 - 65) =     11.88352  eV     1   --> A              
     e( 66 - 66) =     11.99321  eV     1   --> A              
     e( 67 - 67) =     12.91084  eV     1   --> A              
     e( 68 - 68) =     13.01996  eV     1   --> A              
     e( 69 - 69) =     14.02449  eV     1   --> A              
     e( 70 - 70) =     14.07099  eV     1   --> A              
     e( 71 - 71) =     14.43132  eV     1   --> A              
     e( 72 - 72) =     14.54092  eV     1   --> A              
     e( 73 - 73) =     14.66652  eV     1   --> A              
     e( 74 - 74) =     15.32310  eV     1   --> A              
     e( 75 - 75) =     15.91321  eV     1   --> A              
     e( 76 - 76) =     16.00084  eV     1   --> A              
     e( 77 - 77) =     16.15304  eV     1   --> A              
     e( 78 - 78) =     16.48182  eV     1   --> A              
     e( 79 - 79) =     16.57545  eV     1   --> A              
     e( 80 - 80) =     16.58962  eV     1   --> A              
     e( 81 - 81) =     17.00549  eV     1   --> A              
     e( 82 - 82) =     17.04466  eV     1   --> A              
     e( 83 - 83) =     17.31004  eV     1   --> A              
     e( 84 - 84) =     17.31170  eV     1   --> A              
     e( 85 - 85) =     17.47290  eV     1   --> A              
     e( 86 - 86) =     17.53295  eV     1   --> A              
     e( 87 - 87) =     17.61350  eV     1   --> A              
     e( 88 - 88) =     17.88960  eV     1   --> A              
     e( 89 - 89) =     17.91668  eV     1   --> A              
     e( 90 - 90) =     17.98772  eV     1   --> A              
     e( 91 - 91) =     18.21739  eV     1   --> A              
     e( 92 - 92) =     18.35665  eV     1   --> A              
     e( 93 - 93) =     18.39628  eV     1   --> A              
     e( 94 - 94) =     18.64844  eV     1   --> A              
     e( 95 - 95) =     19.01044  eV     1   --> A              
     e( 96 - 96) =     19.14291  eV     1   --> A              
     e( 97 - 97) =     19.19697  eV     1   --> A              
     e( 98 - 98) =     19.43664  eV     1   --> A              
     e( 99 - 99) =     19.51227  eV     1   --> A              
     e(100 -100) =     19.58079  eV     1   --> A              

 **************************************************************************

 **************************************************************************

                    xk=(   0.03571,   0.02061,   0.00000  )

     Band symmetry, C_1 (1)     point group:

     e(  1 -  1) =    -34.56768  eV     1   --> A              
     e(  2 -  2) =    -34.56753  eV     1   --> A              
     e(  3 -  3) =    -34.56200  eV     1   --> A              
     e(  4 -  4) =    -34.56187  eV     1   --> A              
     e(  5 -  5) =    -34.54090  eV     1   --> A              
     e(  6 -  6) =    -34.53944  eV     1   --> A              
     e(  7 -  7) =    -34.53504  eV     1   --> A              
     e(  8 -  8) =    -34.53407  eV     1   --> A              
     e(  9 -  9) =    -34.53005  eV     1   --> A              
     e( 10 - 10) =    -34.52446  eV     1   --> A              
     e( 11 - 11) =    -34.45885  eV     1   --> A              
     e( 12 - 12) =    -34.44690  eV     1   --> A              
     e( 13 - 13) =    -34.44661  eV     1   --> A              
     e( 14 - 15) =    -34.40771  eV     2   -->   2 A              
     e( 16 - 16) =    -27.31232  eV     1   --> A              
     e( 17 - 17) =    -27.31221  eV     1   --> A              
     e( 18 - 19) =    -27.30921  eV     2   -->   2 A              
     e( 20 - 20) =    -27.30330  eV     1   --> A              
     e( 21 - 23) =    -27.30039  eV     3   -->   3 A              
     e( 24 - 25) =    -27.29730  eV     2   -->   2 A              
     e( 26 - 26) =    -10.59470  eV     1   --> A              
     e( 27 - 27) =    -10.05828  eV     1   --> A              
     e( 28 - 28) =     -8.96568  eV     1   --> A              
     e( 29 - 29) =     -6.19385  eV     1   --> A              
     e( 30 - 30) =     -4.75912  eV     1   --> A              
     e( 31 - 31) =     -0.13057  eV     1   --> A              
     e( 32 - 32) =      0.23900  eV     1   --> A              
     e( 33 - 33) =      0.32989  eV     1   --> A              
     e( 34 - 34) =      0.47175  eV     1   --> A              
     e( 35 - 35) =      0.58215  eV     1   --> A              
     e( 36 - 36) =      0.95514  eV     1   --> A              
     e( 37 - 37) =      1.15974  eV     1   --> A              
     e( 38 - 38) =      1.20983  eV     1   --> A              
     e( 39 - 39) =      1.62415  eV     1   --> A              
     e( 40 - 40) =      2.67865  eV     1   --> A              
     e( 41 - 41) =      2.92643  eV     1   --> A              
     e( 42 - 42) =      3.01561  eV     1   --> A              
     e( 43 - 43) =      4.02100  eV     1   --> A              
     e( 44 - 44) =      4.07346  eV     1   --> A              
     e( 45 - 45) =      4.15132  eV     1   --> A              
     e( 46 - 46) =      6.34716  eV     1   --> A              
     e( 47 - 47) =      6.53284  eV     1   --> A              
     e( 48 - 48) =      7.07351  eV     1   --> A              
     e( 49 - 49) =      7.74792  eV     1   --> A              
     e( 50 - 50) =      7.77825  eV     1   --> A              
     e( 51 - 51) =      7.88789  eV     1   --> A              
     e( 52 - 52) =      8.59955  eV     1   --> A              
     e( 53 - 53) =      8.78739  eV     1   --> A              
     e( 54 - 54) =      8.90822  eV     1   --> A              
     e( 55 - 55) =      9.16215  eV     1   --> A              
     e( 56 - 56) =      9.19131  eV     1   --> A              
     e( 57 - 57) =      9.88173  eV     1   --> A              
     e( 58 - 58) =      9.90368  eV     1   --> A              
     e( 59 - 59) =     10.17373  eV     1   --> A              
     e( 60 - 60) =     10.35219  eV     1   --> A              
     e( 61 - 61) =     10.74075  eV     1   --> A              
     e( 62 - 62) =     11.26844  eV     1   --> A              
     e( 63 - 63) =     11.28154  eV     1   --> A              
     e( 64 - 64) =     11.53257  eV     1   --> A              
     e( 65 - 65) =     11.92546  eV     1   --> A              
     e( 66 - 66) =     12.05529  eV     1   --> A              
     e( 67 - 67) =     12.91134  eV     1   --> A              
     e( 68 - 68) =     13.03278  eV     1   --> A              
     e( 69 - 69) =     13.96153  eV     1   --> A              
     e( 70 - 70) =     14.02658  eV     1   --> A              
     e( 71 - 71) =     14.43099  eV     1   --> A              
     e( 72 - 72) =     14.58666  eV     1   --> A              
     e( 73 - 73) =     14.72298  eV     1   --> A              
     e( 74 - 74) =     15.32382  eV     1   --> A              
     e( 75 - 75) =     15.85559  eV     1   --> A              
     e( 76 - 76) =     15.95682  eV     1   --> A              
     e( 77 - 77) =     16.13976  eV     1   --> A              
     e( 78 - 78) =     16.48024  eV     1   --> A              
     e( 79 - 79) =     16.59313  eV     1   --> A              
     e( 80 - 80) =     16.64642  eV     1   --> A              
     e( 81 - 81) =     16.92440  eV     1   --> A              
     e( 82 - 82) =     17.03587  eV     1   --> A              
     e( 83 - 83) =     17.24100  eV     1   --> A              
     e( 84 - 84) =     17.24969  eV     1   --> A              
     e( 85 - 85) =     17.42464  eV     1   --> A              
     e( 86 - 86) =     17.50345  eV     1   --> A              
     e( 87 - 87) =     17.54873  eV     1   --> A              
     e( 88 - 88) =     17.90253  eV     1   --> A              
     e( 89 - 89) =     17.98780  eV     1   --> A              
     e( 90 - 90) =     18.07645  eV     1   --> A              
     e( 91 - 91) =     18.29609  eV     1   --> A              
     e( 92 - 92) =     18.43500  eV     1   --> A              
     e( 93 - 93) =     18.50594  eV     1   --> A              
     e( 94 - 94) =     18.75142  eV     1   --> A              
     e( 95 - 95) =     18.90870  eV     1   --> A              
     e( 96 - 96) =     19.02776  eV     1   --> A              
     e( 97 - 97) =     19.13110  eV     1   --> A              
     e( 98 - 98) =     19.38382  eV     1   --> A              
     e( 99 - 99) =     19.46618  eV     1   --> A              
     e(100 -100) =     19.52646  eV     1   --> A              

 **************************************************************************

 **************************************************************************

                    xk=(   0.04286,   0.02473,   0.00000  )

     Band symmetry, C_1 (1)     point group:

     e(  1 -  1) =    -34.56768  eV     1   --> A              
     e(  2 -  2) =    -34.56752  eV     1   --> A              
     e(  3 -  3) =    -34.56199  eV     1   --> A              
     e(  4 -  4) =    -34.56187  eV     1   --> A              
     e(  5 -  5) =    -34.54090  eV     1   --> A              
     e(  6 -  6) =    -34.53944  eV     1   --> A              
     e(  7 -  7) =    -34.53504  eV     1   --> A              
     e(  8 -  8) =    -34.53407  eV     1   --> A              
     e(  9 -  9) =    -34.53004  eV     1   --> A              
     e( 10 - 10) =    -34.52445  eV     1   --> A              
     e( 11 - 11) =    -34.45885  eV     1   --> A              
     e( 12 - 12) =    -34.44691  eV     1   --> A              
     e( 13 - 13) =    -34.44661  eV     1   --> A              
     e( 14 - 15) =    -34.40771  eV     2   -->   2 A              
     e( 16 - 16) =    -27.31231  eV     1   --> A              
     e( 17 - 17) =    -27.31219  eV     1   --> A              
     e( 18 - 18) =    -27.30921  eV     1   --> A              
     e( 19 - 19) =    -27.30909  eV     1   --> A              
     e( 20 - 20) =    -27.30328  eV     1   --> A              
     e( 21 - 22) =    -27.30041  eV     2   -->   2 A              
     e( 23 - 23) =    -27.30020  eV     1   --> A              
     e( 24 - 25) =    -27.29731  eV     2   -->   2 A              
     e( 26 - 26) =    -10.58974  eV     1   --> A              
     e( 27 - 27) =    -10.05370  eV     1   --> A              
     e( 28 - 28) =     -8.96278  eV     1   --> A              
     e( 29 - 29) =     -6.19419  eV     1   --> A              
     e( 30 - 30) =     -4.76710  eV     1   --> A              
     e( 31 - 31) =     -0.14321  eV     1   --> A              
     e( 32 - 32) =      0.19105  eV     1   --> A              
     e( 33 - 33) =      0.30981  eV     1   --> A              
     e( 34 - 34) =      0.42957  eV     1   --> A              
     e( 35 - 35) =      0.57553  eV     1   --> A              
     e( 36 - 36) =      0.92908  eV     1   --> A              
     e( 37 - 37) =      1.17747  eV     1   --> A              
     e( 38 - 38) =      1.21601  eV     1   --> A              
     e( 39 - 39) =      1.66769  eV     1   --> A              
     e( 40 - 40) =      2.70965  eV     1   --> A              
     e( 41 - 41) =      2.91865  eV     1   --> A              
     e( 42 - 42) =      3.02503  eV     1   --> A              
     e( 43 - 43) =      4.00788  eV     1   --> A              
     e( 44 - 44) =      4.08251  eV     1   --> A              
     e( 45 - 45) =      4.19353  eV     1   --> A              
     e( 46 - 46) =      6.35622  eV     1   --> A              
     e( 47 - 47) =      6.53515  eV     1   --> A              
     e( 48 - 48) =      7.07510  eV     1   --> A              
     e( 49 - 49) =      7.71734  eV     1   --> A              
     e( 50 - 50) =      7.77324  eV     1   --> A              
     e( 51 - 51) =      7.89846  eV     1   --> A              
     e( 52 - 52) =      8.62527  eV     1   --> A              
     e( 53 - 53) =      8.76779  eV     1   --> A              
     e( 54 - 54) =      8.89713  eV     1   --> A              
     e( 55 - 55) =      9.15884  eV     1   --> A              
     e( 56 - 56) =      9.20470  eV     1   --> A              
     e( 57 - 57) =      9.90386  eV     1   --> A              
     e( 58 - 58) =      9.91398  eV     1   --> A              
     e( 59 - 59) =     10.19201  eV     1   --> A              
     e( 60 - 60) =     10.38450  eV     1   --> A              
     e( 61 - 61) =     10.77736  eV     1   --> A              
     e( 62 - 62) =     11.22569  eV     1   --> A              
     e( 63 - 63) =     11.25559  eV     1   --> A              
     e( 64 - 64) =     11.52630  eV     1   --> A              
     e( 65 - 65) =     11.97144  eV     1   --> A              
     e( 66 - 66) =     12.11619  eV     1   --> A              
     e( 67 - 67) =     12.91219  eV     1   --> A              
     e( 68 - 68) =     13.04824  eV     1   --> A              
     e( 69 - 69) =     13.89816  eV     1   --> A              
     e( 70 - 70) =     13.98223  eV     1   --> A              
     e( 71 - 71) =     14.43294  eV     1   --> A              
     e( 72 - 72) =     14.63191  eV     1   --> A              
     e( 73 - 73) =     14.78095  eV     1   --> A              
     e( 74 - 74) =     15.30278  eV     1   --> A              
     e( 75 - 75) =     15.81820  eV     1   --> A              
     e( 76 - 76) =     15.91436  eV     1   --> A              
     e( 77 - 77) =     16.12511  eV     1   --> A              
     e( 78 - 78) =     16.47680  eV     1   --> A              
     e( 79 - 79) =     16.60271  eV     1   --> A              
     e( 80 - 80) =     16.70303  eV     1   --> A              
     e( 81 - 81) =     16.81183  eV     1   --> A              
     e( 82 - 82) =     17.00082  eV     1   --> A              
     e( 83 - 83) =     17.19216  eV     1   --> A              
     e( 84 - 84) =     17.21698  eV     1   --> A              
     e( 85 - 85) =     17.39049  eV     1   --> A              
     e( 86 - 86) =     17.47571  eV     1   --> A              
     e( 87 - 87) =     17.48509  eV     1   --> A              
     e( 88 - 88) =     17.93272  eV     1   --> A              
     e( 89 - 89) =     18.06137  eV     1   --> A              
     e( 90 - 90) =     18.16292  eV     1   --> A              
     e( 91 - 91) =     18.37594  eV     1   --> A              
     e( 92 - 92) =     18.49549  eV     1   --> A              
     e( 93 - 93) =     18.61104  eV     1   --> A              
     e( 94 - 94) =     18.77398  eV     1   --> A              
     e( 95 - 95) =     18.90579  eV     1   --> A              
     e( 96 - 96) =     18.92460  eV     1   --> A              
     e( 97 - 97) =     19.06553  eV     1   --> A              
     e( 98 - 98) =     19.32847  eV     1   --> A              
     e( 99 - 99) =     19.42301  eV     1   --> A              
     e(100 -100) =     19.47384  eV     1   --> A              

 **************************************************************************

 **************************************************************************

                    xk=(   0.05000,   0.02886,   0.00000  )

     Band symmetry, C_1 (1)     point group:

     e(  1 -  1) =    -34.56767  eV     1   --> A              
     e(  2 -  2) =    -34.56752  eV     1   --> A              
     e(  3 -  3) =    -34.56199  eV     1   --> A              
     e(  4 -  4) =    -34.56186  eV     1   --> A              
     e(  5 -  5) =    -34.54091  eV     1   --> A              
     e(  6 -  6) =    -34.53944  eV     1   --> A              
     e(  7 -  7) =    -34.53504  eV     1   --> A              
     e(  8 -  8) =    -34.53407  eV     1   --> A              
     e(  9 -  9) =    -34.53004  eV     1   --> A              
     e( 10 - 10) =    -34.52445  eV     1   --> A              
     e( 11 - 11) =    -34.45885  eV     1   --> A              
     e( 12 - 12) =    -34.44691  eV     1   --> A              
     e( 13 - 13) =    -34.44662  eV     1   --> A              
     e( 14 - 15) =    -34.40771  eV     2   -->   2 A              
     e( 16 - 16) =    -27.31231  eV     1   --> A              
     e( 17 - 17) =    -27.31216  eV     1   --> A              
     e( 18 - 18) =    -27.30921  eV     1   --> A              
     e( 19 - 19) =    -27.30907  eV     1   --> A              
     e( 20 - 20) =    -27.30327  eV     1   --> A              
     e( 21 - 22) =    -27.30042  eV     2   -->   2 A              
     e( 23 - 23) =    -27.30018  eV     1   --> A              
     e( 24 - 25) =    -27.29733  eV     2   -->   2 A              
     e( 26 - 26) =    -10.58387  eV     1   --> A              
     e( 27 - 27) =    -10.04826  eV     1   --> A              
     e( 28 - 28) =     -8.95932  eV     1   --> A              
     e( 29 - 29) =     -6.19460  eV     1   --> A              
     e( 30 - 30) =     -4.77655  eV     1   --> A              
     e( 31 - 31) =     -0.16066  eV     1   --> A              
     e( 32 - 32) =      0.14140  eV     1   --> A              
     e( 33 - 33) =      0.28720  eV     1   --> A              
     e( 34 - 34) =      0.38629  eV     1   --> A              
     e( 35 - 35) =      0.56732  eV     1   --> A              
     e( 36 - 36) =      0.88828  eV     1   --> A              
     e( 37 - 37) =      1.20736  eV     1   --> A              
     e( 38 - 38) =      1.22288  eV     1   --> A              
     e( 39 - 39) =      1.71116  eV     1   --> A              
     e( 40 - 40) =      2.72586  eV     1   --> A              
     e( 41 - 41) =      2.93103  eV     1   --> A              
     e( 42 - 42) =      3.03601  eV     1   --> A              
     e( 43 - 43) =      3.99322  eV     1   --> A              
     e( 44 - 44) =      4.09313  eV     1   --> A              
     e( 45 - 45) =      4.23933  eV     1   --> A              
     e( 46 - 46) =      6.36676  eV     1   --> A              
     e( 47 - 47) =      6.53782  eV     1   --> A              
     e( 48 - 48) =      7.07637  eV     1   --> A              
     e( 49 - 49) =      7.68025  eV     1   --> A              
     e( 50 - 50) =      7.77308  eV     1   --> A              
     e( 51 - 51) =      7.91088  eV     1   --> A              
     e( 52 - 52) =      8.65118  eV     1   --> A              
     e( 53 - 53) =      8.74102  eV     1   --> A              
     e( 54 - 54) =      8.89215  eV     1   --> A              
     e( 55 - 55) =      9.15605  eV     1   --> A              
     e( 56 - 56) =      9.22175  eV     1   --> A              
     e( 57 - 57) =      9.91496  eV     1   --> A              
     e( 58 - 58) =      9.92855  eV     1   --> A              
     e( 59 - 59) =     10.22111  eV     1   --> A              
     e( 60 - 60) =     10.42087  eV     1   --> A              
     e( 61 - 61) =     10.82019  eV     1   --> A              
     e( 62 - 62) =     11.18088  eV     1   --> A              
     e( 63 - 63) =     11.23094  eV     1   --> A              
     e( 64 - 64) =     11.52518  eV     1   --> A              
     e( 65 - 65) =     12.02028  eV     1   --> A              
     e( 66 - 66) =     12.17488  eV     1   --> A              
     e( 67 - 67) =     12.91362  eV     1   --> A              
     e( 68 - 68) =     13.06605  eV     1   --> A              
     e( 69 - 69) =     13.83620  eV     1   --> A              
     e( 70 - 70) =     13.93876  eV     1   --> A              
     e( 71 - 71) =     14.43876  eV     1   --> A              
     e( 72 - 72) =     14.67533  eV     1   --> A              
     e( 73 - 73) =     14.83741  eV     1   --> A              
     e( 74 - 74) =     15.25794  eV     1   --> A              
     e( 75 - 75) =     15.80098  eV     1   --> A              
     e( 76 - 76) =     15.87507  eV     1   --> A              
     e( 77 - 77) =     16.11132  eV     1   --> A              
     e( 78 - 78) =     16.46709  eV     1   --> A              
     e( 79 - 79) =     16.59602  eV     1   --> A              
     e( 80 - 80) =     16.71852  eV     1   --> A              
     e( 81 - 81) =     16.75522  eV     1   --> A              
     e( 82 - 82) =     16.91364  eV     1   --> A              
     e( 83 - 83) =     17.14080  eV     1   --> A              
     e( 84 - 84) =     17.22321  eV     1   --> A              
     e( 85 - 85) =     17.37445  eV     1   --> A              
     e( 86 - 86) =     17.42309  eV     1   --> A              
     e( 87 - 87) =     17.45471  eV     1   --> A              
     e( 88 - 88) =     17.97869  eV     1   --> A              
     e( 89 - 89) =     18.13616  eV     1   --> A              
     e( 90 - 90) =     18.24403  eV     1   --> A              
     e( 91 - 91) =     18.45673  eV     1   --> A              
     e( 92 - 92) =     18.51018  eV     1   --> A              
     e( 93 - 93) =     18.66740  eV     1   --> A              
     e( 94 - 94) =     18.74803  eV     1   --> A              
     e( 95 - 95) =     18.84515  eV     1   --> A              
     e( 96 - 96) =     19.00063  eV     1   --> A              
     e( 97 - 97) =     19.02547  eV     1   --> A              
     e( 98 - 98) =     19.27284  eV     1   --> A              
     e( 99 - 99) =     19.38556  eV     1   --> A              
     e(100 -100) =     19.42934  eV     1   --> A              

 **************************************************************************

 **************************************************************************

                    xk=(   0.05714,   0.03298,   0.00000  )

     Band symmetry, C_1 (1)     point group:

     e(  1 -  1) =    -34.56767  eV     1   --> A              
     e(  2 -  2) =    -34.56751  eV     1   --> A              
     e(  3 -  3) =    -34.56198  eV     1   --> A              
     e(  4 -  4) =    -34.56186  eV     1   --> A              
     e(  5 -  5) =    -34.54091  eV     1   --> A              
     e(  6 -  6) =    -34.53944  eV     1   --> A              
     e(  7 -  7) =    -34.53505  eV     1   --> A              
     e(  8 -  8) =    -34.53408  eV     1   --> A              
     e(  9 -  9) =    -34.53003  eV     1   --> A              
     e( 10 - 10) =    -34.52444  eV     1   --> A              
     e( 11 - 11) =    -34.45884  eV     1   --> A              
     e( 12 - 12) =    -34.44691  eV     1   --> A              
     e( 13 - 13) =    -34.44662  eV     1   --> A              
     e( 14 - 15) =    -34.40770  eV     2   -->   2 A              
     e( 16 - 16) =    -27.31231  eV     1   --> A              
     e( 17 - 17) =    -27.31214  eV     1   --> A              
     e( 18 - 18) =    -27.30921  eV     1   --> A              
     e( 19 - 19) =    -27.30904  eV     1   --> A              
     e( 20 - 20) =    -27.30325  eV     1   --> A              
     e( 21 - 21) =    -27.30045  eV     1   --> A              
     e( 22 - 22) =    -27.30034  eV     1   --> A              
     e( 23 - 23) =    -27.30017  eV     1   --> A              
     e( 24 - 25) =    -27.29735  eV     2   -->   2 A              
     e( 26 - 26) =    -10.57711  eV     1   --> A              
     e( 27 - 27) =    -10.04201  eV     1   --> A              
     e( 28 - 28) =     -8.95537  eV     1   --> A              
     e( 29 - 29) =     -6.19513  eV     1   --> A              
     e( 30 - 30) =     -4.78748  eV     1   --> A              
     e( 31 - 31) =     -0.18448  eV     1   --> A              
     e( 32 - 32) =      0.09217  eV     1   --> A              
     e( 33 - 33) =      0.26241  eV     1   --> A              
     e( 34 - 34) =      0.34328  eV     1   --> A              
     e( 35 - 35) =      0.55746  eV     1   --> A              
     e( 36 - 36) =      0.83826  eV     1   --> A              
     e( 37 - 37) =      1.22972  eV     1   --> A              
     e( 38 - 38) =      1.24486  eV     1   --> A              
     e( 39 - 39) =      1.75195  eV     1   --> A              
     e( 40 - 40) =      2.72480  eV     1   --> A              
     e( 41 - 41) =      2.96686  eV     1   --> A              
     e( 42 - 42) =      3.04851  eV     1   --> A              
     e( 43 - 43) =      3.97757  eV     1   --> A              
     e( 44 - 44) =      4.10530  eV     1   --> A              
     e( 45 - 45) =      4.28754  eV     1   --> A              
     e( 46 - 46) =      6.37871  eV     1   --> A              
     e( 47 - 47) =      6.54083  eV     1   --> A              
     e( 48 - 48) =      7.07694  eV     1   --> A              
     e( 49 - 49) =      7.64179  eV     1   --> A              
     e( 50 - 50) =      7.77395  eV     1   --> A              
     e( 51 - 51) =      7.92511  eV     1   --> A              
     e( 52 - 52) =      8.67465  eV     1   --> A              
     e( 53 - 53) =      8.71149  eV     1   --> A              
     e( 54 - 54) =      8.89194  eV     1   --> A              
     e( 55 - 55) =      9.15418  eV     1   --> A              
     e( 56 - 56) =      9.24208  eV     1   --> A              
     e( 57 - 57) =      9.90740  eV     1   --> A              
     e( 58 - 58) =      9.95500  eV     1   --> A              
     e( 59 - 59) =     10.26053  eV     1   --> A              
     e( 60 - 60) =     10.46025  eV     1   --> A              
     e( 61 - 61) =     10.86805  eV     1   --> A              
     e( 62 - 62) =     11.13775  eV     1   --> A              
     e( 63 - 63) =     11.20834  eV     1   --> A              
     e( 64 - 64) =     11.52708  eV     1   --> A              
     e( 65 - 65) =     12.07108  eV     1   --> A              
     e( 66 - 66) =     12.23043  eV     1   --> A              
     e( 67 - 67) =     12.91597  eV     1   --> A              
     e( 68 - 68) =     13.08563  eV     1   --> A              
     e( 69 - 69) =     13.77747  eV     1   --> A              
     e( 70 - 70) =     13.89674  eV     1   --> A              
     e( 71 - 71) =     14.44941  eV     1   --> A              
     e( 72 - 72) =     14.71568  eV     1   --> A              
     e( 73 - 73) =     14.88653  eV     1   --> A              
     e( 74 - 74) =     15.19897  eV     1   --> A              
     e( 75 - 75) =     15.79343  eV     1   --> A              
     e( 76 - 76) =     15.84032  eV     1   --> A              
     e( 77 - 77) =     16.10157  eV     1   --> A              
     e( 78 - 78) =     16.43527  eV     1   --> A              
     e( 79 - 79) =     16.56802  eV     1   --> A              
     e( 80 - 80) =     16.65301  eV     1   --> A              
     e( 81 - 81) =     16.79578  eV     1   --> A              
     e( 82 - 82) =     16.83301  eV     1   --> A              
     e( 83 - 83) =     17.10078  eV     1   --> A              
     e( 84 - 84) =     17.20969  eV     1   --> A              
     e( 85 - 85) =     17.35813  eV     1   --> A              
     e( 86 - 86) =     17.36601  eV     1   --> A              
     e( 87 - 87) =     17.46791  eV     1   --> A              
     e( 88 - 88) =     18.03272  eV     1   --> A              
     e( 89 - 89) =     18.21139  eV     1   --> A              
     e( 90 - 90) =     18.30803  eV     1   --> A              
     e( 91 - 91) =     18.46619  eV     1   --> A              
     e( 92 - 92) =     18.53832  eV     1   --> A              
     e( 93 - 93) =     18.64132  eV     1   --> A              
     e( 94 - 94) =     18.72422  eV     1   --> A              
     e( 95 - 95) =     18.92468  eV     1   --> A              
     e( 96 - 96) =     18.93695  eV     1   --> A              
     e( 97 - 97) =     19.12481  eV     1   --> A              
     e( 98 - 98) =     19.21831  eV     1   --> A              
     e( 99 - 99) =     19.34953  eV     1   --> A              
     e(100 -100) =     19.41698  eV     1   --> A              

 **************************************************************************

 **************************************************************************

                    xk=(   0.06429,   0.03710,   0.00000  )

     Band symmetry, C_1 (1)     point group:

     e(  1 -  1) =    -34.56766  eV     1   --> A              
     e(  2 -  2) =    -34.56750  eV     1   --> A              
     e(  3 -  3) =    -34.56198  eV     1   --> A              
     e(  4 -  4) =    -34.56185  eV     1   --> A              
     e(  5 -  5) =    -34.54091  eV     1   --> A              
     e(  6 -  6) =    -34.53944  eV     1   --> A              
     e(  7 -  7) =    -34.53505  eV     1   --> A              
     e(  8 -  8) =    -34.53408  eV     1   --> A              
     e(  9 -  9) =    -34.53002  eV     1   --> A              
     e( 10 - 10) =    -34.52444  eV     1   --> A              
     e( 11 - 11) =    -34.45884  eV     1   --> A              
     e( 12 - 12) =    -34.44691  eV     1   --> A              
     e( 13 - 13) =    -34.44662  eV     1   --> A              
     e( 14 - 15) =    -34.40770  eV     2   -->   2 A              
     e( 16 - 16) =    -27.31232  eV     1   --> A              
     e( 17 - 17) =    -27.31210  eV     1   --> A              
     e( 18 - 18) =    -27.30921  eV     1   --> A              
     e( 19 - 19) =    -27.30900  eV     1   --> A              
     e( 20 - 20) =    -27.30324  eV     1   --> A              
     e( 21 - 21) =    -27.30047  eV     1   --> A              
     e( 22 - 22) =    -27.30034  eV     1   --> A              
     e( 23 - 23) =    -27.30015  eV     1   --> A              
     e( 24 - 24) =    -27.29737  eV     1   --> A              
     e( 25 - 25) =    -27.29726  eV     1   --> A              
     e( 26 - 26) =    -10.56945  eV     1   --> A              
     e( 27 - 27) =    -10.03496  eV     1   --> A              
     e( 28 - 28) =     -8.95095  eV     1   --> A              
     e( 29 - 29) =     -6.19578  eV     1   --> A              
     e( 30 - 30) =     -4.79986  eV     1   --> A              
     e( 31 - 31) =     -0.21632  eV     1   --> A              
     e( 32 - 32) =      0.04538  eV     1   --> A              
     e( 33 - 33) =      0.23573  eV     1   --> A              
     e( 34 - 34) =      0.30158  eV     1   --> A              
     e( 35 - 35) =      0.54596  eV     1   --> A              
     e( 36 - 36) =      0.78278  eV     1   --> A              
     e( 37 - 37) =      1.23721  eV     1   --> A              
     e( 38 - 38) =      1.28582  eV     1   --> A              
     e( 39 - 39) =      1.78748  eV     1   --> A              
     e( 40 - 40) =      2.71483  eV     1   --> A              
     e( 41 - 41) =      3.01865  eV     1   --> A              
     e( 42 - 42) =      3.06248  eV     1   --> A              
     e( 43 - 43) =      3.96158  eV     1   --> A              
     e( 44 - 44) =      4.11897  eV     1   --> A              
     e( 45 - 45) =      4.33721  eV     1   --> A              
     e( 46 - 46) =      6.39197  eV     1   --> A              
     e( 47 - 47) =      6.54411  eV     1   --> A              
     e( 48 - 48) =      7.07637  eV     1   --> A              
     e( 49 - 49) =      7.60392  eV     1   --> A              
     e( 50 - 50) =      7.77514  eV     1   --> A              
     e( 51 - 51) =      7.94112  eV     1   --> A              
     e( 52 - 52) =      8.66877  eV     1   --> A              
     e( 53 - 53) =      8.70847  eV     1   --> A              
     e( 54 - 54) =      8.89442  eV     1   --> A              
     e( 55 - 55) =      9.15360  eV     1   --> A              
     e( 56 - 56) =      9.26548  eV     1   --> A              
     e( 57 - 57) =      9.89331  eV     1   --> A              
     e( 58 - 58) =      9.98270  eV     1   --> A              
     e( 59 - 59) =     10.30849  eV     1   --> A              
     e( 60 - 60) =     10.50153  eV     1   --> A              
     e( 61 - 61) =     10.91749  eV     1   --> A              
     e( 62 - 62) =     11.10125  eV     1   --> A              
     e( 63 - 63) =     11.18854  eV     1   --> A              
     e( 64 - 64) =     11.53060  eV     1   --> A              
     e( 65 - 65) =     12.12307  eV     1   --> A              
     e( 66 - 66) =     12.28201  eV     1   --> A              
     e( 67 - 67) =     12.91966  eV     1   --> A              
     e( 68 - 68) =     13.10601  eV     1   --> A              
     e( 69 - 69) =     13.72396  eV     1   --> A              
     e( 70 - 70) =     13.85669  eV     1   --> A              
     e( 71 - 71) =     14.46537  eV     1   --> A              
     e( 72 - 72) =     14.75171  eV     1   --> A              
     e( 73 - 73) =     14.91222  eV     1   --> A              
     e( 74 - 74) =     15.14927  eV     1   --> A              
     e( 75 - 75) =     15.78150  eV     1   --> A              
     e( 76 - 76) =     15.81145  eV     1   --> A              
     e( 77 - 77) =     16.09665  eV     1   --> A              
     e( 78 - 78) =     16.37006  eV     1   --> A              
     e( 79 - 79) =     16.55010  eV     1   --> A              
     e( 80 - 80) =     16.57460  eV     1   --> A              
     e( 81 - 81) =     16.79809  eV     1   --> A              
     e( 82 - 82) =     16.81391  eV     1   --> A              
     e( 83 - 83) =     17.07950  eV     1   --> A              
     e( 84 - 84) =     17.18201  eV     1   --> A              
     e( 85 - 85) =     17.31455  eV     1   --> A              
     e( 86 - 86) =     17.32376  eV     1   --> A              
     e( 87 - 87) =     17.52056  eV     1   --> A              
     e( 88 - 88) =     18.07685  eV     1   --> A              
     e( 89 - 89) =     18.28629  eV     1   --> A              
     e( 90 - 90) =     18.31428  eV     1   --> A              
     e( 91 - 91) =     18.44160  eV     1   --> A              
     e( 92 - 92) =     18.55800  eV     1   --> A              
     e( 93 - 93) =     18.61976  eV     1   --> A              
     e( 94 - 94) =     18.77411  eV     1   --> A              
     e( 95 - 95) =     18.87511  eV     1   --> A              
     e( 96 - 96) =     19.02622  eV     1   --> A              
     e( 97 - 97) =     19.16599  eV     1   --> A              
     e( 98 - 98) =     19.18911  eV     1   --> A              
     e( 99 - 99) =     19.31443  eV     1   --> A              
     e(100 -100) =     19.46988  eV     1   --> A              

 **************************************************************************

 **************************************************************************

                    xk=(   0.07143,   0.04122,   0.00000  )

     Band symmetry, C_1 (1)     point group:

     e(  1 -  1) =    -34.56765  eV     1   --> A              
     e(  2 -  2) =    -34.56750  eV     1   --> A              
     e(  3 -  3) =    -34.56197  eV     1   --> A              
     e(  4 -  4) =    -34.56184  eV     1   --> A              
     e(  5 -  5) =    -34.54091  eV     1   --> A              
     e(  6 -  6) =    -34.53945  eV     1   --> A              
     e(  7 -  7) =    -34.53505  eV     1   --> A              
     e(  8 -  8) =    -34.53408  eV     1   --> A              
     e(  9 -  9) =    -34.53002  eV     1   --> A              
     e( 10 - 10) =    -34.52443  eV     1   --> A              
     e( 11 - 11) =    -34.45883  eV     1   --> A              
     e( 12 - 12) =    -34.44692  eV     1   --> A              
     e( 13 - 13) =    -34.44662  eV     1   --> A              
     e( 14 - 15) =    -34.40770  eV     2   -->   2 A              
     e( 16 - 16) =    -27.31232  eV     1   --> A              
     e( 17 - 17) =    -27.31207  eV     1   --> A              
     e( 18 - 18) =    -27.30921  eV     1   --> A              
     e( 19 - 19) =    -27.30896  eV     1   --> A              
     e( 20 - 20) =    -27.30322  eV     1   --> A              
     e( 21 - 21) =    -27.30050  eV     1   --> A              
     e( 22 - 22) =    -27.30035  eV     1   --> A              
     e( 23 - 23) =    -27.30013  eV     1   --> A              
     e( 24 - 24) =    -27.29740  eV     1   --> A              
     e( 25 - 25) =    -27.29727  eV     1   --> A              
     e( 26 - 26) =    -10.56091  eV     1   --> A              
     e( 27 - 27) =    -10.02709  eV     1   --> A              
     e( 28 - 28) =     -8.94602  eV     1   --> A              
     e( 29 - 29) =     -6.19656  eV     1   --> A              
     e( 30 - 30) =     -4.81373  eV     1   --> A              
     e( 31 - 31) =     -0.25730  eV     1   --> A              
     e( 32 - 32) =      0.00236  eV     1   --> A              
     e( 33 - 33) =      0.20744  eV     1   --> A              
     e( 34 - 34) =      0.26188  eV     1   --> A              
     e( 35 - 35) =      0.53285  eV     1   --> A              
     e( 36 - 36) =      0.72427  eV     1   --> A              
     e( 37 - 37) =      1.24461  eV     1   --> A              
     e( 38 - 38) =      1.32892  eV     1   --> A              
     e( 39 - 39) =      1.81523  eV     1   --> A              
     e( 40 - 40) =      2.70485  eV     1   --> A              
     e( 41 - 41) =      3.07486  eV     1   --> A              
     e( 42 - 42) =      3.08151  eV     1   --> A              
     e( 43 - 43) =      3.94609  eV     1   --> A              
     e( 44 - 44) =      4.13412  eV     1   --> A              
     e( 45 - 45) =      4.38752  eV     1   --> A              
     e( 46 - 46) =      6.40643  eV     1   --> A              
     e( 47 - 47) =      6.54762  eV     1   --> A              
     e( 48 - 48) =      7.07409  eV     1   --> A              
     e( 49 - 49) =      7.56808  eV     1   --> A              
     e( 50 - 50) =      7.77645  eV     1   --> A              
     e( 51 - 51) =      7.95885  eV     1   --> A              
     e( 52 - 52) =      8.63694  eV     1   --> A              
     e( 53 - 53) =      8.73040  eV     1   --> A              
     e( 54 - 54) =      8.89775  eV     1   --> A              
     e( 55 - 55) =      9.15464  eV     1   --> A              
     e( 56 - 56) =      9.29189  eV     1   --> A              
     e( 57 - 57) =      9.87504  eV     1   --> A              
     e( 58 - 58) =     10.01103  eV     1   --> A              
     e( 59 - 59) =     10.36308  eV     1   --> A              
     e( 60 - 60) =     10.54356  eV     1   --> A              
     e( 61 - 61) =     10.95678  eV     1   --> A              
     e( 62 - 62) =     11.08424  eV     1   --> A              
     e( 63 - 63) =     11.17225  eV     1   --> A              
     e( 64 - 64) =     11.53490  eV     1   --> A              
     e( 65 - 65) =     12.17558  eV     1   --> A              
     e( 66 - 66) =     12.32879  eV     1   --> A              
     e( 67 - 67) =     12.92524  eV     1   --> A              
     e( 68 - 68) =     13.12569  eV     1   --> A              
     e( 69 - 69) =     13.67808  eV     1   --> A              
     e( 70 - 70) =     13.81908  eV     1   --> A              
     e( 71 - 71) =     14.48656  eV     1   --> A              
     e( 72 - 72) =     14.78213  eV     1   --> A              
     e( 73 - 73) =     14.88609  eV     1   --> A              
     e( 74 - 74) =     15.14331  eV     1   --> A              
     e( 75 - 75) =     15.75561  eV     1   --> A              
     e( 76 - 76) =     15.78971  eV     1   --> A              
     e( 77 - 77) =     16.08576  eV     1   --> A              
     e( 78 - 78) =     16.30318  eV     1   --> A              
     e( 79 - 79) =     16.46848  eV     1   --> A              
     e( 80 - 80) =     16.54885  eV     1   --> A              
     e( 81 - 81) =     16.80087  eV     1   --> A              
     e( 82 - 82) =     16.80380  eV     1   --> A              
     e( 83 - 83) =     17.07525  eV     1   --> A              
     e( 84 - 84) =     17.15292  eV     1   --> A              
     e( 85 - 85) =     17.27883  eV     1   --> A              
     e( 86 - 86) =     17.28254  eV     1   --> A              
     e( 87 - 87) =     17.58665  eV     1   --> A              
     e( 88 - 88) =     18.06955  eV     1   --> A              
     e( 89 - 89) =     18.30366  eV     1   --> A              
     e( 90 - 90) =     18.35988  eV     1   --> A              
     e( 91 - 91) =     18.37618  eV     1   --> A              
     e( 92 - 92) =     18.57733  eV     1   --> A              
     e( 93 - 93) =     18.69739  eV     1   --> A              
     e( 94 - 94) =     18.81883  eV     1   --> A              
     e( 95 - 95) =     18.82392  eV     1   --> A              
     e( 96 - 96) =     19.08790  eV     1   --> A              
     e( 97 - 97) =     19.11741  eV     1   --> A              
     e( 98 - 98) =     19.22644  eV     1   --> A              
     e( 99 - 99) =     19.31700  eV     1   --> A              
     e(100 -100) =     19.57752  eV     1   --> A              

 **************************************************************************

 **************************************************************************

                    xk=(   0.07857,   0.04535,   0.00000  )

     Band symmetry, C_1 (1)     point group:

     e(  1 -  1) =    -34.56765  eV     1   --> A              
     e(  2 -  2) =    -34.56749  eV     1   --> A              
     e(  3 -  3) =    -34.56197  eV     1   --> A              
     e(  4 -  4) =    -34.56183  eV     1   --> A              
     e(  5 -  5) =    -34.54091  eV     1   --> A              
     e(  6 -  6) =    -34.53945  eV     1   --> A              
     e(  7 -  7) =    -34.53505  eV     1   --> A              
     e(  8 -  8) =    -34.53408  eV     1   --> A              
     e(  9 -  9) =    -34.53001  eV     1   --> A              
     e( 10 - 10) =    -34.52442  eV     1   --> A              
     e( 11 - 11) =    -34.45882  eV     1   --> A              
     e( 12 - 12) =    -34.44692  eV     1   --> A              
     e( 13 - 13) =    -34.44662  eV     1   --> A              
     e( 14 - 15) =    -34.40770  eV     2   -->   2 A              
     e( 16 - 16) =    -27.31232  eV     1   --> A              
     e( 17 - 17) =    -27.31202  eV     1   --> A              
     e( 18 - 18) =    -27.30922  eV     1   --> A              
     e( 19 - 19) =    -27.30892  eV     1   --> A              
     e( 20 - 20) =    -27.30320  eV     1   --> A              
     e( 21 - 21) =    -27.30053  eV     1   --> A              
     e( 22 - 22) =    -27.30036  eV     1   --> A              
     e( 23 - 23) =    -27.30011  eV     1   --> A              
     e( 24 - 24) =    -27.29743  eV     1   --> A              
     e( 25 - 25) =    -27.29728  eV     1   --> A              
     e( 26 - 26) =    -10.55148  eV     1   --> A              
     e( 27 - 27) =    -10.01838  eV     1   --> A              
     e( 28 - 28) =     -8.94058  eV     1   --> A              
     e( 29 - 29) =     -6.19750  eV     1   --> A              
     e( 30 - 30) =     -4.82904  eV     1   --> A              
     e( 31 - 31) =     -0.30735  eV     1   --> A              
     e( 32 - 32) =     -0.03678  eV     1   --> A              
     e( 33 - 33) =      0.17778  eV     1   --> A              
     e( 34 - 34) =      0.22452  eV     1   --> A              
     e( 35 - 35) =      0.51821  eV     1   --> A              
     e( 36 - 36) =      0.66447  eV     1   --> A              
     e( 37 - 37) =      1.25183  eV     1   --> A              
     e( 38 - 38) =      1.37299  eV     1   --> A              
     e( 39 - 39) =      1.83296  eV     1   --> A              
     e( 40 - 40) =      2.70036  eV     1   --> A              
     e( 41 - 41) =      3.09358  eV     1   --> A              
     e( 42 - 42) =      3.14253  eV     1   --> A              
     e( 43 - 43) =      3.93217  eV     1   --> A              
     e( 44 - 44) =      4.15068  eV     1   --> A              
     e( 45 - 45) =      4.43777  eV     1   --> A              
     e( 46 - 46) =      6.42197  eV     1   --> A              
     e( 47 - 47) =      6.55126  eV     1   --> A              
     e( 48 - 48) =      7.06951  eV     1   --> A              
     e( 49 - 49) =      7.53556  eV     1   --> A              
     e( 50 - 50) =      7.77783  eV     1   --> A              
     e( 51 - 51) =      7.97829  eV     1   --> A              
     e( 52 - 52) =      8.60486  eV     1   --> A              
     e( 53 - 53) =      8.75303  eV     1   --> A              
     e( 54 - 54) =      8.90039  eV     1   --> A              
     e( 55 - 55) =      9.15760  eV     1   --> A              
     e( 56 - 56) =      9.32134  eV     1   --> A              
     e( 57 - 57) =      9.85457  eV     1   --> A              
     e( 58 - 58) =     10.03935  eV     1   --> A              
     e( 59 - 59) =     10.42258  eV     1   --> A              
     e( 60 - 60) =     10.58505  eV     1   --> A              
     e( 61 - 61) =     10.96388  eV     1   --> A              
     e( 62 - 62) =     11.10973  eV     1   --> A              
     e( 63 - 63) =     11.16016  eV     1   --> A              
     e( 64 - 64) =     11.53949  eV     1   --> A              
     e( 65 - 65) =     12.22795  eV     1   --> A              
     e( 66 - 66) =     12.37002  eV     1   --> A              
     e( 67 - 67) =     12.93318  eV     1   --> A              
     e( 68 - 68) =     13.14271  eV     1   --> A              
     e( 69 - 69) =     13.64268  eV     1   --> A              
     e( 70 - 70) =     13.78440  eV     1   --> A              
     e( 71 - 71) =     14.51193  eV     1   --> A              
     e( 72 - 72) =     14.80528  eV     1   --> A              
     e( 73 - 73) =     14.81489  eV     1   --> A              
     e( 74 - 74) =     15.17956  eV     1   --> A              
     e( 75 - 75) =     15.71294  eV     1   --> A              
     e( 76 - 76) =     15.77630  eV     1   --> A              
     e( 77 - 77) =     16.04288  eV     1   --> A              
     e( 78 - 78) =     16.27503  eV     1   --> A              
     e( 79 - 79) =     16.35414  eV     1   --> A              
     e( 80 - 80) =     16.55086  eV     1   --> A              
     e( 81 - 81) =     16.76844  eV     1   --> A              
     e( 82 - 82) =     16.82230  eV     1   --> A              
     e( 83 - 83) =     17.06602  eV     1   --> A              
     e( 84 - 84) =     17.12706  eV     1   --> A              
     e( 85 - 85) =     17.24018  eV     1   --> A              
     e( 86 - 86) =     17.27686  eV     1   --> A              
     e( 87 - 87) =     17.65323  eV     1   --> A              
     e( 88 - 88) =     18.00150  eV     1   --> A              
     e( 89 - 89) =     18.24539  eV     1   --> A              
     e( 90 - 90) =     18.36901  eV     1   --> A              
     e( 91 - 91) =     18.43044  eV     1   --> A              
     e( 92 - 92) =     18.65122  eV     1   --> A              
     e( 93 - 93) =     18.72757  eV     1   --> A              
     e( 94 - 94) =     18.81149  eV     1   --> A              
     e( 95 - 95) =     18.85986  eV     1   --> A              
     e( 96 - 96) =     19.07470  eV     1   --> A              
     e( 97 - 97) =     19.09857  eV     1   --> A              
     e( 98 - 98) =     19.23108  eV     1   --> A              
     e( 99 - 99) =     19.40812  eV     1   --> A              
     e(100 -100) =     19.70950  eV     1   --> A              

 **************************************************************************

 **************************************************************************

                    xk=(   0.08571,   0.04947,   0.00000  )

     Band symmetry, C_1 (1)     point group:

     e(  1 -  1) =    -34.56764  eV     1   --> A              
     e(  2 -  2) =    -34.56747  eV     1   --> A              
     e(  3 -  3) =    -34.56196  eV     1   --> A              
     e(  4 -  4) =    -34.56181  eV     1   --> A              
[...]
     e( 90 - 90) =     17.99798  eV     1   --> A              
     e( 91 - 91) =     18.09676  eV     1   --> A              
     e( 92 - 92) =     18.33504  eV     1   --> A              
     e( 93 - 93) =     18.35794  eV     1   --> A              
     e( 94 - 94) =     18.58400  eV     1   --> A              
     e( 95 - 95) =     19.09179  eV     1   --> A              
     e( 96 - 96) =     19.14538  eV     1   --> A              
     e( 97 - 97) =     19.30118  eV     1   --> A              
     e( 98 - 98) =     19.35522  eV     1   --> A              
     e( 99 - 99) =     19.65148  eV     1   --> A              
     e(100 -100) =     19.67649  eV     1   --> A              

 **************************************************************************

 **************************************************************************

                    xk=(   0.00952,   0.01649,   0.00000  )

     Band symmetry, C_1 (1)     point group:

     e(  1 -  1) =    -34.56769  eV     1   --> A              
     e(  2 -  2) =    -34.56753  eV     1   --> A              
     e(  3 -  3) =    -34.56200  eV     1   --> A              
     e(  4 -  4) =    -34.56188  eV     1   --> A              
     e(  5 -  5) =    -34.54090  eV     1   --> A              
     e(  6 -  6) =    -34.53944  eV     1   --> A              
     e(  7 -  7) =    -34.53504  eV     1   --> A              
     e(  8 -  8) =    -34.53407  eV     1   --> A              
     e(  9 -  9) =    -34.53005  eV     1   --> A              
     e( 10 - 10) =    -34.52446  eV     1   --> A              
     e( 11 - 11) =    -34.45886  eV     1   --> A              
     e( 12 - 12) =    -34.44690  eV     1   --> A              
     e( 13 - 13) =    -34.44661  eV     1   --> A              
     e( 14 - 15) =    -34.40771  eV     2   -->   2 A              
     e( 16 - 17) =    -27.31233  eV     2   -->   2 A              
     e( 18 - 19) =    -27.30921  eV     2   -->   2 A              
     e( 20 - 20) =    -27.30332  eV     1   --> A              
     e( 21 - 23) =    -27.30037  eV     3   -->   3 A              
     e( 24 - 25) =    -27.29728  eV     2   -->   2 A              
     e( 26 - 26) =    -10.60356  eV     1   --> A              
     e( 27 - 27) =    -10.06650  eV     1   --> A              
     e( 28 - 28) =     -8.97087  eV     1   --> A              
     e( 29 - 29) =     -6.19328  eV     1   --> A              
     e( 30 - 30) =     -4.74488  eV     1   --> A              
     e( 31 - 31) =     -0.11213  eV     1   --> A              
     e( 32 - 32) =      0.34414  eV     1   --> A              
     e( 33 - 33) =      0.36719  eV     1   --> A              
     e( 34 - 34) =      0.56462  eV     1   --> A              
     e( 35 - 35) =      0.59324  eV     1   --> A              
     e( 36 - 36) =      0.94645  eV     1   --> A              
     e( 37 - 37) =      1.17789  eV     1   --> A              
     e( 38 - 38) =      1.19752  eV     1   --> A              
     e( 39 - 39) =      1.52704  eV     1   --> A              
     e( 40 - 40) =      2.59021  eV     1   --> A              
     e( 41 - 41) =      2.97533  eV     1   --> A              
     e( 42 - 42) =      2.99833  eV     1   --> A              
     e( 43 - 43) =      4.04828  eV     1   --> A              
     e( 44 - 44) =      4.05315  eV     1   --> A              
     e( 45 - 45) =      4.06728  eV     1   --> A              
     e( 46 - 46) =      6.33066  eV     1   --> A              
     e( 47 - 47) =      6.52861  eV     1   --> A              
     e( 48 - 48) =      7.06958  eV     1   --> A              
     e( 49 - 49) =      7.76190  eV     1   --> A              
     e( 50 - 50) =      7.83814  eV     1   --> A              
     e( 51 - 51) =      7.87121  eV     1   --> A              
     e( 52 - 52) =      8.54178  eV     1   --> A              
     e( 53 - 53) =      8.80808  eV     1   --> A              
     e( 54 - 54) =      8.95005  eV     1   --> A              
     e( 55 - 55) =      9.17105  eV     1   --> A              
     e( 56 - 56) =      9.17503  eV     1   --> A              
     e( 57 - 57) =      9.83983  eV     1   --> A              
     e( 58 - 58) =      9.85168  eV     1   --> A              
     e( 59 - 59) =     10.16098  eV     1   --> A              
     e( 60 - 60) =     10.29137  eV     1   --> A              
     e( 61 - 61) =     10.67551  eV     1   --> A              
     e( 62 - 62) =     11.34158  eV     1   --> A              
     e( 63 - 63) =     11.35160  eV     1   --> A              
     e( 64 - 64) =     11.59452  eV     1   --> A              
     e( 65 - 65) =     11.82762  eV     1   --> A              
     e( 66 - 66) =     11.88855  eV     1   --> A              
     e( 67 - 67) =     12.91043  eV     1   --> A              
     e( 68 - 68) =     13.00464  eV     1   --> A              
     e( 69 - 69) =     14.12627  eV     1   --> A              
     e( 70 - 70) =     14.13806  eV     1   --> A              
     e( 71 - 71) =     14.43941  eV     1   --> A              
     e( 72 - 72) =     14.45804  eV     1   --> A              
     e( 73 - 73) =     14.58499  eV     1   --> A              
     e( 74 - 74) =     15.29824  eV     1   --> A              
     e( 75 - 75) =     16.04169  eV     1   --> A              
     e( 76 - 76) =     16.05451  eV     1   --> A              
     e( 77 - 77) =     16.17896  eV     1   --> A              
     e( 78 - 78) =     16.47922  eV     1   --> A              
     e( 79 - 79) =     16.49826  eV     1   --> A              
     e( 80 - 80) =     16.53644  eV     1   --> A              
     e( 81 - 81) =     16.93117  eV     1   --> A              
     e( 82 - 82) =     17.25097  eV     1   --> A              
     e( 83 - 83) =     17.38276  eV     1   --> A              
     e( 84 - 84) =     17.39813  eV     1   --> A              
     e( 85 - 85) =     17.60987  eV     1   --> A              
     e( 86 - 86) =     17.63884  eV     1   --> A              
     e( 87 - 87) =     17.71872  eV     1   --> A              
     e( 88 - 88) =     17.73075  eV     1   --> A              
     e( 89 - 89) =     17.86720  eV     1   --> A              
     e( 90 - 90) =     17.94300  eV     1   --> A              
     e( 91 - 91) =     18.05058  eV     1   --> A              
     e( 92 - 92) =     18.20323  eV     1   --> A              
     e( 93 - 93) =     18.24256  eV     1   --> A              
     e( 94 - 94) =     18.49445  eV     1   --> A              
     e( 95 - 95) =     19.22225  eV     1   --> A              
     e( 96 - 96) =     19.25722  eV     1   --> A              
     e( 97 - 97) =     19.37649  eV     1   --> A              
     e( 98 - 98) =     19.45020  eV     1   --> A              
     e( 99 - 99) =     19.64475  eV     1   --> A              
     e(100 -100) =     19.68801  eV     1   --> A              

 **************************************************************************

 **************************************************************************

                    xk=(   0.00476,   0.00824,   0.00000  )

     Band symmetry, C_1 (1)     point group:

     e(  1 -  1) =    -34.56769  eV     1   --> A              
     e(  2 -  2) =    -34.56753  eV     1   --> A              
     e(  3 -  3) =    -34.56200  eV     1   --> A              
     e(  4 -  4) =    -34.56188  eV     1   --> A              
     e(  5 -  5) =    -34.54090  eV     1   --> A              
     e(  6 -  6) =    -34.53944  eV     1   --> A              
     e(  7 -  7) =    -34.53504  eV     1   --> A              
     e(  8 -  8) =    -34.53407  eV     1   --> A              
     e(  9 -  9) =    -34.53005  eV     1   --> A              
     e( 10 - 10) =    -34.52447  eV     1   --> A              
     e( 11 - 11) =    -34.45886  eV     1   --> A              
     e( 12 - 12) =    -34.44690  eV     1   --> A              
     e( 13 - 13) =    -34.44661  eV     1   --> A              
     e( 14 - 15) =    -34.40771  eV     2   -->   2 A              
     e( 16 - 17) =    -27.31233  eV     2   -->   2 A              
     e( 18 - 19) =    -27.30921  eV     2   -->   2 A              
     e( 20 - 20) =    -27.30332  eV     1   --> A              
     e( 21 - 23) =    -27.30037  eV     3   -->   3 A              
     e( 24 - 25) =    -27.29728  eV     2   -->   2 A              
     e( 26 - 26) =    -10.60537  eV     1   --> A              
     e( 27 - 27) =    -10.06816  eV     1   --> A              
     e( 28 - 28) =     -8.97191  eV     1   --> A              
     e( 29 - 29) =     -6.19317  eV     1   --> A              
     e( 30 - 30) =     -4.74199  eV     1   --> A              
     e( 31 - 31) =     -0.10896  eV     1   --> A              
     e( 32 - 32) =      0.36880  eV     1   --> A              
     e( 33 - 33) =      0.37655  eV     1   --> A              
     e( 34 - 34) =      0.58556  eV     1   --> A              
     e( 35 - 35) =      0.59652  eV     1   --> A              
     e( 36 - 36) =      0.93367  eV     1   --> A              
     e( 37 - 37) =      1.18941  eV     1   --> A              
     e( 38 - 38) =      1.19582  eV     1   --> A              
     e( 39 - 39) =      1.50378  eV     1   --> A              
     e( 40 - 40) =      2.56790  eV     1   --> A              
     e( 41 - 41) =      2.98999  eV     1   --> A              
     e( 42 - 42) =      2.99464  eV     1   --> A              
     e( 43 - 43) =      4.04061  eV     1   --> A              
     e( 44 - 44) =      4.05284  eV     1   --> A              
     e( 45 - 45) =      4.05770  eV     1   --> A              
     e( 46 - 46) =      6.32726  eV     1   --> A              
     e( 47 - 47) =      6.52774  eV     1   --> A              
     e( 48 - 48) =      7.06863  eV     1   --> A              
     e( 49 - 49) =      7.76170  eV     1   --> A              
     e( 50 - 50) =      7.85632  eV     1   --> A              
     e( 51 - 51) =      7.86735  eV     1   --> A              
     e( 52 - 52) =      8.52758  eV     1   --> A              
     e( 53 - 53) =      8.81008  eV     1   --> A              
     e( 54 - 54) =      8.96138  eV     1   --> A              
     e( 55 - 55) =      9.17169  eV     1   --> A              
     e( 56 - 56) =      9.17629  eV     1   --> A              
     e( 57 - 57) =      9.83018  eV     1   --> A              
     e( 58 - 58) =      9.83496  eV     1   --> A              
     e( 59 - 59) =     10.16172  eV     1   --> A              
     e( 60 - 60) =     10.27882  eV     1   --> A              
     e( 61 - 61) =     10.66242  eV     1   --> A              
     e( 62 - 62) =     11.36026  eV     1   --> A              
     e( 63 - 63) =     11.36375  eV     1   --> A              
     e( 64 - 64) =     11.63779  eV     1   --> A              
     e( 65 - 65) =     11.80304  eV     1   --> A              
     e( 66 - 66) =     11.82646  eV     1   --> A              
     e( 67 - 67) =     12.91034  eV     1   --> A              
     e( 68 - 68) =     12.99890  eV     1   --> A              
     e( 69 - 69) =     14.17321  eV     1   --> A              
     e( 70 - 70) =     14.18119  eV     1   --> A              
     e( 71 - 71) =     14.42102  eV     1   --> A              
     e( 72 - 72) =     14.42992  eV     1   --> A              
     e( 73 - 73) =     14.54807  eV     1   --> A              
     e( 74 - 74) =     15.28249  eV     1   --> A              
     e( 75 - 75) =     16.09825  eV     1   --> A              
     e( 76 - 76) =     16.10888  eV     1   --> A              
     e( 77 - 77) =     16.18164  eV     1   --> A              
     e( 78 - 78) =     16.45737  eV     1   --> A              
     e( 79 - 79) =     16.46109  eV     1   --> A              
     e( 80 - 80) =     16.51584  eV     1   --> A              
     e( 81 - 81) =     16.89833  eV     1   --> A              
     e( 82 - 82) =     17.35720  eV     1   --> A              
     e( 83 - 83) =     17.41632  eV     1   --> A              
     e( 84 - 84) =     17.47654  eV     1   --> A              
     e( 85 - 85) =     17.62039  eV     1   --> A              
     e( 86 - 86) =     17.68284  eV     1   --> A              
     e( 87 - 87) =     17.71689  eV     1   --> A              
     e( 88 - 88) =     17.76831  eV     1   --> A              
     e( 89 - 89) =     17.83732  eV     1   --> A              
     e( 90 - 90) =     17.93755  eV     1   --> A              
     e( 91 - 91) =     17.99364  eV     1   --> A              
     e( 92 - 92) =     18.05621  eV     1   --> A              
     e( 93 - 93) =     18.17301  eV     1   --> A              
     e( 94 - 94) =     18.43308  eV     1   --> A              
     e( 95 - 95) =     19.34859  eV     1   --> A              
     e( 96 - 96) =     19.35807  eV     1   --> A              
     e( 97 - 97) =     19.42413  eV     1   --> A              
     e( 98 - 98) =     19.50165  eV     1   --> A              
     e( 99 - 99) =     19.58704  eV     1   --> A              
     e(100 -100) =     19.69979  eV     1   --> A              

 **************************************************************************

 **************************************************************************

                    xk=(   0.00000,   0.00000,   0.00000  )

     Band symmetry, C_1 (1)     point group:

     e(  1 -  1) =    -34.56769  eV     1   --> A              
     e(  2 -  2) =    -34.56754  eV     1   --> A              
     e(  3 -  3) =    -34.56201  eV     1   --> A              
     e(  4 -  4) =    -34.56188  eV     1   --> A              
     e(  5 -  5) =    -34.54090  eV     1   --> A              
     e(  6 -  6) =    -34.53944  eV     1   --> A              
     e(  7 -  7) =    -34.53504  eV     1   --> A              
     e(  8 -  8) =    -34.53407  eV     1   --> A              
     e(  9 -  9) =    -34.53005  eV     1   --> A              
     e( 10 - 10) =    -34.52446  eV     1   --> A              
     e( 11 - 11) =    -34.45886  eV     1   --> A              
     e( 12 - 12) =    -34.44690  eV     1   --> A              
     e( 13 - 13) =    -34.44661  eV     1   --> A              
     e( 14 - 15) =    -34.40771  eV     2   -->   2 A              
     e( 16 - 17) =    -27.31233  eV     2   -->   2 A              
     e( 18 - 19) =    -27.30921  eV     2   -->   2 A              
     e( 20 - 20) =    -27.30332  eV     1   --> A              
     e( 21 - 23) =    -27.30036  eV     3   -->   3 A              
     e( 24 - 25) =    -27.29728  eV     2   -->   2 A              
     e( 26 - 26) =    -10.60602  eV     1   --> A              
     e( 27 - 27) =    -10.06869  eV     1   --> A              
     e( 28 - 28) =     -8.97222  eV     1   --> A              
     e( 29 - 29) =     -6.19311  eV     1   --> A              
     e( 30 - 30) =     -4.74100  eV     1   --> A              
     e( 31 - 31) =     -0.10794  eV     1   --> A              
     e( 32 - 32) =      0.37743  eV     1   --> A              
     e( 33 - 33) =      0.37968  eV     1   --> A              
     e( 34 - 34) =      0.59312  eV     1   --> A              
     e( 35 - 35) =      0.59740  eV     1   --> A              
     e( 36 - 36) =      0.92863  eV     1   --> A              
     e( 37 - 37) =      1.19372  eV     1   --> A              
     e( 38 - 38) =      1.19526  eV     1   --> A              
     e( 39 - 39) =      1.49574  eV     1   --> A              
     e( 40 - 40) =      2.56018  eV     1   --> A              
     e( 41 - 41) =      2.99338  eV     1   --> A              
     e( 42 - 42) =      2.99520  eV     1   --> A              
     e( 43 - 43) =      4.03469  eV     1   --> A              
     e( 44 - 44) =      4.05321  eV     1   --> A              
     e( 45 - 45) =      4.05724  eV     1   --> A              
     e( 46 - 46) =      6.32612  eV     1   --> A              
     e( 47 - 47) =      6.52745  eV     1   --> A              
     e( 48 - 48) =      7.06830  eV     1   --> A              
     e( 49 - 49) =      7.76160  eV     1   --> A              
     e( 50 - 50) =      7.86214  eV     1   --> A              
     e( 51 - 51) =      7.86658  eV     1   --> A              
     e( 52 - 52) =      8.52261  eV     1   --> A              
     e( 53 - 53) =      8.81063  eV     1   --> A              
     e( 54 - 54) =      8.96514  eV     1   --> A              
     e( 55 - 55) =      9.17215  eV     1   --> A              
     e( 56 - 56) =      9.17698  eV     1   --> A              
     e( 57 - 57) =      9.82593  eV     1   --> A              
     e( 58 - 58) =      9.82981  eV     1   --> A              
     e( 59 - 59) =     10.16218  eV     1   --> A              
     e( 60 - 60) =     10.27463  eV     1   --> A              
     e( 61 - 61) =     10.65807  eV     1   --> A              
     e( 62 - 62) =     11.36495  eV     1   --> A              
     e( 63 - 63) =     11.36944  eV     1   --> A              
     e( 64 - 64) =     11.66319  eV     1   --> A              
     e( 65 - 65) =     11.79329  eV     1   --> A              
     e( 66 - 66) =     11.79621  eV     1   --> A              
     e( 67 - 67) =     12.91032  eV     1   --> A              
     e( 68 - 68) =     12.99698  eV     1   --> A              
     e( 69 - 69) =     14.19378  eV     1   --> A              
     e( 70 - 70) =     14.19754  eV     1   --> A              
     e( 71 - 71) =     14.41222  eV     1   --> A              
     e( 72 - 72) =     14.41616  eV     1   --> A              
     e( 73 - 73) =     14.53626  eV     1   --> A              
     e( 74 - 74) =     15.27646  eV     1   --> A              
     e( 75 - 75) =     16.12244  eV     1   --> A              
     e( 76 - 76) =     16.12637  eV     1   --> A              
     e( 77 - 77) =     16.18781  eV     1   --> A              
     e( 78 - 78) =     16.44118  eV     1   --> A              
     e( 79 - 79) =     16.44522  eV     1   --> A              
     e( 80 - 80) =     16.51170  eV     1   --> A              
     e( 81 - 81) =     16.88739  eV     1   --> A              
     e( 82 - 82) =     17.37189  eV     1   --> A              
     e( 83 - 83) =     17.50757  eV     1   --> A              
     e( 84 - 84) =     17.51153  eV     1   --> A              
     e( 85 - 85) =     17.55724  eV     1   --> A              
     e( 86 - 86) =     17.67547  eV     1   --> A              
     e( 87 - 87) =     17.67916  eV     1   --> A              
     e( 88 - 88) =     17.89194  eV     1   --> A              
     e( 89 - 89) =     17.89593  eV     1   --> A              
     e( 90 - 90) =     17.91835  eV     1   --> A              
     e( 91 - 91) =     17.93852  eV     1   --> A              
     e( 92 - 92) =     17.94204  eV     1   --> A              
     e( 93 - 93) =     18.14774  eV     1   --> A              
     e( 94 - 94) =     18.41130  eV     1   --> A              
     e( 95 - 95) =     19.41291  eV     1   --> A              
     e( 96 - 96) =     19.41696  eV     1   --> A              
     e( 97 - 97) =     19.48691  eV     1   --> A              
     e( 98 - 98) =     19.49191  eV     1   --> A              
     e( 99 - 99) =     19.49565  eV     1   --> A              
     e(100 -100) =     19.72881  eV     1   --> A              

 **************************************************************************

     BANDS        :   1m21.90s CPU   2m39.96s WALL


   This run was terminated on:  15:32:41  13Aug2025            

=------------------------------------------------------------------------------=
   JOB DONE.
=------------------------------------------------------------------------------=
