
     Program BANDS v.7.4.1 starts on 13Aug2025 at 16:18:54 

     This program is part of the open-source Quantum ESPRESSO suite
     for quantum simulation of materials; please cite
         "P. Giannozzi et al., J. Phys.:Condens. Matter 21 395502 (2009);
         "P. Giannozzi et al., J. Phys.:Condens. Matter 29 465901 (2017);
         "P. Giannozzi et al., J. Chem. Phys. 152 154105 (2020);
          URL http://www.quantum-espresso.org", 
     in publications or presentations arising from this work. More details at
     http://www.quantum-espresso.org/quote

     Parallel version (MPI & OpenMP), running on      48 processor cores
     Number of MPI processes:                24
     Threads/MPI process:                     2

     MPI processes distributed on     2 nodes
     R & G space division:  proc/nbgrp/npool/nimage =      24
     101899 MiB available memory on the printing compute node when the environment starts


     Reading xml data from directory:

     tmp/Sb2Te3-uatsx-c1-3.0.save/

     IMPORTANT: XC functional enforced from input :
     Exchange-correlation= PBE
                           (   1   4   3   4   0   0   0)
     Any further DFT definition will be discarded
     Please, verify this is what you really want


     Parallelization info
     --------------------
     sticks:   dense  smooth     PW     G-vecs:    dense   smooth      PW
     Min          97      39     11                19481     4929     747
     Max          98      40     12                19500     4946     765
     Sum        2349     941    267               467835   118417   18151

     Using Slab Decomposition

     Reading collected, re-writing distributed wavefunctions
     high-symmetry point:  0.0000 0.0000 0.0000   x coordinate   0.0000
     high-symmetry point:  0.5000 0.2887 0.0000   x coordinate   0.5774
     high-symmetry point:  0.3333 0.5889 0.0000   x coordinate   0.9207
     high-symmetry point:  0.0000 0.0000 0.0000   x coordinate   1.5974

     Plottable bands (eV) written to file ./bands/Sb2Te3-uatsx-c1-3.0.bands.gnu
     Bands written to file ./bands/Sb2Te3-uatsx-c1-3.0.bands

 **************************************************************************

                    xk=(   0.00000,   0.00000,   0.00000  )

     point group C_1 (1)    
     there are  1 classes
     the character table:

       E    
A      1.00

     the symmetry operations in each class and the name of the first element:

     E        1
                                                                 

     Band symmetry, C_1 (1)     point group:

     e(  1 -  1) =    -34.77307  eV     1   --> A              
     e(  2 -  2) =    -34.77272  eV     1   --> A              
     e(  3 -  3) =    -34.76605  eV     1   --> A              
     e(  4 -  4) =    -34.76571  eV     1   --> A              
     e(  5 -  5) =    -34.74137  eV     1   --> A              
     e(  6 -  6) =    -34.73606  eV     1   --> A              
     e(  7 -  7) =    -34.73421  eV     1   --> A              
     e(  8 -  8) =    -34.72926  eV     1   --> A              
     e(  9 -  9) =    -34.72661  eV     1   --> A              
     e( 10 - 10) =    -34.71965  eV     1   --> A              
     e( 11 - 11) =    -34.66694  eV     1   --> A              
     e( 12 - 12) =    -34.66097  eV     1   --> A              
     e( 13 - 13) =    -34.65054  eV     1   --> A              
     e( 14 - 14) =    -34.62260  eV     1   --> A              
     e( 15 - 15) =    -34.62172  eV     1   --> A              
     e( 16 - 16) =    -27.54839  eV     1   --> A              
     e( 17 - 17) =    -27.54785  eV     1   --> A              
     e( 18 - 18) =    -27.54388  eV     1   --> A              
     e( 19 - 19) =    -27.54330  eV     1   --> A              
     e( 20 - 20) =    -27.54068  eV     1   --> A              
     e( 21 - 21) =    -27.53700  eV     1   --> A              
     e( 22 - 22) =    -27.53620  eV     1   --> A              
     e( 23 - 23) =    -27.53496  eV     1   --> A              
     e( 24 - 24) =    -27.53250  eV     1   --> A              
     e( 25 - 25) =    -27.53045  eV     1   --> A              
     e( 26 - 26) =    -10.70411  eV     1   --> A              
     e( 27 - 27) =    -10.16635  eV     1   --> A              
     e( 28 - 28) =     -9.09034  eV     1   --> A              
     e( 29 - 29) =     -6.34901  eV     1   --> A              
     e( 30 - 30) =     -4.98538  eV     1   --> A              
     e( 31 - 31) =     -0.21667  eV     1   --> A              
     e( 32 - 32) =     -0.02018  eV     1   --> A              
     e( 33 - 33) =      0.20600  eV     1   --> A              
     e( 34 - 34) =      0.21929  eV     1   --> A              
     e( 35 - 35) =      0.38813  eV     1   --> A              
     e( 36 - 36) =      0.71256  eV     1   --> A              
     e( 37 - 37) =      0.81343  eV     1   --> A              
     e( 38 - 38) =      0.95409  eV     1   --> A              
     e( 39 - 39) =      1.17896  eV     1   --> A              
     e( 40 - 40) =      2.13464  eV     1   --> A              
     e( 41 - 41) =      2.66542  eV     1   --> A              
     e( 42 - 42) =      2.77183  eV     1   --> A              
     e( 43 - 43) =      3.57973  eV     1   --> A              
     e( 44 - 44) =      3.78045  eV     1   --> A              
     e( 45 - 45) =      3.84511  eV     1   --> A              
     e( 46 - 46) =      6.15979  eV     1   --> A              
     e( 47 - 47) =      6.34782  eV     1   --> A              
     e( 48 - 48) =      6.94580  eV     1   --> A              
     e( 49 - 49) =      7.36205  eV     1   --> A              
     e( 50 - 50) =      7.53849  eV     1   --> A              
     e( 51 - 51) =      7.78442  eV     1   --> A              
     e( 52 - 52) =      8.32828  eV     1   --> A              
     e( 53 - 53) =      8.53496  eV     1   --> A              
     e( 54 - 54) =      8.67459  eV     1   --> A              
     e( 55 - 55) =      8.69631  eV     1   --> A              
     e( 56 - 56) =      9.12442  eV     1   --> A              
     e( 57 - 57) =      9.48122  eV     1   --> A              
     e( 58 - 58) =      9.63083  eV     1   --> A              
     e( 59 - 59) =      9.97083  eV     1   --> A              
     e( 60 - 60) =     10.05069  eV     1   --> A              
     e( 61 - 61) =     10.46999  eV     1   --> A              
     e( 62 - 62) =     10.91188  eV     1   --> A              
     e( 63 - 63) =     11.31571  eV     1   --> A              
     e( 64 - 64) =     11.39825  eV     1   --> A              
     e( 65 - 65) =     11.43333  eV     1   --> A              
     e( 66 - 66) =     11.63270  eV     1   --> A              
     e( 67 - 67) =     12.77557  eV     1   --> A              
     e( 68 - 68) =     12.80194  eV     1   --> A              
     e( 69 - 69) =     13.72521  eV     1   --> A              
     e( 70 - 70) =     14.00317  eV     1   --> A              
     e( 71 - 71) =     14.11623  eV     1   --> A              
     e( 72 - 72) =     14.17053  eV     1   --> A              
     e( 73 - 73) =     14.36551  eV     1   --> A              
     e( 74 - 74) =     15.00190  eV     1   --> A              
     e( 75 - 75) =     15.56848  eV     1   --> A              
     e( 76 - 76) =     15.91165  eV     1   --> A              
     e( 77 - 77) =     15.93944  eV     1   --> A              
     e( 78 - 78) =     15.99674  eV     1   --> A              
     e( 79 - 79) =     16.14823  eV     1   --> A              
     e( 80 - 80) =     16.29275  eV     1   --> A              
     e( 81 - 81) =     16.61180  eV     1   --> A              
     e( 82 - 82) =     16.90080  eV     1   --> A              
     e( 83 - 83) =     16.91836  eV     1   --> A              
     e( 84 - 84) =     16.96054  eV     1   --> A              
     e( 85 - 85) =     17.21265  eV     1   --> A              
     e( 86 - 86) =     17.21310  eV     1   --> A              
     e( 87 - 87) =     17.28367  eV     1   --> A              
     e( 88 - 88) =     17.30176  eV     1   --> A              
     e( 89 - 89) =     17.50192  eV     1   --> A              
     e( 90 - 90) =     17.50658  eV     1   --> A              
     e( 91 - 91) =     17.60769  eV     1   --> A              
     e( 92 - 92) =     17.75606  eV     1   --> A              
     e( 93 - 93) =     17.80280  eV     1   --> A              
     e( 94 - 94) =     18.05967  eV     1   --> A              
     e( 95 - 95) =     18.81626  eV     1   --> A              
     e( 96 - 96) =     18.87390  eV     1   --> A              
     e( 97 - 97) =     18.95763  eV     1   --> A              
     e( 98 - 98) =     19.17200  eV     1   --> A              
     e( 99 - 99) =     19.17424  eV     1   --> A              
     e(100 -100) =     19.25832  eV     1   --> A              

 **************************************************************************

 **************************************************************************

                    xk=(   0.00714,   0.00412,   0.00000  )

     Band symmetry, C_1 (1)     point group:

     e(  1 -  1) =    -34.77307  eV     1   --> A              
     e(  2 -  2) =    -34.77272  eV     1   --> A              
     e(  3 -  3) =    -34.76605  eV     1   --> A              
     e(  4 -  4) =    -34.76571  eV     1   --> A              
     e(  5 -  5) =    -34.74137  eV     1   --> A              
     e(  6 -  6) =    -34.73606  eV     1   --> A              
     e(  7 -  7) =    -34.73421  eV     1   --> A              
     e(  8 -  8) =    -34.72926  eV     1   --> A              
     e(  9 -  9) =    -34.72661  eV     1   --> A              
     e( 10 - 10) =    -34.71965  eV     1   --> A              
     e( 11 - 11) =    -34.66694  eV     1   --> A              
     e( 12 - 12) =    -34.66096  eV     1   --> A              
     e( 13 - 13) =    -34.65054  eV     1   --> A              
     e( 14 - 14) =    -34.62260  eV     1   --> A              
     e( 15 - 15) =    -34.62172  eV     1   --> A              
     e( 16 - 16) =    -27.54839  eV     1   --> A              
     e( 17 - 17) =    -27.54785  eV     1   --> A              
     e( 18 - 18) =    -27.54387  eV     1   --> A              
     e( 19 - 19) =    -27.54330  eV     1   --> A              
     e( 20 - 20) =    -27.54068  eV     1   --> A              
     e( 21 - 21) =    -27.53700  eV     1   --> A              
     e( 22 - 22) =    -27.53620  eV     1   --> A              
     e( 23 - 23) =    -27.53496  eV     1   --> A              
     e( 24 - 24) =    -27.53250  eV     1   --> A              
     e( 25 - 25) =    -27.53045  eV     1   --> A              
     e( 26 - 26) =    -10.70367  eV     1   --> A              
     e( 27 - 27) =    -10.16595  eV     1   --> A              
     e( 28 - 28) =     -9.09012  eV     1   --> A              
     e( 29 - 29) =     -6.34908  eV     1   --> A              
     e( 30 - 30) =     -4.98619  eV     1   --> A              
     e( 31 - 31) =     -0.21814  eV     1   --> A              
     e( 32 - 32) =     -0.02553  eV     1   --> A              
     e( 33 - 33) =      0.19355  eV     1   --> A              
     e( 34 - 34) =      0.22630  eV     1   --> A              
     e( 35 - 35) =      0.38713  eV     1   --> A              
     e( 36 - 36) =      0.71345  eV     1   --> A              
     e( 37 - 37) =      0.81327  eV     1   --> A              
     e( 38 - 38) =      0.95513  eV     1   --> A              
     e( 39 - 39) =      1.18251  eV     1   --> A              
     e( 40 - 40) =      2.14089  eV     1   --> A              
     e( 41 - 41) =      2.66172  eV     1   --> A              
     e( 42 - 42) =      2.77186  eV     1   --> A              
     e( 43 - 43) =      3.58438  eV     1   --> A              
     e( 44 - 44) =      3.78067  eV     1   --> A              
     e( 45 - 45) =      3.84500  eV     1   --> A              
     e( 46 - 46) =      6.16056  eV     1   --> A              
     e( 47 - 47) =      6.34794  eV     1   --> A              
     e( 48 - 48) =      6.94593  eV     1   --> A              
     e( 49 - 49) =      7.35959  eV     1   --> A              
     e( 50 - 50) =      7.53841  eV     1   --> A              
     e( 51 - 51) =      7.78464  eV     1   --> A              
     e( 52 - 52) =      8.33110  eV     1   --> A              
     e( 53 - 53) =      8.53322  eV     1   --> A              
     e( 54 - 54) =      8.67088  eV     1   --> A              
     e( 55 - 55) =      8.69918  eV     1   --> A              
     e( 56 - 56) =      9.12308  eV     1   --> A              
     e( 57 - 57) =      9.48751  eV     1   --> A              
     e( 58 - 58) =      9.63305  eV     1   --> A              
     e( 59 - 59) =      9.96892  eV     1   --> A              
     e( 60 - 60) =     10.05279  eV     1   --> A              
     e( 61 - 61) =     10.47192  eV     1   --> A              
     e( 62 - 62) =     10.91221  eV     1   --> A              
     e( 63 - 63) =     11.31007  eV     1   --> A              
     e( 64 - 64) =     11.35512  eV     1   --> A              
     e( 65 - 65) =     11.47965  eV     1   --> A              
     e( 66 - 66) =     11.63958  eV     1   --> A              
     e( 67 - 67) =     12.77352  eV     1   --> A              
     e( 68 - 68) =     12.80410  eV     1   --> A              
     e( 69 - 69) =     13.71378  eV     1   --> A              
     e( 70 - 70) =     14.00638  eV     1   --> A              
     e( 71 - 71) =     14.10036  eV     1   --> A              
     e( 72 - 72) =     14.19101  eV     1   --> A              
     e( 73 - 73) =     14.36903  eV     1   --> A              
     e( 74 - 74) =     15.00406  eV     1   --> A              
     e( 75 - 75) =     15.54679  eV     1   --> A              
     e( 76 - 76) =     15.88429  eV     1   --> A              
     e( 77 - 77) =     15.98211  eV     1   --> A              
     e( 78 - 78) =     15.98736  eV     1   --> A              
     e( 79 - 79) =     16.16049  eV     1   --> A              
     e( 80 - 80) =     16.29375  eV     1   --> A              
     e( 81 - 81) =     16.61165  eV     1   --> A              
     e( 82 - 82) =     16.79767  eV     1   --> A              
     e( 83 - 83) =     16.93289  eV     1   --> A              
     e( 84 - 84) =     17.01894  eV     1   --> A              
     e( 85 - 85) =     17.17125  eV     1   --> A              
     e( 86 - 86) =     17.19642  eV     1   --> A              
     e( 87 - 87) =     17.30149  eV     1   --> A              
     e( 88 - 88) =     17.35822  eV     1   --> A              
     e( 89 - 89) =     17.47794  eV     1   --> A              
     e( 90 - 90) =     17.52533  eV     1   --> A              
     e( 91 - 91) =     17.61256  eV     1   --> A              
     e( 92 - 92) =     17.77076  eV     1   --> A              
     e( 93 - 93) =     17.80755  eV     1   --> A              
     e( 94 - 94) =     18.07097  eV     1   --> A              
     e( 95 - 95) =     18.74406  eV     1   --> A              
     e( 96 - 96) =     18.85012  eV     1   --> A              
     e( 97 - 97) =     19.00466  eV     1   --> A              
     e( 98 - 98) =     19.14032  eV     1   --> A              
     e( 99 - 99) =     19.20107  eV     1   --> A              
     e(100 -100) =     19.26461  eV     1   --> A              

 **************************************************************************

 **************************************************************************

                    xk=(   0.01429,   0.00825,   0.00000  )

     Band symmetry, C_1 (1)     point group:

     e(  1 -  1) =    -34.77307  eV     1   --> A              
     e(  2 -  2) =    -34.77272  eV     1   --> A              
     e(  3 -  3) =    -34.76605  eV     1   --> A              
     e(  4 -  4) =    -34.76571  eV     1   --> A              
     e(  5 -  5) =    -34.74137  eV     1   --> A              
     e(  6 -  6) =    -34.73606  eV     1   --> A              
     e(  7 -  7) =    -34.73421  eV     1   --> A              
     e(  8 -  8) =    -34.72926  eV     1   --> A              
     e(  9 -  9) =    -34.72661  eV     1   --> A              
     e( 10 - 10) =    -34.71965  eV     1   --> A              
     e( 11 - 11) =    -34.66694  eV     1   --> A              
     e( 12 - 12) =    -34.66097  eV     1   --> A              
     e( 13 - 13) =    -34.65054  eV     1   --> A              
     e( 14 - 14) =    -34.62260  eV     1   --> A              
     e( 15 - 15) =    -34.62172  eV     1   --> A              
     e( 16 - 16) =    -27.54839  eV     1   --> A              
     e( 17 - 17) =    -27.54785  eV     1   --> A              
     e( 18 - 18) =    -27.54387  eV     1   --> A              
     e( 19 - 19) =    -27.54330  eV     1   --> A              
     e( 20 - 20) =    -27.54068  eV     1   --> A              
     e( 21 - 21) =    -27.53700  eV     1   --> A              
     e( 22 - 22) =    -27.53620  eV     1   --> A              
     e( 23 - 23) =    -27.53496  eV     1   --> A              
     e( 24 - 24) =    -27.53250  eV     1   --> A              
     e( 25 - 25) =    -27.53045  eV     1   --> A              
     e( 26 - 26) =    -10.70242  eV     1   --> A              
     e( 27 - 27) =    -10.16481  eV     1   --> A              
     e( 28 - 28) =     -9.08944  eV     1   --> A              
     e( 29 - 29) =     -6.34934  eV     1   --> A              
     e( 30 - 30) =     -4.98864  eV     1   --> A              
     e( 31 - 31) =     -0.22264  eV     1   --> A              
     e( 32 - 32) =     -0.04148  eV     1   --> A              
     e( 33 - 33) =      0.17295  eV     1   --> A              
     e( 34 - 34) =      0.23109  eV     1   --> A              
     e( 35 - 35) =      0.38447  eV     1   --> A              
     e( 36 - 36) =      0.71410  eV     1   --> A              
     e( 37 - 37) =      0.81414  eV     1   --> A              
     e( 38 - 38) =      0.95816  eV     1   --> A              
     e( 39 - 39) =      1.19340  eV     1   --> A              
     e( 40 - 40) =      2.15928  eV     1   --> A              
     e( 41 - 41) =      2.65060  eV     1   --> A              
     e( 42 - 42) =      2.77238  eV     1   --> A              
     e( 43 - 43) =      3.59784  eV     1   --> A              
     e( 44 - 44) =      3.78116  eV     1   --> A              
     e( 45 - 45) =      3.84495  eV     1   --> A              
     e( 46 - 46) =      6.16288  eV     1   --> A              
     e( 47 - 47) =      6.34828  eV     1   --> A              
     e( 48 - 48) =      6.94632  eV     1   --> A              
     e( 49 - 49) =      7.35224  eV     1   --> A              
     e( 50 - 50) =      7.53819  eV     1   --> A              
     e( 51 - 51) =      7.78539  eV     1   --> A              
     e( 52 - 52) =      8.33934  eV     1   --> A              
     e( 53 - 53) =      8.52796  eV     1   --> A              
     e( 54 - 54) =      8.66055  eV     1   --> A              
     e( 55 - 55) =      8.70752  eV     1   --> A              
     e( 56 - 56) =      9.11934  eV     1   --> A              
     e( 57 - 57) =      9.50553  eV     1   --> A              
     e( 58 - 58) =      9.63960  eV     1   --> A              
     e( 59 - 59) =      9.96338  eV     1   --> A              
     e( 60 - 60) =     10.05908  eV     1   --> A              
     e( 61 - 61) =     10.47779  eV     1   --> A              
     e( 62 - 62) =     10.91274  eV     1   --> A              
     e( 63 - 63) =     11.29059  eV     1   --> A              
     e( 64 - 64) =     11.30663  eV     1   --> A              
     e( 65 - 65) =     11.54178  eV     1   --> A              
     e( 66 - 66) =     11.65890  eV     1   --> A              
     e( 67 - 67) =     12.76843  eV     1   --> A              
     e( 68 - 68) =     12.80951  eV     1   --> A              
     e( 69 - 69) =     13.68369  eV     1   --> A              
     e( 70 - 70) =     14.00189  eV     1   --> A              
     e( 71 - 71) =     14.08945  eV     1   --> A              
     e( 72 - 72) =     14.22494  eV     1   --> A              
     e( 73 - 73) =     14.38059  eV     1   --> A              
     e( 74 - 74) =     15.00865  eV     1   --> A              
     e( 75 - 75) =     15.49502  eV     1   --> A              
     e( 76 - 76) =     15.85082  eV     1   --> A              
     e( 77 - 77) =     15.96609  eV     1   --> A              
     e( 78 - 78) =     16.05007  eV     1   --> A              
     e( 79 - 79) =     16.18656  eV     1   --> A              
     e( 80 - 80) =     16.29868  eV     1   --> A              
     e( 81 - 81) =     16.60575  eV     1   --> A              
     e( 82 - 82) =     16.69812  eV     1   --> A              
     e( 83 - 83) =     16.85687  eV     1   --> A              
     e( 84 - 84) =     17.09382  eV     1   --> A              
     e( 85 - 85) =     17.12765  eV     1   --> A              
     e( 86 - 86) =     17.20009  eV     1   --> A              
     e( 87 - 87) =     17.31655  eV     1   --> A              
     e( 88 - 88) =     17.39598  eV     1   --> A              
     e( 89 - 89) =     17.50185  eV     1   --> A              
     e( 90 - 90) =     17.54764  eV     1   --> A              
     e( 91 - 91) =     17.62124  eV     1   --> A              
     e( 92 - 92) =     17.80522  eV     1   --> A              
     e( 93 - 93) =     17.83160  eV     1   --> A              
     e( 94 - 94) =     18.10070  eV     1   --> A              
     e( 95 - 95) =     18.63716  eV     1   --> A              
     e( 96 - 96) =     18.76385  eV     1   --> A              
     e( 97 - 97) =     19.03359  eV     1   --> A              
     e( 98 - 98) =     19.14588  eV     1   --> A              
     e( 99 - 99) =     19.23228  eV     1   --> A              
     e(100 -100) =     19.25340  eV     1   --> A              

 **************************************************************************

 **************************************************************************

                    xk=(   0.02143,   0.01237,   0.00000  )

     Band symmetry, C_1 (1)     point group:

     e(  1 -  1) =    -34.77307  eV     1   --> A              
     e(  2 -  2) =    -34.77272  eV     1   --> A              
     e(  3 -  3) =    -34.76604  eV     1   --> A              
     e(  4 -  4) =    -34.76570  eV     1   --> A              
     e(  5 -  5) =    -34.74137  eV     1   --> A              
     e(  6 -  6) =    -34.73606  eV     1   --> A              
     e(  7 -  7) =    -34.73421  eV     1   --> A              
     e(  8 -  8) =    -34.72926  eV     1   --> A              
     e(  9 -  9) =    -34.72661  eV     1   --> A              
     e( 10 - 10) =    -34.71965  eV     1   --> A              
     e( 11 - 11) =    -34.66694  eV     1   --> A              
     e( 12 - 12) =    -34.66097  eV     1   --> A              
     e( 13 - 13) =    -34.65054  eV     1   --> A              
     e( 14 - 14) =    -34.62260  eV     1   --> A              
     e( 15 - 15) =    -34.62172  eV     1   --> A              
     e( 16 - 16) =    -27.54838  eV     1   --> A              
     e( 17 - 17) =    -27.54785  eV     1   --> A              
     e( 18 - 18) =    -27.54387  eV     1   --> A              
     e( 19 - 19) =    -27.54330  eV     1   --> A              
     e( 20 - 20) =    -27.54068  eV     1   --> A              
     e( 21 - 21) =    -27.53701  eV     1   --> A              
     e( 22 - 22) =    -27.53620  eV     1   --> A              
     e( 23 - 23) =    -27.53496  eV     1   --> A              
     e( 24 - 24) =    -27.53251  eV     1   --> A              
     e( 25 - 25) =    -27.53045  eV     1   --> A              
     e( 26 - 26) =    -10.70032  eV     1   --> A              
     e( 27 - 27) =    -10.16289  eV     1   --> A              
     e( 28 - 28) =     -9.08829  eV     1   --> A              
     e( 29 - 29) =     -6.34978  eV     1   --> A              
     e( 30 - 30) =     -4.99269  eV     1   --> A              
     e( 31 - 31) =     -0.23045  eV     1   --> A              
     e( 32 - 32) =     -0.06754  eV     1   --> A              
     e( 33 - 33) =      0.15024  eV     1   --> A              
     e( 34 - 34) =      0.22898  eV     1   --> A              
     e( 35 - 35) =      0.38081  eV     1   --> A              
     e( 36 - 36) =      0.70890  eV     1   --> A              
     e( 37 - 37) =      0.82009  eV     1   --> A              
     e( 38 - 38) =      0.96286  eV     1   --> A              
     e( 39 - 39) =      1.21205  eV     1   --> A              
     e( 40 - 40) =      2.18881  eV     1   --> A              
     e( 41 - 41) =      2.63229  eV     1   --> A              
     e( 42 - 42) =      2.77430  eV     1   --> A              
     e( 43 - 43) =      3.61879  eV     1   --> A              
     e( 44 - 44) =      3.78145  eV     1   --> A              
     e( 45 - 45) =      3.84583  eV     1   --> A              
     e( 46 - 46) =      6.16672  eV     1   --> A              
     e( 47 - 47) =      6.34883  eV     1   --> A              
     e( 48 - 48) =      6.94686  eV     1   --> A              
     e( 49 - 49) =      7.34022  eV     1   --> A              
     e( 50 - 50) =      7.53797  eV     1   --> A              
     e( 51 - 51) =      7.78699  eV     1   --> A              
     e( 52 - 52) =      8.35233  eV     1   --> A              
     e( 53 - 53) =      8.51896  eV     1   --> A              
     e( 54 - 54) =      8.64581  eV     1   --> A              
     e( 55 - 55) =      8.72072  eV     1   --> A              
     e( 56 - 56) =      9.11389  eV     1   --> A              
     e( 57 - 57) =      9.53296  eV     1   --> A              
     e( 58 - 58) =      9.65015  eV     1   --> A              
     e( 59 - 59) =      9.95493  eV     1   --> A              
     e( 60 - 60) =     10.06966  eV     1   --> A              
     e( 61 - 61) =     10.48779  eV     1   --> A              
     e( 62 - 62) =     10.91222  eV     1   --> A              
     e( 63 - 63) =     11.24776  eV     1   --> A              
     e( 64 - 64) =     11.27976  eV     1   --> A              
     e( 65 - 65) =     11.60601  eV     1   --> A              
     e( 66 - 66) =     11.68778  eV     1   --> A              
     e( 67 - 67) =     12.76164  eV     1   --> A              
     e( 68 - 68) =     12.81684  eV     1   --> A              
     e( 69 - 69) =     13.64258  eV     1   --> A              
     e( 70 - 70) =     13.97502  eV     1   --> A              
     e( 71 - 71) =     14.10320  eV     1   --> A              
     e( 72 - 72) =     14.25861  eV     1   --> A              
     e( 73 - 73) =     14.40195  eV     1   --> A              
     e( 74 - 74) =     15.00959  eV     1   --> A              
     e( 75 - 75) =     15.43671  eV     1   --> A              
     e( 76 - 76) =     15.81405  eV     1   --> A              
     e( 77 - 77) =     15.93996  eV     1   --> A              
     e( 78 - 78) =     16.12296  eV     1   --> A              
     e( 79 - 79) =     16.20598  eV     1   --> A              
     e( 80 - 80) =     16.31446  eV     1   --> A              
     e( 81 - 81) =     16.55519  eV     1   --> A              
     e( 82 - 82) =     16.65689  eV     1   --> A              
     e( 83 - 83) =     16.75538  eV     1   --> A              
     e( 84 - 84) =     17.07486  eV     1   --> A              
     e( 85 - 85) =     17.10603  eV     1   --> A              
     e( 86 - 86) =     17.28313  eV     1   --> A              
     e( 87 - 87) =     17.30326  eV     1   --> A              
     e( 88 - 88) =     17.37476  eV     1   --> A              
     e( 89 - 89) =     17.56683  eV     1   --> A              
     e( 90 - 90) =     17.58818  eV     1   --> A              
     e( 91 - 91) =     17.65151  eV     1   --> A              
     e( 92 - 92) =     17.85308  eV     1   --> A              
     e( 93 - 93) =     17.87901  eV     1   --> A              
     e( 94 - 94) =     18.13976  eV     1   --> A              
     e( 95 - 95) =     18.53272  eV     1   --> A              
     e( 96 - 96) =     18.65666  eV     1   --> A              
     e( 97 - 97) =     18.98369  eV     1   --> A              
     e( 98 - 98) =     19.18995  eV     1   --> A              
     e( 99 - 99) =     19.21103  eV     1   --> A              
     e(100 -100) =     19.29491  eV     1   --> A              

 **************************************************************************

 **************************************************************************

                    xk=(   0.02857,   0.01650,   0.00000  )

     Band symmetry, C_1 (1)     point group:

     e(  1 -  1) =    -34.77306  eV     1   --> A              
     e(  2 -  2) =    -34.77272  eV     1   --> A              
     e(  3 -  3) =    -34.76604  eV     1   --> A              
     e(  4 -  4) =    -34.76570  eV     1   --> A              
     e(  5 -  5) =    -34.74137  eV     1   --> A              
     e(  6 -  6) =    -34.73606  eV     1   --> A              
     e(  7 -  7) =    -34.73421  eV     1   --> A              
     e(  8 -  8) =    -34.72926  eV     1   --> A              
     e(  9 -  9) =    -34.72660  eV     1   --> A              
     e( 10 - 10) =    -34.71965  eV     1   --> A              
     e( 11 - 11) =    -34.66694  eV     1   --> A              
     e( 12 - 12) =    -34.66097  eV     1   --> A              
     e( 13 - 13) =    -34.65054  eV     1   --> A              
     e( 14 - 14) =    -34.62260  eV     1   --> A              
     e( 15 - 15) =    -34.62172  eV     1   --> A              
     e( 16 - 16) =    -27.54837  eV     1   --> A              
     e( 17 - 17) =    -27.54785  eV     1   --> A              
     e( 18 - 18) =    -27.54386  eV     1   --> A              
     e( 19 - 19) =    -27.54329  eV     1   --> A              
     e( 20 - 20) =    -27.54067  eV     1   --> A              
     e( 21 - 21) =    -27.53702  eV     1   --> A              
     e( 22 - 22) =    -27.53619  eV     1   --> A              
     e( 23 - 23) =    -27.53496  eV     1   --> A              
     e( 24 - 24) =    -27.53251  eV     1   --> A              
     e( 25 - 25) =    -27.53045  eV     1   --> A              
     e( 26 - 26) =    -10.69736  eV     1   --> A              
     e( 27 - 27) =    -10.16021  eV     1   --> A              
     e( 28 - 28) =     -9.08669  eV     1   --> A              
     e( 29 - 29) =     -6.35040  eV     1   --> A              
     e( 30 - 30) =     -4.99836  eV     1   --> A              
     e( 31 - 31) =     -0.24217  eV     1   --> A              
     e( 32 - 32) =     -0.10246  eV     1   --> A              
     e( 33 - 33) =      0.12719  eV     1   --> A              
     e( 34 - 34) =      0.22017  eV     1   --> A              
     e( 35 - 35) =      0.37662  eV     1   --> A              
     e( 36 - 36) =      0.69243  eV     1   --> A              
     e( 37 - 37) =      0.83508  eV     1   --> A              
     e( 38 - 38) =      0.96890  eV     1   --> A              
     e( 39 - 39) =      1.23825  eV     1   --> A              
     e( 40 - 40) =      2.22804  eV     1   --> A              
     e( 41 - 41) =      2.60776  eV     1   --> A              
     e( 42 - 42) =      2.77825  eV     1   --> A              
     e( 43 - 43) =      3.64517  eV     1   --> A              
     e( 44 - 44) =      3.78093  eV     1   --> A              
     e( 45 - 45) =      3.84905  eV     1   --> A              
     e( 46 - 46) =      6.17206  eV     1   --> A              
     e( 47 - 47) =      6.34958  eV     1   --> A              
     e( 48 - 48) =      6.94740  eV     1   --> A              
     e( 49 - 49) =      7.32392  eV     1   --> A              
     e( 50 - 50) =      7.53789  eV     1   --> A              
     e( 51 - 51) =      7.78982  eV     1   --> A              
     e( 52 - 52) =      8.36904  eV     1   --> A              
     e( 53 - 53) =      8.50571  eV     1   --> A              
     e( 54 - 54) =      8.62984  eV     1   --> A              
     e( 55 - 55) =      8.73804  eV     1   --> A              
     e( 56 - 56) =      9.10753  eV     1   --> A              
     e( 57 - 57) =      9.56661  eV     1   --> A              
     e( 58 - 58) =      9.66420  eV     1   --> A              
     e( 59 - 59) =      9.94487  eV     1   --> A              
     e( 60 - 60) =     10.08462  eV     1   --> A              
     e( 61 - 61) =     10.50221  eV     1   --> A              
     e( 62 - 62) =     10.90850  eV     1   --> A              
     e( 63 - 63) =     11.20547  eV     1   --> A              
     e( 64 - 64) =     11.25615  eV     1   --> A              
     e( 65 - 65) =     11.67108  eV     1   --> A              
     e( 66 - 66) =     11.72342  eV     1   --> A              
     e( 67 - 67) =     12.75365  eV     1   --> A              
     e( 68 - 68) =     12.82556  eV     1   --> A              
     e( 69 - 69) =     13.59626  eV     1   --> A              
     e( 70 - 70) =     13.93772  eV     1   --> A              
     e( 71 - 71) =     14.12477  eV     1   --> A              
     e( 72 - 72) =     14.29203  eV     1   --> A              
     e( 73 - 73) =     14.43292  eV     1   --> A              
     e( 74 - 74) =     14.99639  eV     1   --> A              
     e( 75 - 75) =     15.39217  eV     1   --> A              
     e( 76 - 76) =     15.77394  eV     1   --> A              
     e( 77 - 77) =     15.90936  eV     1   --> A              
     e( 78 - 78) =     16.18835  eV     1   --> A              
     e( 79 - 79) =     16.20185  eV     1   --> A              
     e( 80 - 80) =     16.34680  eV     1   --> A              
     e( 81 - 81) =     16.47704  eV     1   --> A              
     e( 82 - 82) =     16.64215  eV     1   --> A              
     e( 83 - 83) =     16.67400  eV     1   --> A              
     e( 84 - 84) =     17.02148  eV     1   --> A              
     e( 85 - 85) =     17.09831  eV     1   --> A              
     e( 86 - 86) =     17.26823  eV     1   --> A              
     e( 87 - 87) =     17.32721  eV     1   --> A              
     e( 88 - 88) =     17.40673  eV     1   --> A              
     e( 89 - 89) =     17.57507  eV     1   --> A              
     e( 90 - 90) =     17.64355  eV     1   --> A              
     e( 91 - 91) =     17.74610  eV     1   --> A              
     e( 92 - 92) =     17.91880  eV     1   --> A              
     e( 93 - 93) =     17.93506  eV     1   --> A              
     e( 94 - 94) =     18.17604  eV     1   --> A              
     e( 95 - 95) =     18.44540  eV     1   --> A              
     e( 96 - 96) =     18.54247  eV     1   --> A              
     e( 97 - 97) =     18.92295  eV     1   --> A              
     e( 98 - 98) =     19.14350  eV     1   --> A              
     e( 99 - 99) =     19.22350  eV     1   --> A              
     e(100 -100) =     19.32257  eV     1   --> A              

 **************************************************************************

 **************************************************************************

                    xk=(   0.03571,   0.02062,   0.00000  )

     Band symmetry, C_1 (1)     point group:

     e(  1 -  1) =    -34.77306  eV     1   --> A              
     e(  2 -  2) =    -34.77272  eV     1   --> A              
     e(  3 -  3) =    -34.76604  eV     1   --> A              
     e(  4 -  4) =    -34.76570  eV     1   --> A              
     e(  5 -  5) =    -34.74137  eV     1   --> A              
     e(  6 -  6) =    -34.73606  eV     1   --> A              
     e(  7 -  7) =    -34.73421  eV     1   --> A              
     e(  8 -  8) =    -34.72926  eV     1   --> A              
     e(  9 -  9) =    -34.72660  eV     1   --> A              
     e( 10 - 10) =    -34.71965  eV     1   --> A              
     e( 11 - 11) =    -34.66694  eV     1   --> A              
     e( 12 - 12) =    -34.66097  eV     1   --> A              
     e( 13 - 13) =    -34.65055  eV     1   --> A              
     e( 14 - 14) =    -34.62259  eV     1   --> A              
     e( 15 - 15) =    -34.62172  eV     1   --> A              
     e( 16 - 16) =    -27.54836  eV     1   --> A              
     e( 17 - 17) =    -27.54785  eV     1   --> A              
     e( 18 - 18) =    -27.54385  eV     1   --> A              
     e( 19 - 19) =    -27.54329  eV     1   --> A              
     e( 20 - 20) =    -27.54067  eV     1   --> A              
     e( 21 - 21) =    -27.53702  eV     1   --> A              
     e( 22 - 22) =    -27.53619  eV     1   --> A              
     e( 23 - 23) =    -27.53496  eV     1   --> A              
     e( 24 - 24) =    -27.53252  eV     1   --> A              
     e( 25 - 25) =    -27.53045  eV     1   --> A              
     e( 26 - 26) =    -10.69357  eV     1   --> A              
     e( 27 - 27) =    -10.15676  eV     1   --> A              
     e( 28 - 28) =     -9.08464  eV     1   --> A              
     e( 29 - 29) =     -6.35123  eV     1   --> A              
     e( 30 - 30) =     -5.00563  eV     1   --> A              
     e( 31 - 31) =     -0.25895  eV     1   --> A              
     e( 32 - 32) =     -0.14391  eV     1   --> A              
     e( 33 - 33) =      0.10465  eV     1   --> A              
     e( 34 - 34) =      0.20583  eV     1   --> A              
     e( 35 - 35) =      0.37193  eV     1   --> A              
     e( 36 - 36) =      0.66412  eV     1   --> A              
     e( 37 - 37) =      0.85899  eV     1   --> A              
     e( 38 - 38) =      0.97603  eV     1   --> A              
     e( 39 - 39) =      1.27088  eV     1   --> A              
     e( 40 - 40) =      2.27534  eV     1   --> A              
     e( 41 - 41) =      2.57866  eV     1   --> A              
     e( 42 - 42) =      2.78444  eV     1   --> A              
     e( 43 - 43) =      3.67399  eV     1   --> A              
     e( 44 - 44) =      3.77954  eV     1   --> A              
     e( 45 - 45) =      3.85631  eV     1   --> A              
     e( 46 - 46) =      6.17887  eV     1   --> A              
     e( 47 - 47) =      6.35050  eV     1   --> A              
     e( 48 - 48) =      6.94766  eV     1   --> A              
     e( 49 - 49) =      7.30401  eV     1   --> A              
     e( 50 - 50) =      7.53806  eV     1   --> A              
     e( 51 - 51) =      7.79423  eV     1   --> A              
     e( 52 - 52) =      8.38786  eV     1   --> A              
     e( 53 - 53) =      8.48803  eV     1   --> A              
     e( 54 - 54) =      8.61578  eV     1   --> A              
     e( 55 - 55) =      8.75880  eV     1   --> A              
     e( 56 - 56) =      9.10095  eV     1   --> A              
     e( 57 - 57) =      9.60270  eV     1   --> A              
     e( 58 - 58) =      9.68107  eV     1   --> A              
     e( 59 - 59) =      9.93537  eV     1   --> A              
     e( 60 - 60) =     10.10410  eV     1   --> A              
     e( 61 - 61) =     10.52131  eV     1   --> A              
     e( 62 - 62) =     10.89901  eV     1   --> A              
     e( 63 - 63) =     11.17122  eV     1   --> A              
     e( 64 - 64) =     11.23292  eV     1   --> A              
     e( 65 - 65) =     11.73610  eV     1   --> A              
     e( 66 - 66) =     11.76383  eV     1   --> A              
     e( 67 - 67) =     12.74458  eV     1   --> A              
     e( 68 - 68) =     12.83561  eV     1   --> A              
     e( 69 - 69) =     13.54829  eV     1   --> A              
     e( 70 - 70) =     13.89793  eV     1   --> A              
     e( 71 - 71) =     14.14323  eV     1   --> A              
     e( 72 - 72) =     14.32811  eV     1   --> A              
     e( 73 - 73) =     14.47035  eV     1   --> A              
     e( 74 - 74) =     14.95964  eV     1   --> A              
     e( 75 - 75) =     15.37518  eV     1   --> A              
     e( 76 - 76) =     15.73223  eV     1   --> A              
     e( 77 - 77) =     15.87209  eV     1   --> A              
     e( 78 - 78) =     16.16397  eV     1   --> A              
     e( 79 - 79) =     16.24094  eV     1   --> A              
     e( 80 - 80) =     16.38149  eV     1   --> A              
     e( 81 - 81) =     16.42238  eV     1   --> A              
     e( 82 - 82) =     16.54538  eV     1   --> A              
     e( 83 - 83) =     16.70230  eV     1   --> A              
     e( 84 - 84) =     16.97162  eV     1   --> A              
     e( 85 - 85) =     17.07769  eV     1   --> A              
     e( 86 - 86) =     17.22652  eV     1   --> A              
     e( 87 - 87) =     17.30523  eV     1   --> A              
     e( 88 - 88) =     17.50388  eV     1   --> A              
     e( 89 - 89) =     17.56601  eV     1   --> A              
     e( 90 - 90) =     17.72061  eV     1   --> A              
     e( 91 - 91) =     17.84603  eV     1   --> A              
     e( 92 - 92) =     17.98304  eV     1   --> A              
     e( 93 - 93) =     18.00465  eV     1   --> A              
     e( 94 - 94) =     18.19262  eV     1   --> A              
     e( 95 - 95) =     18.39945  eV     1   --> A              
     e( 96 - 96) =     18.42865  eV     1   --> A              
     e( 97 - 97) =     18.86137  eV     1   --> A              
     e( 98 - 98) =     19.09411  eV     1   --> A              
     e( 99 - 99) =     19.19842  eV     1   --> A              
     e(100 -100) =     19.29924  eV     1   --> A              

 **************************************************************************

 **************************************************************************

                    xk=(   0.04286,   0.02474,   0.00000  )

     Band symmetry, C_1 (1)     point group:

     e(  1 -  1) =    -34.77306  eV     1   --> A              
     e(  2 -  2) =    -34.77271  eV     1   --> A              
     e(  3 -  3) =    -34.76603  eV     1   --> A              
     e(  4 -  4) =    -34.76570  eV     1   --> A              
     e(  5 -  5) =    -34.74137  eV     1   --> A              
     e(  6 -  6) =    -34.73606  eV     1   --> A              
     e(  7 -  7) =    -34.73421  eV     1   --> A              
     e(  8 -  8) =    -34.72926  eV     1   --> A              
     e(  9 -  9) =    -34.72660  eV     1   --> A              
     e( 10 - 10) =    -34.71965  eV     1   --> A              
     e( 11 - 11) =    -34.66693  eV     1   --> A              
     e( 12 - 12) =    -34.66097  eV     1   --> A              
     e( 13 - 13) =    -34.65055  eV     1   --> A              
     e( 14 - 14) =    -34.62259  eV     1   --> A              
     e( 15 - 15) =    -34.62171  eV     1   --> A              
     e( 16 - 16) =    -27.54835  eV     1   --> A              
     e( 17 - 17) =    -27.54784  eV     1   --> A              
     e( 18 - 18) =    -27.54383  eV     1   --> A              
     e( 19 - 19) =    -27.54329  eV     1   --> A              
     e( 20 - 20) =    -27.54067  eV     1   --> A              
     e( 21 - 21) =    -27.53703  eV     1   --> A              
     e( 22 - 22) =    -27.53618  eV     1   --> A              
     e( 23 - 23) =    -27.53496  eV     1   --> A              
     e( 24 - 24) =    -27.53253  eV     1   --> A              
     e( 25 - 25) =    -27.53046  eV     1   --> A              
     e( 26 - 26) =    -10.68896  eV     1   --> A              
     e( 27 - 27) =    -10.15256  eV     1   --> A              
     e( 28 - 28) =     -9.08216  eV     1   --> A              
     e( 29 - 29) =     -6.35226  eV     1   --> A              
     e( 30 - 30) =     -5.01453  eV     1   --> A              
     e( 31 - 31) =     -0.28318  eV     1   --> A              
     e( 32 - 32) =     -0.18804  eV     1   --> A              
     e( 33 - 33) =      0.08289  eV     1   --> A              
     e( 34 - 34) =      0.18738  eV     1   --> A              
     e( 35 - 35) =      0.36647  eV     1   --> A              
     e( 36 - 36) =      0.62641  eV     1   --> A              
     e( 37 - 37) =      0.88932  eV     1   --> A              
     e( 38 - 38) =      0.98415  eV     1   --> A              
     e( 39 - 39) =      1.30801  eV     1   --> A              
     e( 40 - 40) =      2.32903  eV     1   --> A              
     e( 41 - 41) =      2.54704  eV     1   --> A              
     e( 42 - 42) =      2.79281  eV     1   --> A              
     e( 43 - 43) =      3.70057  eV     1   --> A              
     e( 44 - 44) =      3.77922  eV     1   --> A              
     e( 45 - 45) =      3.86919  eV     1   --> A              
     e( 46 - 46) =      6.18711  eV     1   --> A              
     e( 47 - 47) =      6.35154  eV     1   --> A              
     e( 48 - 48) =      6.94729  eV     1   --> A              
     e( 49 - 49) =      7.28144  eV     1   --> A              
     e( 50 - 50) =      7.53853  eV     1   --> A              
     e( 51 - 51) =      7.80046  eV     1   --> A              
     e( 52 - 52) =      8.40529  eV     1   --> A              
     e( 53 - 53) =      8.46858  eV     1   --> A              
     e( 54 - 54) =      8.60554  eV     1   --> A              
     e( 55 - 55) =      8.78246  eV     1   --> A              
     e( 56 - 56) =      9.09472  eV     1   --> A              
     e( 57 - 57) =      9.63653  eV     1   --> A              
     e( 58 - 58) =      9.70014  eV     1   --> A              
     e( 59 - 59) =      9.92985  eV     1   --> A              
     e( 60 - 60) =     10.12815  eV     1   --> A              
     e( 61 - 61) =     10.54534  eV     1   --> A              
     e( 62 - 62) =     10.88178  eV     1   --> A              
     e( 63 - 63) =     11.14631  eV     1   --> A              
     e( 64 - 64) =     11.21200  eV     1   --> A              
     e( 65 - 65) =     11.79880  eV     1   --> A              
     e( 66 - 66) =     11.80918  eV     1   --> A              
     e( 67 - 67) =     12.73445  eV     1   --> A              
     e( 68 - 68) =     12.84701  eV     1   --> A              
     e( 69 - 69) =     13.50097  eV     1   --> A              
     e( 70 - 70) =     13.85808  eV     1   --> A              
     e( 71 - 71) =     14.15664  eV     1   --> A              
     e( 72 - 72) =     14.36780  eV     1   --> A              
     e( 73 - 73) =     14.50942  eV     1   --> A              
     e( 74 - 74) =     14.90144  eV     1   --> A              
     e( 75 - 75) =     15.38606  eV     1   --> A              
     e( 76 - 76) =     15.69028  eV     1   --> A              
     e( 77 - 77) =     15.82576  eV     1   --> A              
     e( 78 - 78) =     16.10335  eV     1   --> A              
     e( 79 - 79) =     16.26929  eV     1   --> A              
     e( 80 - 80) =     16.33885  eV     1   --> A              
     e( 81 - 81) =     16.44836  eV     1   --> A              
     e( 82 - 82) =     16.48351  eV     1   --> A              
     e( 83 - 83) =     16.74436  eV     1   --> A              
     e( 84 - 84) =     16.93078  eV     1   --> A              
     e( 85 - 85) =     17.04508  eV     1   --> A              
     e( 86 - 86) =     17.18244  eV     1   --> A              
     e( 87 - 87) =     17.27940  eV     1   --> A              
     e( 88 - 88) =     17.56640  eV     1   --> A              
     e( 89 - 89) =     17.59876  eV     1   --> A              
     e( 90 - 90) =     17.80571  eV     1   --> A              
     e( 91 - 91) =     17.92245  eV     1   --> A              
     e( 92 - 92) =     18.00756  eV     1   --> A              
     e( 93 - 93) =     18.10612  eV     1   --> A              
     e( 94 - 94) =     18.20461  eV     1   --> A              
     e( 95 - 95) =     18.30698  eV     1   --> A              
     e( 96 - 96) =     18.42147  eV     1   --> A              
     e( 97 - 97) =     18.80062  eV     1   --> A              
     e( 98 - 98) =     19.04498  eV     1   --> A              
     e( 99 - 99) =     19.15957  eV     1   --> A              
     e(100 -100) =     19.25494  eV     1   --> A              

 **************************************************************************

 **************************************************************************

                    xk=(   0.05000,   0.02887,   0.00000  )

     Band symmetry, C_1 (1)     point group:

     e(  1 -  1) =    -34.77305  eV     1   --> A              
     e(  2 -  2) =    -34.77271  eV     1   --> A              
     e(  3 -  3) =    -34.76603  eV     1   --> A              
     e(  4 -  4) =    -34.76569  eV     1   --> A              
     e(  5 -  5) =    -34.74137  eV     1   --> A              
     e(  6 -  6) =    -34.73606  eV     1   --> A              
     e(  7 -  7) =    -34.73421  eV     1   --> A              
     e(  8 -  8) =    -34.72926  eV     1   --> A              
     e(  9 -  9) =    -34.72660  eV     1   --> A              
     e( 10 - 10) =    -34.71964  eV     1   --> A              
     e( 11 - 11) =    -34.66693  eV     1   --> A              
     e( 12 - 12) =    -34.66097  eV     1   --> A              
     e( 13 - 13) =    -34.65055  eV     1   --> A              
     e( 14 - 14) =    -34.62258  eV     1   --> A              
     e( 15 - 15) =    -34.62171  eV     1   --> A              
     e( 16 - 16) =    -27.54834  eV     1   --> A              
     e( 17 - 17) =    -27.54784  eV     1   --> A              
     e( 18 - 18) =    -27.54382  eV     1   --> A              
     e( 19 - 19) =    -27.54329  eV     1   --> A              
     e( 20 - 20) =    -27.54066  eV     1   --> A              
     e( 21 - 21) =    -27.53705  eV     1   --> A              
     e( 22 - 22) =    -27.53618  eV     1   --> A              
     e( 23 - 23) =    -27.53496  eV     1   --> A              
     e( 24 - 24) =    -27.53254  eV     1   --> A              
     e( 25 - 25) =    -27.53046  eV     1   --> A              
     e( 26 - 26) =    -10.68349  eV     1   --> A              
     e( 27 - 27) =    -10.14759  eV     1   --> A              
     e( 28 - 28) =     -9.07924  eV     1   --> A              
     e( 29 - 29) =     -6.35352  eV     1   --> A              
     e( 30 - 30) =     -5.02503  eV     1   --> A              
     e( 31 - 31) =     -0.31871  eV     1   --> A              
     e( 32 - 32) =     -0.22946  eV     1   --> A              
     e( 33 - 33) =      0.06185  eV     1   --> A              
     e( 34 - 34) =      0.16613  eV     1   --> A              
     e( 35 - 35) =      0.35994  eV     1   --> A              
     e( 36 - 36) =      0.58194  eV     1   --> A              
     e( 37 - 37) =      0.92367  eV     1   --> A              
     e( 38 - 38) =      0.99339  eV     1   --> A              
     e( 39 - 39) =      1.34739  eV     1   --> A              
     e( 40 - 40) =      2.38716  eV     1   --> A              
     e( 41 - 41) =      2.51538  eV     1   --> A              
     e( 42 - 42) =      2.80324  eV     1   --> A              
     e( 43 - 43) =      3.71722  eV     1   --> A              
     e( 44 - 44) =      3.78530  eV     1   --> A              
     e( 45 - 45) =      3.88904  eV     1   --> A              
     e( 46 - 46) =      6.19673  eV     1   --> A              
     e( 47 - 47) =      6.35265  eV     1   --> A              
     e( 48 - 48) =      6.94574  eV     1   --> A              
     e( 49 - 49) =      7.25741  eV     1   --> A              
     e( 50 - 50) =      7.53933  eV     1   --> A              
     e( 51 - 51) =      7.80866  eV     1   --> A              
     e( 52 - 52) =      8.40852  eV     1   --> A              
     e( 53 - 53) =      8.46058  eV     1   --> A              
     e( 54 - 54) =      8.59935  eV     1   --> A              
     e( 55 - 55) =      8.80856  eV     1   --> A              
     e( 56 - 56) =      9.08936  eV     1   --> A              
     e( 57 - 57) =      9.66190  eV     1   --> A              
     e( 58 - 58) =      9.72166  eV     1   --> A              
     e( 59 - 59) =      9.93289  eV     1   --> A              
     e( 60 - 60) =     10.15665  eV     1   --> A              
     e( 61 - 61) =     10.57445  eV     1   --> A              
     e( 62 - 62) =     10.85683  eV     1   --> A              
     e( 63 - 63) =     11.12913  eV     1   --> A              
     e( 64 - 64) =     11.19580  eV     1   --> A              
     e( 65 - 65) =     11.84966  eV     1   --> A              
     e( 66 - 66) =     11.86726  eV     1   --> A              
     e( 67 - 67) =     12.72334  eV     1   --> A              
     e( 68 - 68) =     12.85980  eV     1   --> A              
     e( 69 - 69) =     13.45592  eV     1   --> A              
     e( 70 - 70) =     13.81907  eV     1   --> A              
     e( 71 - 71) =     14.16654  eV     1   --> A              
     e( 72 - 72) =     14.40916  eV     1   --> A              
     e( 73 - 73) =     14.54310  eV     1   --> A              
     e( 74 - 74) =     14.83598  eV     1   --> A              
     e( 75 - 75) =     15.41439  eV     1   --> A              
     e( 76 - 76) =     15.64845  eV     1   --> A              
     e( 77 - 77) =     15.76931  eV     1   --> A              
     e( 78 - 78) =     16.03369  eV     1   --> A              
     e( 79 - 79) =     16.23519  eV     1   --> A              
     e( 80 - 80) =     16.29788  eV     1   --> A              
     e( 81 - 81) =     16.46305  eV     1   --> A              
     e( 82 - 82) =     16.50058  eV     1   --> A              
     e( 83 - 83) =     16.78016  eV     1   --> A              
     e( 84 - 84) =     16.91427  eV     1   --> A              
     e( 85 - 85) =     17.00485  eV     1   --> A              
     e( 86 - 86) =     17.13986  eV     1   --> A              
     e( 87 - 87) =     17.24880  eV     1   --> A              
     e( 88 - 88) =     17.58083  eV     1   --> A              
     e( 89 - 89) =     17.68368  eV     1   --> A              
     e( 90 - 90) =     17.87745  eV     1   --> A              
     e( 91 - 91) =     17.93099  eV     1   --> A              
     e( 92 - 92) =     18.05317  eV     1   --> A              
     e( 93 - 93) =     18.19219  eV     1   --> A              
     e( 94 - 94) =     18.22144  eV     1   --> A              
     e( 95 - 95) =     18.25572  eV     1   --> A              
     e( 96 - 96) =     18.47125  eV     1   --> A              
     e( 97 - 97) =     18.74155  eV     1   --> A              
     e( 98 - 98) =     18.99775  eV     1   --> A              
     e( 99 - 99) =     19.11616  eV     1   --> A              
     e(100 -100) =     19.20592  eV     1   --> A              

 **************************************************************************

 **************************************************************************

                    xk=(   0.05714,   0.03299,   0.00000  )

     Band symmetry, C_1 (1)     point group:

     e(  1 -  1) =    -34.77305  eV     1   --> A              
     e(  2 -  2) =    -34.77271  eV     1   --> A              
     e(  3 -  3) =    -34.76602  eV     1   --> A              
     e(  4 -  4) =    -34.76569  eV     1   --> A              
     e(  5 -  5) =    -34.74138  eV     1   --> A              
     e(  6 -  6) =    -34.73606  eV     1   --> A              
     e(  7 -  7) =    -34.73421  eV     1   --> A              
     e(  8 -  8) =    -34.72926  eV     1   --> A              
     e(  9 -  9) =    -34.72659  eV     1   --> A              
     e( 10 - 10) =    -34.71964  eV     1   --> A              
     e( 11 - 11) =    -34.66692  eV     1   --> A              
     e( 12 - 12) =    -34.66097  eV     1   --> A              
     e( 13 - 13) =    -34.65055  eV     1   --> A              
     e( 14 - 14) =    -34.62258  eV     1   --> A              
     e( 15 - 15) =    -34.62171  eV     1   --> A              
     e( 16 - 16) =    -27.54832  eV     1   --> A              
     e( 17 - 17) =    -27.54784  eV     1   --> A              
     e( 18 - 18) =    -27.54380  eV     1   --> A              
     e( 19 - 19) =    -27.54329  eV     1   --> A              
     e( 20 - 20) =    -27.54065  eV     1   --> A              
     e( 21 - 21) =    -27.53706  eV     1   --> A              
     e( 22 - 22) =    -27.53617  eV     1   --> A              
     e( 23 - 23) =    -27.53497  eV     1   --> A              
     e( 24 - 24) =    -27.53256  eV     1   --> A              
     e( 25 - 25) =    -27.53046  eV     1   --> A              
     e( 26 - 26) =    -10.67720  eV     1   --> A              
     e( 27 - 27) =    -10.14187  eV     1   --> A              
     e( 28 - 28) =     -9.07587  eV     1   --> A              
     e( 29 - 29) =     -6.35500  eV     1   --> A              
     e( 30 - 30) =     -5.03714  eV     1   --> A              
     e( 31 - 31) =     -0.36752  eV     1   --> A              
     e( 32 - 32) =     -0.26477  eV     1   --> A              
     e( 33 - 33) =      0.04124  eV     1   --> A              
     e( 34 - 34) =      0.14304  eV     1   --> A              
     e( 35 - 35) =      0.35215  eV     1   --> A              
     e( 36 - 36) =      0.53293  eV     1   --> A              
     e( 37 - 37) =      0.95957  eV     1   --> A              
     e( 38 - 38) =      1.00459  eV     1   --> A              
     e( 39 - 39) =      1.38661  eV     1   --> A              
     e( 40 - 40) =      2.44384  eV     1   --> A              
     e( 41 - 41) =      2.49028  eV     1   --> A              
     e( 42 - 42) =      2.81561  eV     1   --> A              
     e( 43 - 43) =      3.71934  eV     1   --> A              
     e( 44 - 44) =      3.80094  eV     1   --> A              
     e( 45 - 45) =      3.91661  eV     1   --> A              
     e( 46 - 46) =      6.20767  eV     1   --> A              
     e( 47 - 47) =      6.35376  eV     1   --> A              
     e( 48 - 48) =      6.94230  eV     1   --> A              
     e( 49 - 49) =      7.23335  eV     1   --> A              
     e( 50 - 50) =      7.54044  eV     1   --> A              
     e( 51 - 51) =      7.81887  eV     1   --> A              
     e( 52 - 52) =      8.38808  eV     1   --> A              
     e( 53 - 53) =      8.47460  eV     1   --> A              
     e( 54 - 54) =      8.59645  eV     1   --> A              
     e( 55 - 55) =      8.83674  eV     1   --> A              
     e( 56 - 56) =      9.08534  eV     1   --> A              
     e( 57 - 57) =      9.67303  eV     1   --> A              
     e( 58 - 58) =      9.74658  eV     1   --> A              
     e( 59 - 59) =      9.94845  eV     1   --> A              
     e( 60 - 60) =     10.18919  eV     1   --> A              
     e( 61 - 61) =     10.60880  eV     1   --> A              
     e( 62 - 62) =     10.82629  eV     1   --> A              
     e( 63 - 63) =     11.11593  eV     1   --> A              
     e( 64 - 64) =     11.18667  eV     1   --> A              
     e( 65 - 65) =     11.89652  eV     1   --> A              
     e( 66 - 66) =     11.92874  eV     1   --> A              
     e( 67 - 67) =     12.71147  eV     1   --> A              
     e( 68 - 68) =     12.87395  eV     1   --> A              
     e( 69 - 69) =     13.41450  eV     1   --> A              
     e( 70 - 70) =     13.78142  eV     1   --> A              
     e( 71 - 71) =     14.17453  eV     1   --> A              
     e( 72 - 72) =     14.44787  eV     1   --> A              
     e( 73 - 73) =     14.55782  eV     1   --> A              
     e( 74 - 74) =     14.78634  eV     1   --> A              
     e( 75 - 75) =     15.44628  eV     1   --> A              
     e( 76 - 76) =     15.60567  eV     1   --> A              
     e( 77 - 77) =     15.70645  eV     1   --> A              
     e( 78 - 78) =     15.96754  eV     1   --> A              
     e( 79 - 79) =     16.13863  eV     1   --> A              
     e( 80 - 80) =     16.30317  eV     1   --> A              
     e( 81 - 81) =     16.46658  eV     1   --> A              
     e( 82 - 82) =     16.54265  eV     1   --> A              
     e( 83 - 83) =     16.78498  eV     1   --> A              
     e( 84 - 84) =     16.93568  eV     1   --> A              
     e( 85 - 85) =     16.96746  eV     1   --> A              
     e( 86 - 86) =     17.10354  eV     1   --> A              
     e( 87 - 87) =     17.21415  eV     1   --> A              
     e( 88 - 88) =     17.59733  eV     1   --> A              
     e( 89 - 89) =     17.75151  eV     1   --> A              
     e( 90 - 90) =     17.85379  eV     1   --> A              
     e( 91 - 91) =     17.97737  eV     1   --> A              
     e( 92 - 92) =     18.10474  eV     1   --> A              
     e( 93 - 93) =     18.12743  eV     1   --> A              
     e( 94 - 94) =     18.32667  eV     1   --> A              
     e( 95 - 95) =     18.34323  eV     1   --> A              
     e( 96 - 96) =     18.53381  eV     1   --> A              
     e( 97 - 97) =     18.68568  eV     1   --> A              
     e( 98 - 98) =     18.95411  eV     1   --> A              
     e( 99 - 99) =     19.07280  eV     1   --> A              
     e(100 -100) =     19.15691  eV     1   --> A              

 **************************************************************************

 **************************************************************************

                    xk=(   0.06429,   0.03712,   0.00000  )

     Band symmetry, C_1 (1)     point group:

     e(  1 -  1) =    -34.77304  eV     1   --> A              
     e(  2 -  2) =    -34.77270  eV     1   --> A              
     e(  3 -  3) =    -34.76602  eV     1   --> A              
     e(  4 -  4) =    -34.76569  eV     1   --> A              
     e(  5 -  5) =    -34.74138  eV     1   --> A              
     e(  6 -  6) =    -34.73606  eV     1   --> A              
     e(  7 -  7) =    -34.73422  eV     1   --> A              
     e(  8 -  8) =    -34.72927  eV     1   --> A              
     e(  9 -  9) =    -34.72659  eV     1   --> A              
     e( 10 - 10) =    -34.71963  eV     1   --> A              
     e( 11 - 11) =    -34.66692  eV     1   --> A              
     e( 12 - 12) =    -34.66098  eV     1   --> A              
     e( 13 - 13) =    -34.65055  eV     1   --> A              
     e( 14 - 14) =    -34.62257  eV     1   --> A              
     e( 15 - 15) =    -34.62171  eV     1   --> A              
     e( 16 - 16) =    -27.54830  eV     1   --> A              
     e( 17 - 17) =    -27.54784  eV     1   --> A              
     e( 18 - 18) =    -27.54378  eV     1   --> A              
     e( 19 - 19) =    -27.54328  eV     1   --> A              
     e( 20 - 20) =    -27.54065  eV     1   --> A              
     e( 21 - 21) =    -27.53708  eV     1   --> A              
     e( 22 - 22) =    -27.53616  eV     1   --> A              
     e( 23 - 23) =    -27.53497  eV     1   --> A              
     e( 24 - 24) =    -27.53257  eV     1   --> A              
     e( 25 - 25) =    -27.53046  eV     1   --> A              
     e( 26 - 26) =    -10.67008  eV     1   --> A              
     e( 27 - 27) =    -10.13540  eV     1   --> A              
     e( 28 - 28) =     -9.07208  eV     1   --> A              
     e( 29 - 29) =     -6.35671  eV     1   --> A              
     e( 30 - 30) =     -5.05085  eV     1   --> A              
     e( 31 - 31) =     -0.42647  eV     1   --> A              
     e( 32 - 32) =     -0.29581  eV     1   --> A              
     e( 33 - 33) =      0.02060  eV     1   --> A              
     e( 34 - 34) =      0.11873  eV     1   --> A              
     e( 35 - 35) =      0.34299  eV     1   --> A              
     e( 36 - 36) =      0.48127  eV     1   --> A              
     e( 37 - 37) =      0.99131  eV     1   --> A              
     e( 38 - 38) =      1.02229  eV     1   --> A              
     e( 39 - 39) =      1.42326  eV     1   --> A              
     e( 40 - 40) =      2.44822  eV     1   --> A              
     e( 41 - 41) =      2.52340  eV     1   --> A              
     e( 42 - 42) =      2.82986  eV     1   --> A              
     e( 43 - 43) =      3.71232  eV     1   --> A              
     e( 44 - 44) =      3.82081  eV     1   --> A              
     e( 45 - 45) =      3.95137  eV     1   --> A              
     e( 46 - 46) =      6.21988  eV     1   --> A              
     e( 47 - 47) =      6.35477  eV     1   --> A              
     e( 48 - 48) =      6.93611  eV     1   --> A              
     e( 49 - 49) =      7.21088  eV     1   --> A              
     e( 50 - 50) =      7.54183  eV     1   --> A              
     e( 51 - 51) =      7.83107  eV     1   --> A              
     e( 52 - 52) =      8.35957  eV     1   --> A              
     e( 53 - 53) =      8.49611  eV     1   --> A              
     e( 54 - 54) =      8.59580  eV     1   --> A              
     e( 55 - 55) =      8.86665  eV     1   --> A              
     e( 56 - 56) =      9.08312  eV     1   --> A              
     e( 57 - 57) =      9.66992  eV     1   --> A              
     e( 58 - 58) =      9.77393  eV     1   --> A              
     e( 59 - 59) =      9.97704  eV     1   --> A              
     e( 60 - 60) =     10.22498  eV     1   --> A              
     e( 61 - 61) =     10.64845  eV     1   --> A              
     e( 62 - 62) =     10.79311  eV     1   --> A              
     e( 63 - 63) =     11.10390  eV     1   --> A              
     e( 64 - 64) =     11.18526  eV     1   --> A              
     e( 65 - 65) =     11.94335  eV     1   --> A              
     e( 66 - 66) =     11.98819  eV     1   --> A              
     e( 67 - 67) =     12.69923  eV     1   --> A              
     e( 68 - 68) =     12.88932  eV     1   --> A              
     e( 69 - 69) =     13.37790  eV     1   --> A              
     e( 70 - 70) =     13.74547  eV     1   --> A              
     e( 71 - 71) =     14.18040  eV     1   --> A              
     e( 72 - 72) =     14.47042  eV     1   --> A              
     e( 73 - 73) =     14.54575  eV     1   --> A              
     e( 74 - 74) =     14.77783  eV     1   --> A              
     e( 75 - 75) =     15.45886  eV     1   --> A              
     e( 76 - 76) =     15.56323  eV     1   --> A              
     e( 77 - 77) =     15.65003  eV     1   --> A              
     e( 78 - 78) =     15.91024  eV     1   --> A              
     e( 79 - 79) =     16.04534  eV     1   --> A              
     e( 80 - 80) =     16.30815  eV     1   --> A              
     e( 81 - 81) =     16.47379  eV     1   --> A              
     e( 82 - 82) =     16.56972  eV     1   --> A              
     e( 83 - 83) =     16.77822  eV     1   --> A              
     e( 84 - 84) =     16.90995  eV     1   --> A              
     e( 85 - 85) =     16.98875  eV     1   --> A              
     e( 86 - 86) =     17.08404  eV     1   --> A              
     e( 87 - 87) =     17.18368  eV     1   --> A              
     e( 88 - 88) =     17.58485  eV     1   --> A              
     e( 89 - 89) =     17.77860  eV     1   --> A              
     e( 90 - 90) =     17.85598  eV     1   --> A              
     e( 91 - 91) =     17.94851  eV     1   --> A              
     e( 92 - 92) =     18.13174  eV     1   --> A              
     e( 93 - 93) =     18.20253  eV     1   --> A              
     e( 94 - 94) =     18.41839  eV     1   --> A              
     e( 95 - 95) =     18.45236  eV     1   --> A              
     e( 96 - 96) =     18.59456  eV     1   --> A              
     e( 97 - 97) =     18.64252  eV     1   --> A              
     e( 98 - 98) =     18.91628  eV     1   --> A              
     e( 99 - 99) =     19.03357  eV     1   --> A              
     e(100 -100) =     19.11146  eV     1   --> A              

 **************************************************************************

 **************************************************************************

                    xk=(   0.07143,   0.04124,   0.00000  )

     Band symmetry, C_1 (1)     point group:

     e(  1 -  1) =    -34.77303  eV     1   --> A              
     e(  2 -  2) =    -34.77270  eV     1   --> A              
     e(  3 -  3) =    -34.76601  eV     1   --> A              
     e(  4 -  4) =    -34.76568  eV     1   --> A              
     e(  5 -  5) =    -34.74138  eV     1   --> A              
     e(  6 -  6) =    -34.73606  eV     1   --> A              
     e(  7 -  7) =    -34.73422  eV     1   --> A              
     e(  8 -  8) =    -34.72927  eV     1   --> A              
     e(  9 -  9) =    -34.72658  eV     1   --> A              
     e( 10 - 10) =    -34.71963  eV     1   --> A              
     e( 11 - 11) =    -34.66691  eV     1   --> A              
     e( 12 - 12) =    -34.66098  eV     1   --> A              
     e( 13 - 13) =    -34.65055  eV     1   --> A              
     e( 14 - 14) =    -34.62256  eV     1   --> A              
     e( 15 - 15) =    -34.62170  eV     1   --> A              
     e( 16 - 16) =    -27.54828  eV     1   --> A              
     e( 17 - 17) =    -27.54783  eV     1   --> A              
     e( 18 - 18) =    -27.54376  eV     1   --> A              
     e( 19 - 19) =    -27.54328  eV     1   --> A              
     e( 20 - 20) =    -27.54064  eV     1   --> A              
     e( 21 - 21) =    -27.53709  eV     1   --> A              
     e( 22 - 22) =    -27.53616  eV     1   --> A              
     e( 23 - 23) =    -27.53497  eV     1   --> A              
     e( 24 - 24) =    -27.53259  eV     1   --> A              
     e( 25 - 25) =    -27.53046  eV     1   --> A              
     e( 26 - 26) =    -10.66213  eV     1   --> A              
     e( 27 - 27) =    -10.12817  eV     1   --> A              
     e( 28 - 28) =     -9.06785  eV     1   --> A              
     e( 29 - 29) =     -6.35870  eV     1   --> A              
     e( 30 - 30) =     -5.06613  eV     1   --> A              
     e( 31 - 31) =     -0.49147  eV     1   --> A              
     e( 32 - 32) =     -0.32549  eV     1   --> A              
     e( 33 - 33) =     -0.00063  eV     1   --> A              
     e( 34 - 34) =      0.09345  eV     1   --> A              
     e( 35 - 35) =      0.33246  eV     1   --> A              
     e( 36 - 36) =      0.42874  eV     1   --> A              
     e( 37 - 37) =      1.01012  eV     1   --> A              
     e( 38 - 38) =      1.05437  eV     1   --> A              
     e( 39 - 39) =      1.45492  eV     1   --> A              
     e( 40 - 40) =      2.42818  eV     1   --> A              
     e( 41 - 41) =      2.58774  eV     1   --> A              
     e( 42 - 42) =      2.84597  eV     1   --> A              
     e( 43 - 43) =      3.70163  eV     1   --> A              
     e( 44 - 44) =      3.84103  eV     1   --> A              
     e( 45 - 45) =      3.99153  eV     1   --> A              
     e( 46 - 46) =      6.23328  eV     1   --> A              
     e( 47 - 47) =      6.35555  eV     1   --> A              
     e( 48 - 48) =      6.92627  eV     1   --> A              
     e( 49 - 49) =      7.19158  eV     1   --> A              
     e( 50 - 50) =      7.54350  eV     1   --> A              
     e( 51 - 51) =      7.84521  eV     1   --> A              
     e( 52 - 52) =      8.33008  eV     1   --> A              
     e( 53 - 53) =      8.51885  eV     1   --> A              
     e( 54 - 54) =      8.59638  eV     1   --> A              
     e( 55 - 55) =      8.89794  eV     1   --> A              
     e( 56 - 56) =      9.08324  eV     1   --> A              
     e( 57 - 57) =      9.65696  eV     1   --> A              
     e( 58 - 58) =      9.80204  eV     1   --> A              
     e( 59 - 59) =     10.01582  eV     1   --> A              
     e( 60 - 60) =     10.26274  eV     1   --> A              
     e( 61 - 61) =     10.69343  eV     1   --> A              
     e( 62 - 62) =     10.76014  eV     1   --> A              
     e( 63 - 63) =     11.09293  eV     1   --> A              
     e( 64 - 64) =     11.18992  eV     1   --> A              
     e( 65 - 65) =     11.98979  eV     1   --> A              
     e( 66 - 66) =     12.04447  eV     1   --> A              
     e( 67 - 67) =     12.68726  eV     1   --> A              
     e( 68 - 68) =     12.90561  eV     1   --> A              
     e( 69 - 69) =     13.34729  eV     1   --> A              
     e( 70 - 70) =     13.71159  eV     1   --> A              
     e( 71 - 71) =     14.18015  eV     1   --> A              
     e( 72 - 72) =     14.44209  eV     1   --> A              
     e( 73 - 73) =     14.55220  eV     1   --> A              
     e( 74 - 74) =     14.80535  eV     1   --> A              
     e( 75 - 75) =     15.41503  eV     1   --> A              
     e( 76 - 76) =     15.53267  eV     1   --> A              
     e( 77 - 77) =     15.61536  eV     1   --> A              
     e( 78 - 78) =     15.86222  eV     1   --> A              
     e( 79 - 79) =     15.97184  eV     1   --> A              
     e( 80 - 80) =     16.30998  eV     1   --> A              
     e( 81 - 81) =     16.48170  eV     1   --> A              
     e( 82 - 82) =     16.57294  eV     1   --> A              
     e( 83 - 83) =     16.77923  eV     1   --> A              
     e( 84 - 84) =     16.87284  eV     1   --> A              
     e( 85 - 85) =     16.99340  eV     1   --> A              
     e( 86 - 86) =     17.07965  eV     1   --> A              
     e( 87 - 87) =     17.18568  eV     1   --> A              
     e( 88 - 88) =     17.52682  eV     1   --> A              
     e( 89 - 89) =     17.79632  eV     1   --> A              
     e( 90 - 90) =     17.81438  eV     1   --> A              
     e( 91 - 91) =     17.96902  eV     1   --> A              
     e( 92 - 92) =     18.21378  eV     1   --> A              
     e( 93 - 93) =     18.27588  eV     1   --> A              
     e( 94 - 94) =     18.49540  eV     1   --> A              
     e( 95 - 95) =     18.55060  eV     1   --> A              
     e( 96 - 96) =     18.59484  eV     1   --> A              
     e( 97 - 97) =     18.68255  eV     1   --> A              
     e( 98 - 98) =     18.88712  eV     1   --> A              
     e( 99 - 99) =     19.00281  eV     1   --> A              
     e(100 -100) =     19.07762  eV     1   --> A              

 **************************************************************************

 **************************************************************************

                    xk=(   0.07857,   0.04536,   0.00000  )

     Band symmetry, C_1 (1)     point group:

     e(  1 -  1) =    -34.77303  eV     1   --> A              
     e(  2 -  2) =    -34.77269  eV     1   --> A              
     e(  3 -  3) =    -34.76600  eV     1   --> A              
     e(  4 -  4) =    -34.76568  eV     1   --> A              
     e(  5 -  5) =    -34.74138  eV     1   --> A              
     e(  6 -  6) =    -34.73606  eV     1   --> A              
     e(  7 -  7) =    -34.73422  eV     1   --> A              
     e(  8 -  8) =    -34.72927  eV     1   --> A              
     e(  9 -  9) =    -34.72658  eV     1   --> A              
     e( 10 - 10) =    -34.71963  eV     1   --> A              
     e( 11 - 11) =    -34.66691  eV     1   --> A              
     e( 12 - 12) =    -34.66098  eV     1   --> A              
     e( 13 - 13) =    -34.65055  eV     1   --> A              
     e( 14 - 14) =    -34.62256  eV     1   --> A              
     e( 15 - 15) =    -34.62170  eV     1   --> A              
     e( 16 - 16) =    -27.54826  eV     1   --> A              
     e( 17 - 17) =    -27.54783  eV     1   --> A              
     e( 18 - 18) =    -27.54374  eV     1   --> A              
     e( 19 - 19) =    -27.54327  eV     1   --> A              
     e( 20 - 20) =    -27.54063  eV     1   --> A              
     e( 21 - 21) =    -27.53711  eV     1   --> A              
     e( 22 - 22) =    -27.53615  eV     1   --> A              
     e( 23 - 23) =    -27.53498  eV     1   --> A              
     e( 24 - 24) =    -27.53260  eV     1   --> A              
     e( 25 - 25) =    -27.53046  eV     1   --> A              
     e( 26 - 26) =    -10.65333  eV     1   --> A              
     e( 27 - 27) =    -10.12018  eV     1   --> A              
     e( 28 - 28) =     -9.06319  eV     1   --> A              
     e( 29 - 29) =     -6.36095  eV     1   --> A              
     e( 30 - 30) =     -5.08298  eV     1   --> A              
     e( 31 - 31) =     -0.56003  eV     1   --> A              
     e( 32 - 32) =     -0.35525  eV     1   --> A              
     e( 33 - 33) =     -0.02298  eV     1   --> A              
     e( 34 - 34) =      0.06692  eV     1   --> A              
     e( 35 - 35) =      0.32059  eV     1   --> A              
     e( 36 - 36) =      0.37711  eV     1   --> A              
     e( 37 - 37) =      1.02197  eV     1   --> A              
     e( 38 - 38) =      1.09415  eV     1   --> A              
     e( 39 - 39) =      1.47932  eV     1   --> A              
     e( 40 - 40) =      2.41362  eV     1   --> A              
     e( 41 - 41) =      2.65415  eV     1   --> A              
     e( 42 - 42) =      2.86403  eV     1   --> A              
     e( 43 - 43) =      3.68993  eV     1   --> A              
     e( 44 - 44) =      3.86103  eV     1   --> A              
     e( 45 - 45) =      4.03502  eV     1   --> A              
     e( 46 - 46) =      6.24779  eV     1   --> A              
     e( 47 - 47) =      6.35594  eV     1   --> A              
     e( 48 - 48) =      6.91220  eV     1   --> A              
     e( 49 - 49) =      7.17677  eV     1   --> A              
     e( 50 - 50) =      7.54547  eV     1   --> A              
     e( 51 - 51) =      7.86121  eV     1   --> A              
     e( 52 - 52) =      8.30180  eV     1   --> A              
     e( 53 - 53) =      8.54130  eV     1   --> A              
     e( 54 - 54) =      8.59723  eV     1   --> A              
     e( 55 - 55) =      8.93016  eV     1   --> A              
     e( 56 - 56) =      9.08636  eV     1   --> A              
     e( 57 - 57) =      9.63862  eV     1   --> A              
     e( 58 - 58) =      9.83005  eV     1   --> A              
     e( 59 - 59) =     10.06129  eV     1   --> A              
     e( 60 - 60) =     10.30064  eV     1   --> A              
     e( 61 - 61) =     10.72997  eV     1   --> A              
     e( 62 - 62) =     10.74368  eV     1   --> A              
     e( 63 - 63) =     11.08433  eV     1   --> A              
     e( 64 - 64) =     11.19837  eV     1   --> A              
[...]
     e(  3 -  3) =    -34.76605  eV     1   --> A              
     e(  4 -  4) =    -34.76570  eV     1   --> A              
     e(  5 -  5) =    -34.74137  eV     1   --> A              
     e(  6 -  6) =    -34.73606  eV     1   --> A              
     e(  7 -  7) =    -34.73421  eV     1   --> A              
     e(  8 -  8) =    -34.72926  eV     1   --> A              
     e(  9 -  9) =    -34.72661  eV     1   --> A              
     e( 10 - 10) =    -34.71965  eV     1   --> A              
     e( 11 - 11) =    -34.66694  eV     1   --> A              
     e( 12 - 12) =    -34.66097  eV     1   --> A              
     e( 13 - 13) =    -34.65054  eV     1   --> A              
     e( 14 - 14) =    -34.62260  eV     1   --> A              
     e( 15 - 15) =    -34.62172  eV     1   --> A              
     e( 16 - 16) =    -27.54839  eV     1   --> A              
     e( 17 - 17) =    -27.54784  eV     1   --> A              
     e( 18 - 18) =    -27.54387  eV     1   --> A              
     e( 19 - 19) =    -27.54329  eV     1   --> A              
     e( 20 - 20) =    -27.54068  eV     1   --> A              
     e( 21 - 21) =    -27.53700  eV     1   --> A              
     e( 22 - 22) =    -27.53620  eV     1   --> A              
     e( 23 - 23) =    -27.53496  eV     1   --> A              
     e( 24 - 24) =    -27.53250  eV     1   --> A              
     e( 25 - 25) =    -27.53046  eV     1   --> A              
     e( 26 - 26) =    -10.70178  eV     1   --> A              
     e( 27 - 27) =    -10.16422  eV     1   --> A              
     e( 28 - 28) =     -9.08908  eV     1   --> A              
     e( 29 - 29) =     -6.34937  eV     1   --> A              
     e( 30 - 30) =     -4.98950  eV     1   --> A              
     e( 31 - 31) =     -0.22410  eV     1   --> A              
     e( 32 - 32) =     -0.04267  eV     1   --> A              
     e( 33 - 33) =      0.19328  eV     1   --> A              
     e( 34 - 34) =      0.20321  eV     1   --> A              
     e( 35 - 35) =      0.37384  eV     1   --> A              
     e( 36 - 36) =      0.71973  eV     1   --> A              
     e( 37 - 37) =      0.81567  eV     1   --> A              
     e( 38 - 38) =      0.94797  eV     1   --> A              
     e( 39 - 39) =      1.20458  eV     1   --> A              
     e( 40 - 40) =      2.16307  eV     1   --> A              
     e( 41 - 41) =      2.65758  eV     1   --> A              
     e( 42 - 42) =      2.76487  eV     1   --> A              
     e( 43 - 43) =      3.59772  eV     1   --> A              
     e( 44 - 44) =      3.78362  eV     1   --> A              
     e( 45 - 45) =      3.84904  eV     1   --> A              
     e( 46 - 46) =      6.16404  eV     1   --> A              
     e( 47 - 47) =      6.34863  eV     1   --> A              
     e( 48 - 48) =      6.94640  eV     1   --> A              
     e( 49 - 49) =      7.35713  eV     1   --> A              
     e( 50 - 50) =      7.53856  eV     1   --> A              
     e( 51 - 51) =      7.77082  eV     1   --> A              
     e( 52 - 52) =      8.34802  eV     1   --> A              
     e( 53 - 53) =      8.52965  eV     1   --> A              
     e( 54 - 54) =      8.65901  eV     1   --> A              
     e( 55 - 55) =      8.70386  eV     1   --> A              
     e( 56 - 56) =      9.12097  eV     1   --> A              
     e( 57 - 57) =      9.50330  eV     1   --> A              
     e( 58 - 58) =      9.64390  eV     1   --> A              
     e( 59 - 59) =      9.96601  eV     1   --> A              
     e( 60 - 60) =     10.06511  eV     1   --> A              
     e( 61 - 61) =     10.48463  eV     1   --> A              
     e( 62 - 62) =     10.90215  eV     1   --> A              
     e( 63 - 63) =     11.25181  eV     1   --> A              
     e( 64 - 64) =     11.35796  eV     1   --> A              
     e( 65 - 65) =     11.51377  eV     1   --> A              
     e( 66 - 66) =     11.68676  eV     1   --> A              
     e( 67 - 67) =     12.76797  eV     1   --> A              
     e( 68 - 68) =     12.81457  eV     1   --> A              
     e( 69 - 69) =     13.67304  eV     1   --> A              
     e( 70 - 70) =     14.04188  eV     1   --> A              
     e( 71 - 71) =     14.04802  eV     1   --> A              
     e( 72 - 72) =     14.19253  eV     1   --> A              
     e( 73 - 73) =     14.41339  eV     1   --> A              
     e( 74 - 74) =     15.02237  eV     1   --> A              
     e( 75 - 75) =     15.48971  eV     1   --> A              
     e( 76 - 76) =     15.89369  eV     1   --> A              
     e( 77 - 77) =     15.92037  eV     1   --> A              
     e( 78 - 78) =     16.03941  eV     1   --> A              
     e( 79 - 79) =     16.15119  eV     1   --> A              
     e( 80 - 80) =     16.32681  eV     1   --> A              
     e( 81 - 81) =     16.61463  eV     1   --> A              
     e( 82 - 82) =     16.70710  eV     1   --> A              
     e( 83 - 83) =     16.86183  eV     1   --> A              
     e( 84 - 84) =     17.08583  eV     1   --> A              
     e( 85 - 85) =     17.14709  eV     1   --> A              
     e( 86 - 86) =     17.20837  eV     1   --> A              
     e( 87 - 87) =     17.24368  eV     1   --> A              
     e( 88 - 88) =     17.46013  eV     1   --> A              
     e( 89 - 89) =     17.46989  eV     1   --> A              
     e( 90 - 90) =     17.48929  eV     1   --> A              
     e( 91 - 91) =     17.53744  eV     1   --> A              
     e( 92 - 92) =     17.82392  eV     1   --> A              
     e( 93 - 93) =     17.91504  eV     1   --> A              
     e( 94 - 94) =     18.18501  eV     1   --> A              
     e( 95 - 95) =     18.63402  eV     1   --> A              
     e( 96 - 96) =     18.77325  eV     1   --> A              
     e( 97 - 97) =     19.06818  eV     1   --> A              
     e( 98 - 98) =     19.10072  eV     1   --> A              
     e( 99 - 99) =     19.14661  eV     1   --> A              
     e(100 -100) =     19.29986  eV     1   --> A              

 **************************************************************************

 **************************************************************************

                    xk=(   0.00476,   0.00841,   0.00000  )

     Band symmetry, C_1 (1)     point group:

     e(  1 -  1) =    -34.77307  eV     1   --> A              
     e(  2 -  2) =    -34.77272  eV     1   --> A              
     e(  3 -  3) =    -34.76605  eV     1   --> A              
     e(  4 -  4) =    -34.76570  eV     1   --> A              
     e(  5 -  5) =    -34.74137  eV     1   --> A              
     e(  6 -  6) =    -34.73606  eV     1   --> A              
     e(  7 -  7) =    -34.73421  eV     1   --> A              
     e(  8 -  8) =    -34.72926  eV     1   --> A              
     e(  9 -  9) =    -34.72661  eV     1   --> A              
     e( 10 - 10) =    -34.71965  eV     1   --> A              
     e( 11 - 11) =    -34.66694  eV     1   --> A              
     e( 12 - 12) =    -34.66096  eV     1   --> A              
     e( 13 - 13) =    -34.65054  eV     1   --> A              
     e( 14 - 14) =    -34.62260  eV     1   --> A              
     e( 15 - 15) =    -34.62172  eV     1   --> A              
     e( 16 - 16) =    -27.54839  eV     1   --> A              
     e( 17 - 17) =    -27.54785  eV     1   --> A              
     e( 18 - 18) =    -27.54388  eV     1   --> A              
     e( 19 - 19) =    -27.54330  eV     1   --> A              
     e( 20 - 20) =    -27.54068  eV     1   --> A              
     e( 21 - 21) =    -27.53700  eV     1   --> A              
     e( 22 - 22) =    -27.53620  eV     1   --> A              
     e( 23 - 23) =    -27.53496  eV     1   --> A              
     e( 24 - 24) =    -27.53250  eV     1   --> A              
     e( 25 - 25) =    -27.53045  eV     1   --> A              
     e( 26 - 26) =    -10.70351  eV     1   --> A              
     e( 27 - 27) =    -10.16581  eV     1   --> A              
     e( 28 - 28) =     -9.09004  eV     1   --> A              
     e( 29 - 29) =     -6.34908  eV     1   --> A              
     e( 30 - 30) =     -4.98641  eV     1   --> A              
     e( 31 - 31) =     -0.21848  eV     1   --> A              
     e( 32 - 32) =     -0.02583  eV     1   --> A              
     e( 33 - 33) =      0.20255  eV     1   --> A              
     e( 34 - 34) =      0.21532  eV     1   --> A              
     e( 35 - 35) =      0.38432  eV     1   --> A              
     e( 36 - 36) =      0.71520  eV     1   --> A              
     e( 37 - 37) =      0.81359  eV     1   --> A              
     e( 38 - 38) =      0.95236  eV     1   --> A              
     e( 39 - 39) =      1.18542  eV     1   --> A              
     e( 40 - 40) =      2.14197  eV     1   --> A              
     e( 41 - 41) =      2.66363  eV     1   --> A              
     e( 42 - 42) =      2.76968  eV     1   --> A              
     e( 43 - 43) =      3.58453  eV     1   --> A              
     e( 44 - 44) =      3.78126  eV     1   --> A              
     e( 45 - 45) =      3.84594  eV     1   --> A              
     e( 46 - 46) =      6.16086  eV     1   --> A              
     e( 47 - 47) =      6.34802  eV     1   --> A              
     e( 48 - 48) =      6.94596  eV     1   --> A              
     e( 49 - 49) =      7.36087  eV     1   --> A              
     e( 50 - 50) =      7.53850  eV     1   --> A              
     e( 51 - 51) =      7.78080  eV     1   --> A              
     e( 52 - 52) =      8.33342  eV     1   --> A              
     e( 53 - 53) =      8.53365  eV     1   --> A              
     e( 54 - 54) =      8.67054  eV     1   --> A              
     e( 55 - 55) =      8.69818  eV     1   --> A              
     e( 56 - 56) =      9.12343  eV     1   --> A              
     e( 57 - 57) =      9.48697  eV     1   --> A              
     e( 58 - 58) =      9.63425  eV     1   --> A              
     e( 59 - 59) =      9.96950  eV     1   --> A              
     e( 60 - 60) =     10.05431  eV     1   --> A              
     e( 61 - 61) =     10.47364  eV     1   --> A              
     e( 62 - 62) =     10.90946  eV     1   --> A              
     e( 63 - 63) =     11.29741  eV     1   --> A              
     e( 64 - 64) =     11.37698  eV     1   --> A              
     e( 65 - 65) =     11.46575  eV     1   --> A              
     e( 66 - 66) =     11.64747  eV     1   --> A              
     e( 67 - 67) =     12.77320  eV     1   --> A              
     e( 68 - 68) =     12.80557  eV     1   --> A              
     e( 69 - 69) =     13.71040  eV     1   --> A              
     e( 70 - 70) =     14.01559  eV     1   --> A              
     e( 71 - 71) =     14.09369  eV     1   --> A              
     e( 72 - 72) =     14.17893  eV     1   --> A              
     e( 73 - 73) =     14.37882  eV     1   --> A              
     e( 74 - 74) =     15.00786  eV     1   --> A              
     e( 75 - 75) =     15.54472  eV     1   --> A              
     e( 76 - 76) =     15.90350  eV     1   --> A              
     e( 77 - 77) =     15.96546  eV     1   --> A              
     e( 78 - 78) =     15.98053  eV     1   --> A              
     e( 79 - 79) =     16.15078  eV     1   --> A              
     e( 80 - 80) =     16.30296  eV     1   --> A              
     e( 81 - 81) =     16.61515  eV     1   --> A              
     e( 82 - 82) =     16.80075  eV     1   --> A              
     e( 83 - 83) =     16.93535  eV     1   --> A              
     e( 84 - 84) =     17.01224  eV     1   --> A              
     e( 85 - 85) =     17.16767  eV     1   --> A              
     e( 86 - 86) =     17.23156  eV     1   --> A              
     e( 87 - 87) =     17.25983  eV     1   --> A              
     e( 88 - 88) =     17.36214  eV     1   --> A              
     e( 89 - 89) =     17.48596  eV     1   --> A              
     e( 90 - 90) =     17.51733  eV     1   --> A              
     e( 91 - 91) =     17.56625  eV     1   --> A              
     e( 92 - 92) =     17.79089  eV     1   --> A              
     e( 93 - 93) =     17.82360  eV     1   --> A              
     e( 94 - 94) =     18.09686  eV     1   --> A              
     e( 95 - 95) =     18.74057  eV     1   --> A              
     e( 96 - 96) =     18.86038  eV     1   --> A              
     e( 97 - 97) =     19.00253  eV     1   --> A              
     e( 98 - 98) =     19.13866  eV     1   --> A              
     e( 99 - 99) =     19.16868  eV     1   --> A              
     e(100 -100) =     19.29527  eV     1   --> A              

 **************************************************************************

 **************************************************************************

                    xk=(   0.00000,   0.00000,   0.00000  )

     Band symmetry, C_1 (1)     point group:

     e(  1 -  1) =    -34.77307  eV     1   --> A              
     e(  2 -  2) =    -34.77272  eV     1   --> A              
     e(  3 -  3) =    -34.76605  eV     1   --> A              
     e(  4 -  4) =    -34.76571  eV     1   --> A              
     e(  5 -  5) =    -34.74137  eV     1   --> A              
     e(  6 -  6) =    -34.73606  eV     1   --> A              
     e(  7 -  7) =    -34.73421  eV     1   --> A              
     e(  8 -  8) =    -34.72926  eV     1   --> A              
     e(  9 -  9) =    -34.72661  eV     1   --> A              
     e( 10 - 10) =    -34.71965  eV     1   --> A              
     e( 11 - 11) =    -34.66694  eV     1   --> A              
     e( 12 - 12) =    -34.66097  eV     1   --> A              
     e( 13 - 13) =    -34.65054  eV     1   --> A              
     e( 14 - 14) =    -34.62260  eV     1   --> A              
     e( 15 - 15) =    -34.62172  eV     1   --> A              
     e( 16 - 16) =    -27.54839  eV     1   --> A              
     e( 17 - 17) =    -27.54785  eV     1   --> A              
     e( 18 - 18) =    -27.54388  eV     1   --> A              
     e( 19 - 19) =    -27.54330  eV     1   --> A              
     e( 20 - 20) =    -27.54068  eV     1   --> A              
     e( 21 - 21) =    -27.53700  eV     1   --> A              
     e( 22 - 22) =    -27.53620  eV     1   --> A              
     e( 23 - 23) =    -27.53496  eV     1   --> A              
     e( 24 - 24) =    -27.53250  eV     1   --> A              
     e( 25 - 25) =    -27.53045  eV     1   --> A              
     e( 26 - 26) =    -10.70411  eV     1   --> A              
     e( 27 - 27) =    -10.16635  eV     1   --> A              
     e( 28 - 28) =     -9.09034  eV     1   --> A              
     e( 29 - 29) =     -6.34901  eV     1   --> A              
     e( 30 - 30) =     -4.98538  eV     1   --> A              
     e( 31 - 31) =     -0.21667  eV     1   --> A              
     e( 32 - 32) =     -0.02018  eV     1   --> A              
     e( 33 - 33) =      0.20600  eV     1   --> A              
     e( 34 - 34) =      0.21929  eV     1   --> A              
     e( 35 - 35) =      0.38813  eV     1   --> A              
     e( 36 - 36) =      0.71256  eV     1   --> A              
     e( 37 - 37) =      0.81343  eV     1   --> A              
     e( 38 - 38) =      0.95409  eV     1   --> A              
     e( 39 - 39) =      1.17896  eV     1   --> A              
     e( 40 - 40) =      2.13464  eV     1   --> A              
     e( 41 - 41) =      2.66542  eV     1   --> A              
     e( 42 - 42) =      2.77183  eV     1   --> A              
     e( 43 - 43) =      3.57973  eV     1   --> A              
     e( 44 - 44) =      3.78045  eV     1   --> A              
     e( 45 - 45) =      3.84511  eV     1   --> A              
     e( 46 - 46) =      6.15979  eV     1   --> A              
     e( 47 - 47) =      6.34782  eV     1   --> A              
     e( 48 - 48) =      6.94580  eV     1   --> A              
     e( 49 - 49) =      7.36205  eV     1   --> A              
     e( 50 - 50) =      7.53849  eV     1   --> A              
     e( 51 - 51) =      7.78442  eV     1   --> A              
     e( 52 - 52) =      8.32828  eV     1   --> A              
     e( 53 - 53) =      8.53496  eV     1   --> A              
     e( 54 - 54) =      8.67459  eV     1   --> A              
     e( 55 - 55) =      8.69631  eV     1   --> A              
     e( 56 - 56) =      9.12442  eV     1   --> A              
     e( 57 - 57) =      9.48122  eV     1   --> A              
     e( 58 - 58) =      9.63083  eV     1   --> A              
     e( 59 - 59) =      9.97083  eV     1   --> A              
     e( 60 - 60) =     10.05069  eV     1   --> A              
     e( 61 - 61) =     10.46999  eV     1   --> A              
     e( 62 - 62) =     10.91188  eV     1   --> A              
     e( 63 - 63) =     11.31571  eV     1   --> A              
     e( 64 - 64) =     11.39825  eV     1   --> A              
     e( 65 - 65) =     11.43333  eV     1   --> A              
     e( 66 - 66) =     11.63270  eV     1   --> A              
     e( 67 - 67) =     12.77557  eV     1   --> A              
     e( 68 - 68) =     12.80194  eV     1   --> A              
     e( 69 - 69) =     13.72521  eV     1   --> A              
     e( 70 - 70) =     14.00317  eV     1   --> A              
     e( 71 - 71) =     14.11623  eV     1   --> A              
     e( 72 - 72) =     14.17053  eV     1   --> A              
     e( 73 - 73) =     14.36551  eV     1   --> A              
     e( 74 - 74) =     15.00190  eV     1   --> A              
     e( 75 - 75) =     15.56848  eV     1   --> A              
     e( 76 - 76) =     15.91165  eV     1   --> A              
     e( 77 - 77) =     15.93944  eV     1   --> A              
     e( 78 - 78) =     15.99674  eV     1   --> A              
     e( 79 - 79) =     16.14823  eV     1   --> A              
     e( 80 - 80) =     16.29275  eV     1   --> A              
     e( 81 - 81) =     16.61180  eV     1   --> A              
     e( 82 - 82) =     16.90080  eV     1   --> A              
     e( 83 - 83) =     16.91836  eV     1   --> A              
     e( 84 - 84) =     16.96054  eV     1   --> A              
     e( 85 - 85) =     17.21265  eV     1   --> A              
     e( 86 - 86) =     17.21310  eV     1   --> A              
     e( 87 - 87) =     17.28367  eV     1   --> A              
     e( 88 - 88) =     17.30176  eV     1   --> A              
     e( 89 - 89) =     17.50192  eV     1   --> A              
     e( 90 - 90) =     17.50658  eV     1   --> A              
     e( 91 - 91) =     17.60769  eV     1   --> A              
     e( 92 - 92) =     17.75606  eV     1   --> A              
     e( 93 - 93) =     17.80280  eV     1   --> A              
     e( 94 - 94) =     18.05967  eV     1   --> A              
     e( 95 - 95) =     18.81626  eV     1   --> A              
     e( 96 - 96) =     18.87390  eV     1   --> A              
     e( 97 - 97) =     18.95763  eV     1   --> A              
     e( 98 - 98) =     19.17200  eV     1   --> A              
     e( 99 - 99) =     19.17424  eV     1   --> A              
     e(100 -100) =     19.25832  eV     1   --> A              

 **************************************************************************

     BANDS        :   1m15.72s CPU   2m19.20s WALL


   This run was terminated on:  16:21:14  13Aug2025            

=------------------------------------------------------------------------------=
   JOB DONE.
=------------------------------------------------------------------------------=
