
     Program BANDS v.7.4.1 starts on 13Aug2025 at 16:50:21 

     This program is part of the open-source Quantum ESPRESSO suite
     for quantum simulation of materials; please cite
         "P. Giannozzi et al., J. Phys.:Condens. Matter 21 395502 (2009);
         "P. Giannozzi et al., J. Phys.:Condens. Matter 29 465901 (2017);
         "P. Giannozzi et al., J. Chem. Phys. 152 154105 (2020);
          URL http://www.quantum-espresso.org", 
     in publications or presentations arising from this work. More details at
     http://www.quantum-espresso.org/quote

     Parallel version (MPI & OpenMP), running on      48 processor cores
     Number of MPI processes:                24
     Threads/MPI process:                     2

     MPI processes distributed on     2 nodes
     R & G space division:  proc/nbgrp/npool/nimage =      24
     91888 MiB available memory on the printing compute node when the environment starts


     Reading xml data from directory:

     tmp/Sb2Te3-uatsx-c1-5.0.save/

     IMPORTANT: XC functional enforced from input :
     Exchange-correlation= PBE
                           (   1   4   3   4   0   0   0)
     Any further DFT definition will be discarded
     Please, verify this is what you really want


     Parallelization info
     --------------------
     sticks:   dense  smooth     PW     G-vecs:    dense   smooth      PW
     Min          99      40     11                19863     5026     767
     Max         100      41     12                19886     5041     778
     Sum        2397     963    273               477063   120743   18525

     Using Slab Decomposition

     Reading collected, re-writing distributed wavefunctions
     high-symmetry point:  0.0000 0.0000 0.0000   x coordinate   0.0000
     high-symmetry point:  0.5000 0.2887 0.0000   x coordinate   0.5774
     high-symmetry point:  0.3333 0.5966 0.0000   x coordinate   0.9275
     high-symmetry point:  0.0000 0.0000 0.0000   x coordinate   1.6109

     Plottable bands (eV) written to file ./bands/Sb2Te3-uatsx-c1-5.0.bands.gnu
     Bands written to file ./bands/Sb2Te3-uatsx-c1-5.0.bands

 **************************************************************************

                    xk=(   0.00000,   0.00000,   0.00000  )

     point group C_1 (1)    
     there are  1 classes
     the character table:

       E    
A      1.00

     the symmetry operations in each class and the name of the first element:

     E        1
                                                                 

     Band symmetry, C_1 (1)     point group:

     e(  1 -  1) =    -34.90541  eV     1   --> A              
     e(  2 -  2) =    -34.90491  eV     1   --> A              
     e(  3 -  3) =    -34.90197  eV     1   --> A              
     e(  4 -  4) =    -34.90145  eV     1   --> A              
     e(  5 -  5) =    -34.86935  eV     1   --> A              
     e(  6 -  6) =    -34.86601  eV     1   --> A              
     e(  7 -  7) =    -34.86137  eV     1   --> A              
     e(  8 -  8) =    -34.85791  eV     1   --> A              
     e(  9 -  9) =    -34.85151  eV     1   --> A              
     e( 10 - 10) =    -34.84811  eV     1   --> A              
     e( 11 - 11) =    -34.80044  eV     1   --> A              
     e( 12 - 12) =    -34.79770  eV     1   --> A              
     e( 13 - 13) =    -34.78026  eV     1   --> A              
     e( 14 - 14) =    -34.76050  eV     1   --> A              
     e( 15 - 15) =    -34.75788  eV     1   --> A              
     e( 16 - 16) =    -27.69628  eV     1   --> A              
     e( 17 - 17) =    -27.69455  eV     1   --> A              
     e( 18 - 18) =    -27.69347  eV     1   --> A              
     e( 19 - 19) =    -27.69175  eV     1   --> A              
     e( 20 - 20) =    -27.68903  eV     1   --> A              
     e( 21 - 21) =    -27.68627  eV     1   --> A              
     e( 22 - 22) =    -27.68420  eV     1   --> A              
     e( 23 - 23) =    -27.68144  eV     1   --> A              
     e( 24 - 24) =    -27.68076  eV     1   --> A              
     e( 25 - 25) =    -27.67797  eV     1   --> A              
     e( 26 - 26) =    -10.78212  eV     1   --> A              
     e( 27 - 27) =    -10.23848  eV     1   --> A              
     e( 28 - 28) =     -9.16960  eV     1   --> A              
     e( 29 - 29) =     -6.44760  eV     1   --> A              
     e( 30 - 30) =     -5.13719  eV     1   --> A              
     e( 31 - 31) =     -0.39645  eV     1   --> A              
     e( 32 - 32) =     -0.17674  eV     1   --> A              
     e( 33 - 33) =     -0.04250  eV     1   --> A              
     e( 34 - 34) =      0.11867  eV     1   --> A              
     e( 35 - 35) =      0.24097  eV     1   --> A              
     e( 36 - 36) =      0.55993  eV     1   --> A              
     e( 37 - 37) =      0.57413  eV     1   --> A              
     e( 38 - 38) =      0.77182  eV     1   --> A              
     e( 39 - 39) =      1.00442  eV     1   --> A              
     e( 40 - 40) =      1.83272  eV     1   --> A              
     e( 41 - 41) =      2.47111  eV     1   --> A              
     e( 42 - 42) =      2.64231  eV     1   --> A              
     e( 43 - 43) =      3.29078  eV     1   --> A              
     e( 44 - 44) =      3.62128  eV     1   --> A              
     e( 45 - 45) =      3.72469  eV     1   --> A              
     e( 46 - 46) =      6.05209  eV     1   --> A              
     e( 47 - 47) =      6.23039  eV     1   --> A              
     e( 48 - 48) =      6.88381  eV     1   --> A              
     e( 49 - 49) =      7.05343  eV     1   --> A              
     e( 50 - 50) =      7.39130  eV     1   --> A              
     e( 51 - 51) =      7.72402  eV     1   --> A              
     e( 52 - 52) =      8.16853  eV     1   --> A              
     e( 53 - 53) =      8.37745  eV     1   --> A              
     e( 54 - 54) =      8.43120  eV     1   --> A              
     e( 55 - 55) =      8.50058  eV     1   --> A              
     e( 56 - 56) =      9.08754  eV     1   --> A              
     e( 57 - 57) =      9.27579  eV     1   --> A              
     e( 58 - 58) =      9.51279  eV     1   --> A              
     e( 59 - 59) =      9.87267  eV     1   --> A              
     e( 60 - 60) =      9.90009  eV     1   --> A              
     e( 61 - 61) =     10.36213  eV     1   --> A              
     e( 62 - 62) =     10.65837  eV     1   --> A              
     e( 63 - 63) =     11.18527  eV     1   --> A              
     e( 64 - 64) =     11.23045  eV     1   --> A              
     e( 65 - 65) =     11.36026  eV     1   --> A              
     e( 66 - 66) =     11.54774  eV     1   --> A              
     e( 67 - 67) =     12.66684  eV     1   --> A              
     e( 68 - 68) =     12.70224  eV     1   --> A              
     e( 69 - 69) =     13.45113  eV     1   --> A              
     e( 70 - 70) =     13.75266  eV     1   --> A              
     e( 71 - 71) =     14.01877  eV     1   --> A              
     e( 72 - 72) =     14.07076  eV     1   --> A              
     e( 73 - 73) =     14.30573  eV     1   --> A              
     e( 74 - 74) =     14.85881  eV     1   --> A              
     e( 75 - 75) =     15.21908  eV     1   --> A              
     e( 76 - 76) =     15.54853  eV     1   --> A              
     e( 77 - 77) =     15.76899  eV     1   --> A              
     e( 78 - 78) =     15.90246  eV     1   --> A              
     e( 79 - 79) =     15.93346  eV     1   --> A              
     e( 80 - 80) =     16.16401  eV     1   --> A              
     e( 81 - 81) =     16.45530  eV     1   --> A              
     e( 82 - 82) =     16.46297  eV     1   --> A              
     e( 83 - 83) =     16.58929  eV     1   --> A              
     e( 84 - 84) =     16.64298  eV     1   --> A              
     e( 85 - 85) =     16.77244  eV     1   --> A              
     e( 86 - 86) =     16.95146  eV     1   --> A              
     e( 87 - 87) =     17.00573  eV     1   --> A              
     e( 88 - 88) =     17.10026  eV     1   --> A              
     e( 89 - 89) =     17.24590  eV     1   --> A              
     e( 90 - 90) =     17.37627  eV     1   --> A              
     e( 91 - 91) =     17.44098  eV     1   --> A              
     e( 92 - 92) =     17.60160  eV     1   --> A              
     e( 93 - 93) =     17.68606  eV     1   --> A              
     e( 94 - 94) =     17.89547  eV     1   --> A              
     e( 95 - 95) =     18.44460  eV     1   --> A              
     e( 96 - 96) =     18.47326  eV     1   --> A              
     e( 97 - 97) =     18.58092  eV     1   --> A              
     e( 98 - 98) =     18.77582  eV     1   --> A              
     e( 99 - 99) =     18.97698  eV     1   --> A              
     e(100 -100) =     19.03811  eV     1   --> A              

 **************************************************************************

 **************************************************************************

                    xk=(   0.00714,   0.00412,   0.00000  )

     Band symmetry, C_1 (1)     point group:

     e(  1 -  1) =    -34.90541  eV     1   --> A              
     e(  2 -  2) =    -34.90491  eV     1   --> A              
     e(  3 -  3) =    -34.90197  eV     1   --> A              
     e(  4 -  4) =    -34.90145  eV     1   --> A              
     e(  5 -  5) =    -34.86935  eV     1   --> A              
     e(  6 -  6) =    -34.86601  eV     1   --> A              
     e(  7 -  7) =    -34.86137  eV     1   --> A              
     e(  8 -  8) =    -34.85791  eV     1   --> A              
     e(  9 -  9) =    -34.85151  eV     1   --> A              
     e( 10 - 10) =    -34.84811  eV     1   --> A              
     e( 11 - 11) =    -34.80044  eV     1   --> A              
     e( 12 - 12) =    -34.79770  eV     1   --> A              
     e( 13 - 13) =    -34.78027  eV     1   --> A              
     e( 14 - 14) =    -34.76050  eV     1   --> A              
     e( 15 - 15) =    -34.75788  eV     1   --> A              
     e( 16 - 16) =    -27.69628  eV     1   --> A              
     e( 17 - 17) =    -27.69455  eV     1   --> A              
     e( 18 - 18) =    -27.69347  eV     1   --> A              
     e( 19 - 19) =    -27.69175  eV     1   --> A              
     e( 20 - 20) =    -27.68903  eV     1   --> A              
     e( 21 - 21) =    -27.68627  eV     1   --> A              
     e( 22 - 22) =    -27.68420  eV     1   --> A              
     e( 23 - 23) =    -27.68144  eV     1   --> A              
     e( 24 - 24) =    -27.68076  eV     1   --> A              
     e( 25 - 25) =    -27.67797  eV     1   --> A              
     e( 26 - 26) =    -10.78172  eV     1   --> A              
     e( 27 - 27) =    -10.23812  eV     1   --> A              
     e( 28 - 28) =     -9.16940  eV     1   --> A              
     e( 29 - 29) =     -6.44773  eV     1   --> A              
     e( 30 - 30) =     -5.13808  eV     1   --> A              
     e( 31 - 31) =     -0.39822  eV     1   --> A              
     e( 32 - 32) =     -0.18527  eV     1   --> A              
     e( 33 - 33) =     -0.04396  eV     1   --> A              
     e( 34 - 34) =      0.11978  eV     1   --> A              
     e( 35 - 35) =      0.24004  eV     1   --> A              
     e( 36 - 36) =      0.55055  eV     1   --> A              
     e( 37 - 37) =      0.58442  eV     1   --> A              
     e( 38 - 38) =      0.77311  eV     1   --> A              
     e( 39 - 39) =      1.00641  eV     1   --> A              
     e( 40 - 40) =      1.83896  eV     1   --> A              
     e( 41 - 41) =      2.46755  eV     1   --> A              
     e( 42 - 42) =      2.64197  eV     1   --> A              
     e( 43 - 43) =      3.29572  eV     1   --> A              
     e( 44 - 44) =      3.62155  eV     1   --> A              
     e( 45 - 45) =      3.72452  eV     1   --> A              
     e( 46 - 46) =      6.05281  eV     1   --> A              
     e( 47 - 47) =      6.23042  eV     1   --> A              
     e( 48 - 48) =      6.88399  eV     1   --> A              
     e( 49 - 49) =      7.05160  eV     1   --> A              
     e( 50 - 50) =      7.39102  eV     1   --> A              
     e( 51 - 51) =      7.72387  eV     1   --> A              
     e( 52 - 52) =      8.17107  eV     1   --> A              
     e( 53 - 53) =      8.37306  eV     1   --> A              
     e( 54 - 54) =      8.43604  eV     1   --> A              
     e( 55 - 55) =      8.49846  eV     1   --> A              
     e( 56 - 56) =      9.08497  eV     1   --> A              
     e( 57 - 57) =      9.28331  eV     1   --> A              
     e( 58 - 58) =      9.51483  eV     1   --> A              
     e( 59 - 59) =      9.86926  eV     1   --> A              
     e( 60 - 60) =      9.90223  eV     1   --> A              
     e( 61 - 61) =     10.36305  eV     1   --> A              
     e( 62 - 62) =     10.66097  eV     1   --> A              
     e( 63 - 63) =     11.15934  eV     1   --> A              
     e( 64 - 64) =     11.24047  eV     1   --> A              
     e( 65 - 65) =     11.37236  eV     1   --> A              
     e( 66 - 66) =     11.55510  eV     1   --> A              
     e( 67 - 67) =     12.66475  eV     1   --> A              
     e( 68 - 68) =     12.70345  eV     1   --> A              
     e( 69 - 69) =     13.44273  eV     1   --> A              
     e( 70 - 70) =     13.75909  eV     1   --> A              
     e( 71 - 71) =     14.00316  eV     1   --> A              
     e( 72 - 72) =     14.08641  eV     1   --> A              
     e( 73 - 73) =     14.30848  eV     1   --> A              
     e( 74 - 74) =     14.85823  eV     1   --> A              
     e( 75 - 75) =     15.19761  eV     1   --> A              
     e( 76 - 76) =     15.56455  eV     1   --> A              
     e( 77 - 77) =     15.77027  eV     1   --> A              
     e( 78 - 78) =     15.88507  eV     1   --> A              
     e( 79 - 79) =     15.95113  eV     1   --> A              
     e( 80 - 80) =     16.16061  eV     1   --> A              
     e( 81 - 81) =     16.39530  eV     1   --> A              
     e( 82 - 82) =     16.48002  eV     1   --> A              
     e( 83 - 83) =     16.57033  eV     1   --> A              
     e( 84 - 84) =     16.65243  eV     1   --> A              
     e( 85 - 85) =     16.81909  eV     1   --> A              
     e( 86 - 86) =     16.94799  eV     1   --> A              
     e( 87 - 87) =     17.00245  eV     1   --> A              
     e( 88 - 88) =     17.11917  eV     1   --> A              
     e( 89 - 89) =     17.23870  eV     1   --> A              
     e( 90 - 90) =     17.38455  eV     1   --> A              
     e( 91 - 91) =     17.43035  eV     1   --> A              
     e( 92 - 92) =     17.62031  eV     1   --> A              
     e( 93 - 93) =     17.67867  eV     1   --> A              
     e( 94 - 94) =     17.90704  eV     1   --> A              
     e( 95 - 95) =     18.36375  eV     1   --> A              
     e( 96 - 96) =     18.47894  eV     1   --> A              
     e( 97 - 97) =     18.60664  eV     1   --> A              
     e( 98 - 98) =     18.82225  eV     1   --> A              
     e( 99 - 99) =     18.94306  eV     1   --> A              
     e(100 -100) =     19.07268  eV     1   --> A              

 **************************************************************************

 **************************************************************************

                    xk=(   0.01429,   0.00825,   0.00000  )

     Band symmetry, C_1 (1)     point group:

     e(  1 -  1) =    -34.90541  eV     1   --> A              
     e(  2 -  2) =    -34.90491  eV     1   --> A              
     e(  3 -  3) =    -34.90197  eV     1   --> A              
     e(  4 -  4) =    -34.90145  eV     1   --> A              
     e(  5 -  5) =    -34.86936  eV     1   --> A              
     e(  6 -  6) =    -34.86601  eV     1   --> A              
     e(  7 -  7) =    -34.86137  eV     1   --> A              
     e(  8 -  8) =    -34.85791  eV     1   --> A              
     e(  9 -  9) =    -34.85151  eV     1   --> A              
     e( 10 - 10) =    -34.84811  eV     1   --> A              
     e( 11 - 11) =    -34.80044  eV     1   --> A              
     e( 12 - 12) =    -34.79770  eV     1   --> A              
     e( 13 - 13) =    -34.78027  eV     1   --> A              
     e( 14 - 14) =    -34.76050  eV     1   --> A              
     e( 15 - 15) =    -34.75788  eV     1   --> A              
     e( 16 - 16) =    -27.69628  eV     1   --> A              
     e( 17 - 17) =    -27.69455  eV     1   --> A              
     e( 18 - 18) =    -27.69346  eV     1   --> A              
     e( 19 - 19) =    -27.69175  eV     1   --> A              
     e( 20 - 20) =    -27.68903  eV     1   --> A              
     e( 21 - 21) =    -27.68627  eV     1   --> A              
     e( 22 - 22) =    -27.68420  eV     1   --> A              
     e( 23 - 23) =    -27.68144  eV     1   --> A              
     e( 24 - 24) =    -27.68076  eV     1   --> A              
     e( 25 - 25) =    -27.67797  eV     1   --> A              
     e( 26 - 26) =    -10.78051  eV     1   --> A              
     e( 27 - 27) =    -10.23703  eV     1   --> A              
     e( 28 - 28) =     -9.16878  eV     1   --> A              
     e( 29 - 29) =     -6.44813  eV     1   --> A              
     e( 30 - 30) =     -5.14070  eV     1   --> A              
     e( 31 - 31) =     -0.40349  eV     1   --> A              
     e( 32 - 32) =     -0.20974  eV     1   --> A              
     e( 33 - 33) =     -0.04788  eV     1   --> A              
     e( 34 - 34) =      0.12169  eV     1   --> A              
     e( 35 - 35) =      0.23764  eV     1   --> A              
     e( 36 - 36) =      0.53489  eV     1   --> A              
     e( 37 - 37) =      0.60221  eV     1   --> A              
     e( 38 - 38) =      0.77695  eV     1   --> A              
     e( 39 - 39) =      1.01277  eV     1   --> A              
     e( 40 - 40) =      1.85728  eV     1   --> A              
     e( 41 - 41) =      2.45687  eV     1   --> A              
     e( 42 - 42) =      2.64140  eV     1   --> A              
     e( 43 - 43) =      3.31005  eV     1   --> A              
     e( 44 - 44) =      3.62228  eV     1   --> A              
     e( 45 - 45) =      3.72418  eV     1   --> A              
     e( 46 - 46) =      6.05497  eV     1   --> A              
     e( 47 - 47) =      6.23050  eV     1   --> A              
     e( 48 - 48) =      6.88449  eV     1   --> A              
     e( 49 - 49) =      7.04615  eV     1   --> A              
     e( 50 - 50) =      7.39024  eV     1   --> A              
     e( 51 - 51) =      7.72355  eV     1   --> A              
     e( 52 - 52) =      8.17837  eV     1   --> A              
     e( 53 - 53) =      8.36283  eV     1   --> A              
     e( 54 - 54) =      8.44647  eV     1   --> A              
     e( 55 - 55) =      8.49380  eV     1   --> A              
     e( 56 - 56) =      9.07826  eV     1   --> A              
     e( 57 - 57) =      9.30448  eV     1   --> A              
     e( 58 - 58) =      9.52083  eV     1   --> A              
     e( 59 - 59) =      9.86003  eV     1   --> A              
     e( 60 - 60) =      9.90795  eV     1   --> A              
     e( 61 - 61) =     10.36602  eV     1   --> A              
     e( 62 - 62) =     10.66823  eV     1   --> A              
     e( 63 - 63) =     11.11501  eV     1   --> A              
     e( 64 - 64) =     11.24015  eV     1   --> A              
     e( 65 - 65) =     11.40744  eV     1   --> A              
     e( 66 - 66) =     11.57549  eV     1   --> A              
     e( 67 - 67) =     12.65884  eV     1   --> A              
     e( 68 - 68) =     12.70671  eV     1   --> A              
     e( 69 - 69) =     13.42022  eV     1   --> A              
     e( 70 - 70) =     13.77456  eV     1   --> A              
     e( 71 - 71) =     13.97761  eV     1   --> A              
     e( 72 - 72) =     14.11274  eV     1   --> A              
     e( 73 - 73) =     14.31733  eV     1   --> A              
     e( 74 - 74) =     14.85266  eV     1   --> A              
     e( 75 - 75) =     15.15189  eV     1   --> A              
     e( 76 - 76) =     15.58912  eV     1   --> A              
     e( 77 - 77) =     15.78326  eV     1   --> A              
     e( 78 - 78) =     15.85731  eV     1   --> A              
     e( 79 - 79) =     15.97357  eV     1   --> A              
     e( 80 - 80) =     16.15169  eV     1   --> A              
     e( 81 - 81) =     16.32980  eV     1   --> A              
     e( 82 - 82) =     16.44418  eV     1   --> A              
     e( 83 - 83) =     16.50871  eV     1   --> A              
     e( 84 - 84) =     16.73919  eV     1   --> A              
     e( 85 - 85) =     16.86211  eV     1   --> A              
     e( 86 - 86) =     16.93568  eV     1   --> A              
     e( 87 - 87) =     17.02914  eV     1   --> A              
     e( 88 - 88) =     17.15194  eV     1   --> A              
     e( 89 - 89) =     17.23076  eV     1   --> A              
     e( 90 - 90) =     17.38857  eV     1   --> A              
     e( 91 - 91) =     17.42541  eV     1   --> A              
     e( 92 - 92) =     17.65710  eV     1   --> A              
     e( 93 - 93) =     17.67066  eV     1   --> A              
     e( 94 - 94) =     17.93334  eV     1   --> A              
     e( 95 - 95) =     18.27029  eV     1   --> A              
     e( 96 - 96) =     18.39226  eV     1   --> A              
     e( 97 - 97) =     18.68416  eV     1   --> A              
     e( 98 - 98) =     18.90036  eV     1   --> A              
     e( 99 - 99) =     18.91425  eV     1   --> A              
     e(100 -100) =     19.03809  eV     1   --> A              

 **************************************************************************

 **************************************************************************

                    xk=(   0.02143,   0.01237,   0.00000  )

     Band symmetry, C_1 (1)     point group:

     e(  1 -  1) =    -34.90541  eV     1   --> A              
     e(  2 -  2) =    -34.90490  eV     1   --> A              
     e(  3 -  3) =    -34.90197  eV     1   --> A              
     e(  4 -  4) =    -34.90145  eV     1   --> A              
     e(  5 -  5) =    -34.86936  eV     1   --> A              
     e(  6 -  6) =    -34.86601  eV     1   --> A              
     e(  7 -  7) =    -34.86137  eV     1   --> A              
     e(  8 -  8) =    -34.85791  eV     1   --> A              
     e(  9 -  9) =    -34.85151  eV     1   --> A              
     e( 10 - 10) =    -34.84811  eV     1   --> A              
     e( 11 - 11) =    -34.80043  eV     1   --> A              
     e( 12 - 12) =    -34.79770  eV     1   --> A              
     e( 13 - 13) =    -34.78027  eV     1   --> A              
     e( 14 - 14) =    -34.76049  eV     1   --> A              
     e( 15 - 15) =    -34.75788  eV     1   --> A              
     e( 16 - 16) =    -27.69627  eV     1   --> A              
     e( 17 - 17) =    -27.69455  eV     1   --> A              
     e( 18 - 18) =    -27.69346  eV     1   --> A              
     e( 19 - 19) =    -27.69174  eV     1   --> A              
     e( 20 - 20) =    -27.68903  eV     1   --> A              
     e( 21 - 21) =    -27.68627  eV     1   --> A              
     e( 22 - 22) =    -27.68421  eV     1   --> A              
     e( 23 - 23) =    -27.68144  eV     1   --> A              
     e( 24 - 24) =    -27.68076  eV     1   --> A              
     e( 25 - 25) =    -27.67797  eV     1   --> A              
     e( 26 - 26) =    -10.77849  eV     1   --> A              
     e( 27 - 27) =    -10.23522  eV     1   --> A              
     e( 28 - 28) =     -9.16775  eV     1   --> A              
     e( 29 - 29) =     -6.44879  eV     1   --> A              
     e( 30 - 30) =     -5.14503  eV     1   --> A              
     e( 31 - 31) =     -0.41216  eV     1   --> A              
     e( 32 - 32) =     -0.24740  eV     1   --> A              
     e( 33 - 33) =     -0.05348  eV     1   --> A              
     e( 34 - 34) =      0.12146  eV     1   --> A              
     e( 35 - 35) =      0.23467  eV     1   --> A              
     e( 36 - 36) =      0.51474  eV     1   --> A              
     e( 37 - 37) =      0.62422  eV     1   --> A              
     e( 38 - 38) =      0.78317  eV     1   --> A              
     e( 39 - 39) =      1.02445  eV     1   --> A              
     e( 40 - 40) =      1.88661  eV     1   --> A              
     e( 41 - 41) =      2.43929  eV     1   --> A              
     e( 42 - 42) =      2.64167  eV     1   --> A              
     e( 43 - 43) =      3.33247  eV     1   --> A              
     e( 44 - 44) =      3.62318  eV     1   --> A              
     e( 45 - 45) =      3.72412  eV     1   --> A              
     e( 46 - 46) =      6.05856  eV     1   --> A              
     e( 47 - 47) =      6.23063  eV     1   --> A              
     e( 48 - 48) =      6.88516  eV     1   --> A              
     e( 49 - 49) =      7.03726  eV     1   --> A              
     e( 50 - 50) =      7.38907  eV     1   --> A              
     e( 51 - 51) =      7.72346  eV     1   --> A              
     e( 52 - 52) =      8.18937  eV     1   --> A              
     e( 53 - 53) =      8.35029  eV     1   --> A              
     e( 54 - 54) =      8.45353  eV     1   --> A              
     e( 55 - 55) =      8.49358  eV     1   --> A              
     e( 56 - 56) =      9.06928  eV     1   --> A              
     e( 57 - 57) =      9.33617  eV     1   --> A              
     e( 58 - 58) =      9.53049  eV     1   --> A              
     e( 59 - 59) =      9.84633  eV     1   --> A              
     e( 60 - 60) =      9.91663  eV     1   --> A              
     e( 61 - 61) =     10.37156  eV     1   --> A              
     e( 62 - 62) =     10.67867  eV     1   --> A              
     e( 63 - 63) =     11.06912  eV     1   --> A              
     e( 64 - 64) =     11.22528  eV     1   --> A              
     e( 65 - 65) =     11.45691  eV     1   --> A              
     e( 66 - 66) =     11.60544  eV     1   --> A              
     e( 67 - 67) =     12.64974  eV     1   --> A              
     e( 68 - 68) =     12.71144  eV     1   --> A              
     e( 69 - 69) =     13.38900  eV     1   --> A              
     e( 70 - 70) =     13.78990  eV     1   --> A              
     e( 71 - 71) =     13.95688  eV     1   --> A              
     e( 72 - 72) =     14.13801  eV     1   --> A              
     e( 73 - 73) =     14.33335  eV     1   --> A              
     e( 74 - 74) =     14.83083  eV     1   --> A              
     e( 75 - 75) =     15.11357  eV     1   --> A              
     e( 76 - 76) =     15.58946  eV     1   --> A              
     e( 77 - 77) =     15.81060  eV     1   --> A              
     e( 78 - 78) =     15.82973  eV     1   --> A              
     e( 79 - 79) =     15.98306  eV     1   --> A              
     e( 80 - 80) =     16.14601  eV     1   --> A              
     e( 81 - 81) =     16.28653  eV     1   --> A              
     e( 82 - 82) =     16.34550  eV     1   --> A              
     e( 83 - 83) =     16.50053  eV     1   --> A              
     e( 84 - 84) =     16.81142  eV     1   --> A              
     e( 85 - 85) =     16.85883  eV     1   --> A              
     e( 86 - 86) =     16.94903  eV     1   --> A              
     e( 87 - 87) =     17.07730  eV     1   --> A              
     e( 88 - 88) =     17.16650  eV     1   --> A              
     e( 89 - 89) =     17.25422  eV     1   --> A              
     e( 90 - 90) =     17.38616  eV     1   --> A              
     e( 91 - 91) =     17.43764  eV     1   --> A              
     e( 92 - 92) =     17.65814  eV     1   --> A              
     e( 93 - 93) =     17.71473  eV     1   --> A              
     e( 94 - 94) =     17.95585  eV     1   --> A              
     e( 95 - 95) =     18.19710  eV     1   --> A              
     e( 96 - 96) =     18.28604  eV     1   --> A              
     e( 97 - 97) =     18.72291  eV     1   --> A              
     e( 98 - 98) =     18.90887  eV     1   --> A              
     e( 99 - 99) =     18.98222  eV     1   --> A              
     e(100 -100) =     19.01464  eV     1   --> A              

 **************************************************************************

 **************************************************************************

                    xk=(   0.02857,   0.01650,   0.00000  )

     Band symmetry, C_1 (1)     point group:

     e(  1 -  1) =    -34.90541  eV     1   --> A              
     e(  2 -  2) =    -34.90490  eV     1   --> A              
     e(  3 -  3) =    -34.90197  eV     1   --> A              
     e(  4 -  4) =    -34.90145  eV     1   --> A              
     e(  5 -  5) =    -34.86936  eV     1   --> A              
     e(  6 -  6) =    -34.86601  eV     1   --> A              
     e(  7 -  7) =    -34.86137  eV     1   --> A              
     e(  8 -  8) =    -34.85791  eV     1   --> A              
     e(  9 -  9) =    -34.85151  eV     1   --> A              
     e( 10 - 10) =    -34.84811  eV     1   --> A              
     e( 11 - 11) =    -34.80043  eV     1   --> A              
     e( 12 - 12) =    -34.79770  eV     1   --> A              
     e( 13 - 13) =    -34.78027  eV     1   --> A              
     e( 14 - 14) =    -34.76049  eV     1   --> A              
     e( 15 - 15) =    -34.75788  eV     1   --> A              
     e( 16 - 16) =    -27.69627  eV     1   --> A              
     e( 17 - 17) =    -27.69455  eV     1   --> A              
     e( 18 - 18) =    -27.69345  eV     1   --> A              
     e( 19 - 19) =    -27.69174  eV     1   --> A              
     e( 20 - 20) =    -27.68903  eV     1   --> A              
     e( 21 - 21) =    -27.68627  eV     1   --> A              
     e( 22 - 22) =    -27.68421  eV     1   --> A              
     e( 23 - 23) =    -27.68145  eV     1   --> A              
     e( 24 - 24) =    -27.68076  eV     1   --> A              
     e( 25 - 25) =    -27.67797  eV     1   --> A              
     e( 26 - 26) =    -10.77567  eV     1   --> A              
     e( 27 - 27) =    -10.23268  eV     1   --> A              
     e( 28 - 28) =     -9.16633  eV     1   --> A              
     e( 29 - 29) =     -6.44972  eV     1   --> A              
     e( 30 - 30) =     -5.15110  eV     1   --> A              
     e( 31 - 31) =     -0.42406  eV     1   --> A              
     e( 32 - 32) =     -0.29506  eV     1   --> A              
     e( 33 - 33) =     -0.06042  eV     1   --> A              
     e( 34 - 34) =      0.11687  eV     1   --> A              
     e( 35 - 35) =      0.23191  eV     1   --> A              
     e( 36 - 36) =      0.48880  eV     1   --> A              
     e( 37 - 37) =      0.65027  eV     1   --> A              
     e( 38 - 38) =      0.79142  eV     1   --> A              
     e( 39 - 39) =      1.04225  eV     1   --> A              
     e( 40 - 40) =      1.92548  eV     1   --> A              
     e( 41 - 41) =      2.41557  eV     1   --> A              
     e( 42 - 42) =      2.64378  eV     1   --> A              
     e( 43 - 43) =      3.36115  eV     1   --> A              
     e( 44 - 44) =      3.62383  eV     1   --> A              
     e( 45 - 45) =      3.72511  eV     1   --> A              
     e( 46 - 46) =      6.06354  eV     1   --> A              
     e( 47 - 47) =      6.23077  eV     1   --> A              
     e( 48 - 48) =      6.88570  eV     1   --> A              
     e( 49 - 49) =      7.02534  eV     1   --> A              
     e( 50 - 50) =      7.38769  eV     1   --> A              
     e( 51 - 51) =      7.72409  eV     1   --> A              
     e( 52 - 52) =      8.20218  eV     1   --> A              
     e( 53 - 53) =      8.33732  eV     1   --> A              
     e( 54 - 54) =      8.44960  eV     1   --> A              
     e( 55 - 55) =      8.50610  eV     1   --> A              
     e( 56 - 56) =      9.05954  eV     1   --> A              
     e( 57 - 57) =      9.37506  eV     1   --> A              
     e( 58 - 58) =      9.54330  eV     1   --> A              
     e( 59 - 59) =      9.82941  eV     1   --> A              
     e( 60 - 60) =      9.92840  eV     1   --> A              
     e( 61 - 61) =     10.38028  eV     1   --> A              
     e( 62 - 62) =     10.68987  eV     1   --> A              
     e( 63 - 63) =     11.02626  eV     1   --> A              
     e( 64 - 64) =     11.20343  eV     1   --> A              
     e( 65 - 65) =     11.51268  eV     1   --> A              
     e( 66 - 66) =     11.64196  eV     1   --> A              
     e( 67 - 67) =     12.63779  eV     1   --> A              
     e( 68 - 68) =     12.71737  eV     1   --> A              
     e( 69 - 69) =     13.35376  eV     1   --> A              
     e( 70 - 70) =     13.79472  eV     1   --> A              
     e( 71 - 71) =     13.94795  eV     1   --> A              
     e( 72 - 72) =     14.16114  eV     1   --> A              
     e( 73 - 73) =     14.35636  eV     1   --> A              
     e( 74 - 74) =     14.78277  eV     1   --> A              
     e( 75 - 75) =     15.10302  eV     1   --> A              
     e( 76 - 76) =     15.56460  eV     1   --> A              
     e( 77 - 77) =     15.76894  eV     1   --> A              
     e( 78 - 78) =     15.85091  eV     1   --> A              
     e( 79 - 79) =     15.99306  eV     1   --> A              
     e( 80 - 80) =     16.15066  eV     1   --> A              
     e( 81 - 81) =     16.23650  eV     1   --> A              
     e( 82 - 82) =     16.27794  eV     1   --> A              
     e( 83 - 83) =     16.50250  eV     1   --> A              
     e( 84 - 84) =     16.79448  eV     1   --> A              
     e( 85 - 85) =     16.87105  eV     1   --> A              
     e( 86 - 86) =     17.00982  eV     1   --> A              
     e( 87 - 87) =     17.10817  eV     1   --> A              
     e( 88 - 88) =     17.15431  eV     1   --> A              
     e( 89 - 89) =     17.31815  eV     1   --> A              
     e( 90 - 90) =     17.40713  eV     1   --> A              
     e( 91 - 91) =     17.44779  eV     1   --> A              
     e( 92 - 92) =     17.67205  eV     1   --> A              
     e( 93 - 93) =     17.75826  eV     1   --> A              
     e( 94 - 94) =     17.95625  eV     1   --> A              
     e( 95 - 95) =     18.15460  eV     1   --> A              
     e( 96 - 96) =     18.19210  eV     1   --> A              
     e( 97 - 97) =     18.69912  eV     1   --> A              
     e( 98 - 98) =     18.94204  eV     1   --> A              
     e( 99 - 99) =     18.96538  eV     1   --> A              
     e(100 -100) =     19.08853  eV     1   --> A              

 **************************************************************************

 **************************************************************************

                    xk=(   0.03571,   0.02062,   0.00000  )

     Band symmetry, C_1 (1)     point group:

     e(  1 -  1) =    -34.90541  eV     1   --> A              
     e(  2 -  2) =    -34.90490  eV     1   --> A              
     e(  3 -  3) =    -34.90197  eV     1   --> A              
     e(  4 -  4) =    -34.90145  eV     1   --> A              
     e(  5 -  5) =    -34.86936  eV     1   --> A              
     e(  6 -  6) =    -34.86602  eV     1   --> A              
     e(  7 -  7) =    -34.86137  eV     1   --> A              
     e(  8 -  8) =    -34.85791  eV     1   --> A              
     e(  9 -  9) =    -34.85151  eV     1   --> A              
     e( 10 - 10) =    -34.84811  eV     1   --> A              
     e( 11 - 11) =    -34.80043  eV     1   --> A              
     e( 12 - 12) =    -34.79770  eV     1   --> A              
     e( 13 - 13) =    -34.78027  eV     1   --> A              
     e( 14 - 14) =    -34.76049  eV     1   --> A              
     e( 15 - 15) =    -34.75788  eV     1   --> A              
     e( 16 - 16) =    -27.69626  eV     1   --> A              
     e( 17 - 17) =    -27.69455  eV     1   --> A              
     e( 18 - 18) =    -27.69345  eV     1   --> A              
     e( 19 - 19) =    -27.69174  eV     1   --> A              
     e( 20 - 20) =    -27.68903  eV     1   --> A              
     e( 21 - 21) =    -27.68627  eV     1   --> A              
     e( 22 - 22) =    -27.68422  eV     1   --> A              
     e( 23 - 23) =    -27.68145  eV     1   --> A              
     e( 24 - 24) =    -27.68076  eV     1   --> A              
     e( 25 - 25) =    -27.67797  eV     1   --> A              
     e( 26 - 26) =    -10.77204  eV     1   --> A              
     e( 27 - 27) =    -10.22941  eV     1   --> A              
     e( 28 - 28) =     -9.16448  eV     1   --> A              
     e( 29 - 29) =     -6.45092  eV     1   --> A              
     e( 30 - 30) =     -5.15889  eV     1   --> A              
     e( 31 - 31) =     -0.43896  eV     1   --> A              
     e( 32 - 32) =     -0.35002  eV     1   --> A              
     e( 33 - 33) =     -0.06867  eV     1   --> A              
     e( 34 - 34) =      0.10735  eV     1   --> A              
     e( 35 - 35) =      0.22947  eV     1   --> A              
     e( 36 - 36) =      0.45661  eV     1   --> A              
     e( 37 - 37) =      0.67992  eV     1   --> A              
     e( 38 - 38) =      0.80124  eV     1   --> A              
     e( 39 - 39) =      1.06626  eV     1   --> A              
     e( 40 - 40) =      1.97224  eV     1   --> A              
     e( 41 - 41) =      2.38709  eV     1   --> A              
     e( 42 - 42) =      2.64828  eV     1   --> A              
     e( 43 - 43) =      3.39406  eV     1   --> A              
     e( 44 - 44) =      3.62375  eV     1   --> A              
     e( 45 - 45) =      3.72820  eV     1   --> A              
     e( 46 - 46) =      6.06991  eV     1   --> A              
     e( 47 - 47) =      6.23088  eV     1   --> A              
     e( 48 - 48) =      6.88556  eV     1   --> A              
     e( 49 - 49) =      7.01109  eV     1   --> A              
     e( 50 - 50) =      7.38632  eV     1   --> A              
     e( 51 - 51) =      7.72592  eV     1   --> A              
     e( 52 - 52) =      8.21337  eV     1   --> A              
     e( 53 - 53) =      8.32628  eV     1   --> A              
     e( 54 - 54) =      8.44044  eV     1   --> A              
     e( 55 - 55) =      8.52718  eV     1   --> A              
     e( 56 - 56) =      9.04994  eV     1   --> A              
     e( 57 - 57) =      9.41795  eV     1   --> A              
     e( 58 - 58) =      9.55868  eV     1   --> A              
     e( 59 - 59) =      9.81099  eV     1   --> A              
     e( 60 - 60) =      9.94358  eV     1   --> A              
     e( 61 - 61) =     10.39266  eV     1   --> A              
     e( 62 - 62) =     10.69859  eV     1   --> A              
     e( 63 - 63) =     10.98973  eV     1   --> A              
     e( 64 - 64) =     11.17908  eV     1   --> A              
     e( 65 - 65) =     11.57074  eV     1   --> A              
     e( 66 - 66) =     11.68318  eV     1   --> A              
     e( 67 - 67) =     12.62319  eV     1   --> A              
     e( 68 - 68) =     12.72448  eV     1   --> A              
     e( 69 - 69) =     13.31759  eV     1   --> A              
     e( 70 - 70) =     13.78441  eV     1   --> A              
     e( 71 - 71) =     13.95156  eV     1   --> A              
     e( 72 - 72) =     14.18442  eV     1   --> A              
     e( 73 - 73) =     14.38353  eV     1   --> A              
     e( 74 - 74) =     14.71452  eV     1   --> A              
     e( 75 - 75) =     15.11960  eV     1   --> A              
     e( 76 - 76) =     15.52450  eV     1   --> A              
     e( 77 - 77) =     15.70334  eV     1   --> A              
     e( 78 - 78) =     15.83636  eV     1   --> A              
     e( 79 - 79) =     16.03620  eV     1   --> A              
     e( 80 - 80) =     16.11051  eV     1   --> A              
     e( 81 - 81) =     16.19752  eV     1   --> A              
     e( 82 - 82) =     16.27992  eV     1   --> A              
     e( 83 - 83) =     16.51043  eV     1   --> A              
     e( 84 - 84) =     16.75537  eV     1   --> A              
     e( 85 - 85) =     16.85756  eV     1   --> A              
     e( 86 - 86) =     17.08610  eV     1   --> A              
     e( 87 - 87) =     17.10536  eV     1   --> A              
     e( 88 - 88) =     17.16085  eV     1   --> A              
     e( 89 - 89) =     17.36949  eV     1   --> A              
     e( 90 - 90) =     17.44581  eV     1   --> A              
     e( 91 - 91) =     17.48835  eV     1   --> A              
     e( 92 - 92) =     17.69084  eV     1   --> A              
     e( 93 - 93) =     17.78454  eV     1   --> A              
     e( 94 - 94) =     17.95641  eV     1   --> A              
     e( 95 - 95) =     18.05629  eV     1   --> A              
     e( 96 - 96) =     18.20310  eV     1   --> A              
     e( 97 - 97) =     18.65208  eV     1   --> A              
     e( 98 - 98) =     18.89640  eV     1   --> A              
     e( 99 - 99) =     19.00319  eV     1   --> A              
     e(100 -100) =     19.15776  eV     1   --> A              

 **************************************************************************

 **************************************************************************

                    xk=(   0.04286,   0.02474,   0.00000  )

     Band symmetry, C_1 (1)     point group:

     e(  1 -  1) =    -34.90541  eV     1   --> A              
     e(  2 -  2) =    -34.90490  eV     1   --> A              
     e(  3 -  3) =    -34.90197  eV     1   --> A              
     e(  4 -  4) =    -34.90144  eV     1   --> A              
     e(  5 -  5) =    -34.86936  eV     1   --> A              
     e(  6 -  6) =    -34.86602  eV     1   --> A              
     e(  7 -  7) =    -34.86137  eV     1   --> A              
     e(  8 -  8) =    -34.85791  eV     1   --> A              
     e(  9 -  9) =    -34.85150  eV     1   --> A              
     e( 10 - 10) =    -34.84811  eV     1   --> A              
     e( 11 - 11) =    -34.80043  eV     1   --> A              
     e( 12 - 12) =    -34.79770  eV     1   --> A              
     e( 13 - 13) =    -34.78027  eV     1   --> A              
     e( 14 - 14) =    -34.76048  eV     1   --> A              
     e( 15 - 15) =    -34.75788  eV     1   --> A              
     e( 16 - 16) =    -27.69625  eV     1   --> A              
     e( 17 - 17) =    -27.69455  eV     1   --> A              
     e( 18 - 18) =    -27.69344  eV     1   --> A              
     e( 19 - 19) =    -27.69174  eV     1   --> A              
     e( 20 - 20) =    -27.68903  eV     1   --> A              
     e( 21 - 21) =    -27.68626  eV     1   --> A              
     e( 22 - 22) =    -27.68422  eV     1   --> A              
     e( 23 - 23) =    -27.68146  eV     1   --> A              
     e( 24 - 24) =    -27.68076  eV     1   --> A              
     e( 25 - 25) =    -27.67797  eV     1   --> A              
     e( 26 - 26) =    -10.76764  eV     1   --> A              
     e( 27 - 27) =    -10.22545  eV     1   --> A              
     e( 28 - 28) =     -9.16225  eV     1   --> A              
     e( 29 - 29) =     -6.45241  eV     1   --> A              
     e( 30 - 30) =     -5.16843  eV     1   --> A              
     e( 31 - 31) =     -0.45659  eV     1   --> A              
     e( 32 - 32) =     -0.41023  eV     1   --> A              
     e( 33 - 33) =     -0.07838  eV     1   --> A              
     e( 34 - 34) =      0.09350  eV     1   --> A              
     e( 35 - 35) =      0.22691  eV     1   --> A              
     e( 36 - 36) =      0.41869  eV     1   --> A              
     e( 37 - 37) =      0.71248  eV     1   --> A              
     e( 38 - 38) =      0.81224  eV     1   --> A              
     e( 39 - 39) =      1.09564  eV     1   --> A              
     e( 40 - 40) =      2.02528  eV     1   --> A              
     e( 41 - 41) =      2.35562  eV     1   --> A              
     e( 42 - 42) =      2.65528  eV     1   --> A              
     e( 43 - 43) =      3.42901  eV     1   --> A              
     e( 44 - 44) =      3.62270  eV     1   --> A              
     e( 45 - 45) =      3.73451  eV     1   --> A              
     e( 46 - 46) =      6.07761  eV     1   --> A              
     e( 47 - 47) =      6.23090  eV     1   --> A              
     e( 48 - 48) =      6.88370  eV     1   --> A              
     e( 49 - 49) =      6.99583  eV     1   --> A              
     e( 50 - 50) =      7.38514  eV     1   --> A              
     e( 51 - 51) =      7.72935  eV     1   --> A              
     e( 52 - 52) =      8.21742  eV     1   --> A              
     e( 53 - 53) =      8.32184  eV     1   --> A              
     e( 54 - 54) =      8.43167  eV     1   --> A              
     e( 55 - 55) =      8.55244  eV     1   --> A              
     e( 56 - 56) =      9.04102  eV     1   --> A              
     e( 57 - 57) =      9.46118  eV     1   --> A              
     e( 58 - 58) =      9.57609  eV     1   --> A              
     e( 59 - 59) =      9.79372  eV     1   --> A              
     e( 60 - 60) =      9.96249  eV     1   --> A              
     e( 61 - 61) =     10.40894  eV     1   --> A              
     e( 62 - 62) =     10.70089  eV     1   --> A              
     e( 63 - 63) =     10.96304  eV     1   --> A              
     e( 64 - 64) =     11.15455  eV     1   --> A              
     e( 65 - 65) =     11.62892  eV     1   --> A              
     e( 66 - 66) =     11.72810  eV     1   --> A              
     e( 67 - 67) =     12.60616  eV     1   --> A              
     e( 68 - 68) =     12.73284  eV     1   --> A              
     e( 69 - 69) =     13.28247  eV     1   --> A              
     e( 70 - 70) =     13.76330  eV     1   --> A              
     e( 71 - 71) =     13.96040  eV     1   --> A              
     e( 72 - 72) =     14.21068  eV     1   --> A              
     e( 73 - 73) =     14.40786  eV     1   --> A              
     e( 74 - 74) =     14.64270  eV     1   --> A              
     e( 75 - 75) =     15.15279  eV     1   --> A              
     e( 76 - 76) =     15.47143  eV     1   --> A              
     e( 77 - 77) =     15.62995  eV     1   --> A              
     e( 78 - 78) =     15.79403  eV     1   --> A              
     e( 79 - 79) =     16.01463  eV     1   --> A              
     e( 80 - 80) =     16.10129  eV     1   --> A              
     e( 81 - 81) =     16.21387  eV     1   --> A              
     e( 82 - 82) =     16.30042  eV     1   --> A              
     e( 83 - 83) =     16.52527  eV     1   --> A              
     e( 84 - 84) =     16.71926  eV     1   --> A              
     e( 85 - 85) =     16.82850  eV     1   --> A              
     e( 86 - 86) =     17.06626  eV     1   --> A              
     e( 87 - 87) =     17.11431  eV     1   --> A              
     e( 88 - 88) =     17.23919  eV     1   --> A              
     e( 89 - 89) =     17.37678  eV     1   --> A              
     e( 90 - 90) =     17.48571  eV     1   --> A              
     e( 91 - 91) =     17.57807  eV     1   --> A              
     e( 92 - 92) =     17.68741  eV     1   --> A              
     e( 93 - 93) =     17.81621  eV     1   --> A              
     e( 94 - 94) =     17.94206  eV     1   --> A              
     e( 95 - 95) =     17.99914  eV     1   --> A              
     e( 96 - 96) =     18.24936  eV     1   --> A              
     e( 97 - 97) =     18.59960  eV     1   --> A              
     e( 98 - 98) =     18.85083  eV     1   --> A              
     e( 99 - 99) =     18.99755  eV     1   --> A              
     e(100 -100) =     19.15539  eV     1   --> A              

 **************************************************************************

 **************************************************************************

                    xk=(   0.05000,   0.02887,   0.00000  )

     Band symmetry, C_1 (1)     point group:

     e(  1 -  1) =    -34.90540  eV     1   --> A              
     e(  2 -  2) =    -34.90489  eV     1   --> A              
     e(  3 -  3) =    -34.90196  eV     1   --> A              
     e(  4 -  4) =    -34.90144  eV     1   --> A              
     e(  5 -  5) =    -34.86936  eV     1   --> A              
     e(  6 -  6) =    -34.86602  eV     1   --> A              
     e(  7 -  7) =    -34.86137  eV     1   --> A              
     e(  8 -  8) =    -34.85791  eV     1   --> A              
     e(  9 -  9) =    -34.85150  eV     1   --> A              
     e( 10 - 10) =    -34.84810  eV     1   --> A              
     e( 11 - 11) =    -34.80042  eV     1   --> A              
     e( 12 - 12) =    -34.79771  eV     1   --> A              
     e( 13 - 13) =    -34.78027  eV     1   --> A              
     e( 14 - 14) =    -34.76048  eV     1   --> A              
     e( 15 - 15) =    -34.75788  eV     1   --> A              
     e( 16 - 16) =    -27.69624  eV     1   --> A              
     e( 17 - 17) =    -27.69454  eV     1   --> A              
     e( 18 - 18) =    -27.69343  eV     1   --> A              
     e( 19 - 19) =    -27.69174  eV     1   --> A              
     e( 20 - 20) =    -27.68902  eV     1   --> A              
     e( 21 - 21) =    -27.68626  eV     1   --> A              
     e( 22 - 22) =    -27.68423  eV     1   --> A              
     e( 23 - 23) =    -27.68147  eV     1   --> A              
     e( 24 - 24) =    -27.68076  eV     1   --> A              
     e( 25 - 25) =    -27.67797  eV     1   --> A              
     e( 26 - 26) =    -10.76240  eV     1   --> A              
     e( 27 - 27) =    -10.22074  eV     1   --> A              
     e( 28 - 28) =     -9.15961  eV     1   --> A              
     e( 29 - 29) =     -6.45419  eV     1   --> A              
     e( 30 - 30) =     -5.17963  eV     1   --> A              
     e( 31 - 31) =     -0.47816  eV     1   --> A              
     e( 32 - 32) =     -0.47271  eV     1   --> A              
     e( 33 - 33) =     -0.08973  eV     1   --> A              
     e( 34 - 34) =      0.07630  eV     1   --> A              
     e( 35 - 35) =      0.22367  eV     1   --> A              
     e( 36 - 36) =      0.37628  eV     1   --> A              
     e( 37 - 37) =      0.74710  eV     1   --> A              
     e( 38 - 38) =      0.82430  eV     1   --> A              
     e( 39 - 39) =      1.12884  eV     1   --> A              
     e( 40 - 40) =      2.08307  eV     1   --> A              
     e( 41 - 41) =      2.32315  eV     1   --> A              
     e( 42 - 42) =      2.66470  eV     1   --> A              
     e( 43 - 43) =      3.46356  eV     1   --> A              
     e( 44 - 44) =      3.62117  eV     1   --> A              
     e( 45 - 45) =      3.74496  eV     1   --> A              
     e( 46 - 46) =      6.08662  eV     1   --> A              
     e( 47 - 47) =      6.23077  eV     1   --> A              
     e( 48 - 48) =      6.87842  eV     1   --> A              
     e( 49 - 49) =      6.98161  eV     1   --> A              
     e( 50 - 50) =      7.38436  eV     1   --> A              
     e( 51 - 51) =      7.73465  eV     1   --> A              
     e( 52 - 52) =      8.20984  eV     1   --> A              
     e( 53 - 53) =      8.32817  eV     1   --> A              
     e( 54 - 54) =      8.42512  eV     1   --> A              
     e( 55 - 55) =      8.58046  eV     1   --> A              
     e( 56 - 56) =      9.03317  eV     1   --> A              
     e( 57 - 57) =      9.49947  eV     1   --> A              
     e( 58 - 58) =      9.59576  eV     1   --> A              
     e( 59 - 59) =      9.78158  eV     1   --> A              
     e( 60 - 60) =      9.98540  eV     1   --> A              
     e( 61 - 61) =     10.42914  eV     1   --> A              
     e( 62 - 62) =     10.69354  eV     1   --> A              
     e( 63 - 63) =     10.94899  eV     1   --> A              
     e( 64 - 64) =     11.13125  eV     1   --> A              
     e( 65 - 65) =     11.68566  eV     1   --> A              
     e( 66 - 66) =     11.77623  eV     1   --> A              
     e( 67 - 67) =     12.58707  eV     1   --> A              
     e( 68 - 68) =     12.74256  eV     1   --> A              
     e( 69 - 69) =     13.24961  eV     1   --> A              
     e( 70 - 70) =     13.73704  eV     1   --> A              
     e( 71 - 71) =     13.96695  eV     1   --> A              
     e( 72 - 72) =     14.24079  eV     1   --> A              
     e( 73 - 73) =     14.41291  eV     1   --> A              
     e( 74 - 74) =     14.59110  eV     1   --> A              
     e( 75 - 75) =     15.19352  eV     1   --> A              
     e( 76 - 76) =     15.40165  eV     1   --> A              
     e( 77 - 77) =     15.56294  eV     1   --> A              
     e( 78 - 78) =     15.73613  eV     1   --> A              
     e( 79 - 79) =     15.93639  eV     1   --> A              
     e( 80 - 80) =     16.14155  eV     1   --> A              
     e( 81 - 81) =     16.24231  eV     1   --> A              
     e( 82 - 82) =     16.33046  eV     1   --> A              
     e( 83 - 83) =     16.54505  eV     1   --> A              
     e( 84 - 84) =     16.69409  eV     1   --> A              
     e( 85 - 85) =     16.79440  eV     1   --> A              
     e( 86 - 86) =     17.02240  eV     1   --> A              
     e( 87 - 87) =     17.10928  eV     1   --> A              
     e( 88 - 88) =     17.33473  eV     1   --> A              
     e( 89 - 89) =     17.37398  eV     1   --> A              
     e( 90 - 90) =     17.49275  eV     1   --> A              
     e( 91 - 91) =     17.67407  eV     1   --> A              
     e( 92 - 92) =     17.70568  eV     1   --> A              
     e( 93 - 93) =     17.81521  eV     1   --> A              
     e( 94 - 94) =     17.90142  eV     1   --> A              
     e( 95 - 95) =     18.05378  eV     1   --> A              
     e( 96 - 96) =     18.30474  eV     1   --> A              
     e( 97 - 97) =     18.54647  eV     1   --> A              
     e( 98 - 98) =     18.80794  eV     1   --> A              
     e( 99 - 99) =     18.96605  eV     1   --> A              
     e(100 -100) =     19.11350  eV     1   --> A              

 **************************************************************************

 **************************************************************************

                    xk=(   0.05714,   0.03299,   0.00000  )

     Band symmetry, C_1 (1)     point group:

     e(  1 -  1) =    -34.90540  eV     1   --> A              
     e(  2 -  2) =    -34.90489  eV     1   --> A              
     e(  3 -  3) =    -34.90196  eV     1   --> A              
     e(  4 -  4) =    -34.90143  eV     1   --> A              
     e(  5 -  5) =    -34.86936  eV     1   --> A              
     e(  6 -  6) =    -34.86602  eV     1   --> A              
     e(  7 -  7) =    -34.86137  eV     1   --> A              
     e(  8 -  8) =    -34.85791  eV     1   --> A              
     e(  9 -  9) =    -34.85150  eV     1   --> A              
     e( 10 - 10) =    -34.84810  eV     1   --> A              
     e( 11 - 11) =    -34.80042  eV     1   --> A              
     e( 12 - 12) =    -34.79771  eV     1   --> A              
     e( 13 - 13) =    -34.78027  eV     1   --> A              
     e( 14 - 14) =    -34.76047  eV     1   --> A              
     e( 15 - 15) =    -34.75788  eV     1   --> A              
     e( 16 - 16) =    -27.69623  eV     1   --> A              
     e( 17 - 17) =    -27.69454  eV     1   --> A              
     e( 18 - 18) =    -27.69342  eV     1   --> A              
     e( 19 - 19) =    -27.69173  eV     1   --> A              
     e( 20 - 20) =    -27.68902  eV     1   --> A              
     e( 21 - 21) =    -27.68626  eV     1   --> A              
     e( 22 - 22) =    -27.68424  eV     1   --> A              
     e( 23 - 23) =    -27.68148  eV     1   --> A              
     e( 24 - 24) =    -27.68076  eV     1   --> A              
     e( 25 - 25) =    -27.67797  eV     1   --> A              
     e( 26 - 26) =    -10.75638  eV     1   --> A              
     e( 27 - 27) =    -10.21534  eV     1   --> A              
     e( 28 - 28) =     -9.15659  eV     1   --> A              
     e( 29 - 29) =     -6.45629  eV     1   --> A              
     e( 30 - 30) =     -5.19255  eV     1   --> A              
     e( 31 - 31) =     -0.54156  eV     1   --> A              
     e( 32 - 32) =     -0.49816  eV     1   --> A              
     e( 33 - 33) =     -0.10295  eV     1   --> A              
     e( 34 - 34) =      0.05639  eV     1   --> A              
     e( 35 - 35) =      0.21939  eV     1   --> A              
     e( 36 - 36) =      0.33097  eV     1   --> A              
     e( 37 - 37) =      0.78250  eV     1   --> A              
     e( 38 - 38) =      0.83787  eV     1   --> A              
     e( 39 - 39) =      1.16381  eV     1   --> A              
     e( 40 - 40) =      2.14391  eV     1   --> A              
     e( 41 - 41) =      2.29201  eV     1   --> A              
     e( 42 - 42) =      2.67637  eV     1   --> A              
     e( 43 - 43) =      3.49449  eV     1   --> A              
     e( 44 - 44) =      3.62099  eV     1   --> A              
     e( 45 - 45) =      3.76018  eV     1   --> A              
     e( 46 - 46) =      6.09688  eV     1   --> A              
     e( 47 - 47) =      6.23039  eV     1   --> A              
     e( 48 - 48) =      6.86762  eV     1   --> A              
     e( 49 - 49) =      6.97102  eV     1   --> A              
     e( 50 - 50) =      7.38409  eV     1   --> A              
     e( 51 - 51) =      7.74195  eV     1   --> A              
     e( 52 - 52) =      8.19260  eV     1   --> A              
     e( 53 - 53) =      8.34352  eV     1   --> A              
     e( 54 - 54) =      8.42103  eV     1   --> A              
     e( 55 - 55) =      8.61072  eV     1   --> A              
     e( 56 - 56) =      9.02674  eV     1   --> A              
     e( 57 - 57) =      9.52505  eV     1   --> A              
     e( 58 - 58) =      9.61955  eV     1   --> A              
     e( 59 - 59) =      9.77965  eV     1   --> A              
     e( 60 - 60) =     10.01237  eV     1   --> A              
     e( 61 - 61) =     10.45310  eV     1   --> A              
     e( 62 - 62) =     10.67632  eV     1   --> A              
     e( 63 - 63) =     10.94760  eV     1   --> A              
     e( 64 - 64) =     11.11016  eV     1   --> A              
     e( 65 - 65) =     11.73978  eV     1   --> A              
     e( 66 - 66) =     11.82713  eV     1   --> A              
     e( 67 - 67) =     12.56655  eV     1   --> A              
     e( 68 - 68) =     12.75371  eV     1   --> A              
     e( 69 - 69) =     13.21984  eV     1   --> A              
     e( 70 - 70) =     13.70885  eV     1   --> A              
     e( 71 - 71) =     13.96646  eV     1   --> A              
     e( 72 - 72) =     14.27115  eV     1   --> A              
     e( 73 - 73) =     14.38233  eV     1   --> A              
     e( 74 - 74) =     14.58398  eV     1   --> A              
     e( 75 - 75) =     15.23292  eV     1   --> A              
     e( 76 - 76) =     15.31420  eV     1   --> A              
     e( 77 - 77) =     15.51098  eV     1   --> A              
     e( 78 - 78) =     15.66801  eV     1   --> A              
     e( 79 - 79) =     15.87298  eV     1   --> A              
     e( 80 - 80) =     16.16001  eV     1   --> A              
     e( 81 - 81) =     16.27525  eV     1   --> A              
     e( 82 - 82) =     16.36448  eV     1   --> A              
     e( 83 - 83) =     16.55983  eV     1   --> A              
     e( 84 - 84) =     16.68701  eV     1   --> A              
     e( 85 - 85) =     16.76705  eV     1   --> A              
     e( 86 - 86) =     16.97847  eV     1   --> A              
     e( 87 - 87) =     17.08653  eV     1   --> A              
     e( 88 - 88) =     17.34237  eV     1   --> A              
     e( 89 - 89) =     17.42848  eV     1   --> A              
     e( 90 - 90) =     17.48920  eV     1   --> A              
     e( 91 - 91) =     17.69689  eV     1   --> A              
     e( 92 - 92) =     17.76909  eV     1   --> A              
     e( 93 - 93) =     17.79288  eV     1   --> A              
     e( 94 - 94) =     17.97536  eV     1   --> A              
     e( 95 - 95) =     18.11992  eV     1   --> A              
     e( 96 - 96) =     18.36193  eV     1   --> A              
     e( 97 - 97) =     18.49489  eV     1   --> A              
     e( 98 - 98) =     18.76971  eV     1   --> A              
     e( 99 - 99) =     18.92428  eV     1   --> A              
     e(100 -100) =     19.06612  eV     1   --> A              

 **************************************************************************

 **************************************************************************

                    xk=(   0.06429,   0.03712,   0.00000  )

     Band symmetry, C_1 (1)     point group:

     e(  1 -  1) =    -34.90540  eV     1   --> A              
     e(  2 -  2) =    -34.90488  eV     1   --> A              
     e(  3 -  3) =    -34.90195  eV     1   --> A              
     e(  4 -  4) =    -34.90143  eV     1   --> A              
     e(  5 -  5) =    -34.86936  eV     1   --> A              
     e(  6 -  6) =    -34.86602  eV     1   --> A              
     e(  7 -  7) =    -34.86137  eV     1   --> A              
     e(  8 -  8) =    -34.85791  eV     1   --> A              
     e(  9 -  9) =    -34.85149  eV     1   --> A              
     e( 10 - 10) =    -34.84810  eV     1   --> A              
     e( 11 - 11) =    -34.80041  eV     1   --> A              
     e( 12 - 12) =    -34.79771  eV     1   --> A              
     e( 13 - 13) =    -34.78027  eV     1   --> A              
     e( 14 - 14) =    -34.76047  eV     1   --> A              
     e( 15 - 15) =    -34.75788  eV     1   --> A              
     e( 16 - 16) =    -27.69622  eV     1   --> A              
     e( 17 - 17) =    -27.69454  eV     1   --> A              
     e( 18 - 18) =    -27.69340  eV     1   --> A              
     e( 19 - 19) =    -27.69173  eV     1   --> A              
     e( 20 - 20) =    -27.68902  eV     1   --> A              
     e( 21 - 21) =    -27.68625  eV     1   --> A              
     e( 22 - 22) =    -27.68425  eV     1   --> A              
     e( 23 - 23) =    -27.68149  eV     1   --> A              
     e( 24 - 24) =    -27.68076  eV     1   --> A              
     e( 25 - 25) =    -27.67797  eV     1   --> A              
     e( 26 - 26) =    -10.74956  eV     1   --> A              
     e( 27 - 27) =    -10.20921  eV     1   --> A              
     e( 28 - 28) =     -9.15318  eV     1   --> A              
     e( 29 - 29) =     -6.45869  eV     1   --> A              
     e( 30 - 30) =     -5.20713  eV     1   --> A              
     e( 31 - 31) =     -0.61038  eV     1   --> A              
     e( 32 - 32) =     -0.52182  eV     1   --> A              
     e( 33 - 33) =     -0.11827  eV     1   --> A              
     e( 34 - 34) =      0.03384  eV     1   --> A              
     e( 35 - 35) =      0.21389  eV     1   --> A              
     e( 36 - 36) =      0.28468  eV     1   --> A              
     e( 37 - 37) =      0.81587  eV     1   --> A              
     e( 38 - 38) =      0.85510  eV     1   --> A              
     e( 39 - 39) =      1.19835  eV     1   --> A              
     e( 40 - 40) =      2.20363  eV     1   --> A              
     e( 41 - 41) =      2.26719  eV     1   --> A              
     e( 42 - 42) =      2.69014  eV     1   --> A              
     e( 43 - 43) =      3.51746  eV     1   --> A              
     e( 44 - 44) =      3.62574  eV     1   --> A              
     e( 45 - 45) =      3.78048  eV     1   --> A              
     e( 46 - 46) =      6.10835  eV     1   --> A              
     e( 47 - 47) =      6.22963  eV     1   --> A              
     e( 48 - 48) =      6.85022  eV     1   --> A              
     e( 49 - 49) =      6.96568  eV     1   --> A              
     e( 50 - 50) =      7.38446  eV     1   --> A              
     e( 51 - 51) =      7.75130  eV     1   --> A              
     e( 52 - 52) =      8.17046  eV     1   --> A              
     e( 53 - 53) =      8.36353  eV     1   --> A              
     e( 54 - 54) =      8.41900  eV     1   --> A              
     e( 55 - 55) =      8.64288  eV     1   --> A              
     e( 56 - 56) =      9.02207  eV     1   --> A              
     e( 57 - 57) =      9.53247  eV     1   --> A              
     e( 58 - 58) =      9.64826  eV     1   --> A              
     e( 59 - 59) =      9.79201  eV     1   --> A              
     e( 60 - 60) =     10.04320  eV     1   --> A              
     e( 61 - 61) =     10.48032  eV     1   --> A              
     e( 62 - 62) =     10.65261  eV     1   --> A              
     e( 63 - 63) =     10.95582  eV     1   --> A              
     e( 64 - 64) =     11.09208  eV     1   --> A              
     e( 65 - 65) =     11.79061  eV     1   --> A              
     e( 66 - 66) =     11.88001  eV     1   --> A              
     e( 67 - 67) =     12.54547  eV     1   --> A              
     e( 68 - 68) =     12.76631  eV     1   --> A              
     e( 69 - 69) =     13.19367  eV     1   --> A              
     e( 70 - 70) =     13.68033  eV     1   --> A              
     e( 71 - 71) =     13.95433  eV     1   --> A              
     e( 72 - 72) =     14.28109  eV     1   --> A              
     e( 73 - 73) =     14.35429  eV     1   --> A              
     e( 74 - 74) =     14.60778  eV     1   --> A              
     e( 75 - 75) =     15.21488  eV     1   --> A              
     e( 76 - 76) =     15.25623  eV     1   --> A              
     e( 77 - 77) =     15.47673  eV     1   --> A              
     e( 78 - 78) =     15.60207  eV     1   --> A              
     e( 79 - 79) =     15.82339  eV     1   --> A              
     e( 80 - 80) =     16.16449  eV     1   --> A              
     e( 81 - 81) =     16.29980  eV     1   --> A              
     e( 82 - 82) =     16.39585  eV     1   --> A              
     e( 83 - 83) =     16.56357  eV     1   --> A              
     e( 84 - 84) =     16.67885  eV     1   --> A              
     e( 85 - 85) =     16.77626  eV     1   --> A              
     e( 86 - 86) =     16.93646  eV     1   --> A              
     e( 87 - 87) =     17.05246  eV     1   --> A              
     e( 88 - 88) =     17.27873  eV     1   --> A              
     e( 89 - 89) =     17.49112  eV     1   --> A              
     e( 90 - 90) =     17.51870  eV     1   --> A              
     e( 91 - 91) =     17.62364  eV     1   --> A              
     e( 92 - 92) =     17.84612  eV     1   --> A              
     e( 93 - 93) =     17.88347  eV     1   --> A              
     e( 94 - 94) =     18.07186  eV     1   --> A              
     e( 95 - 95) =     18.18991  eV     1   --> A              
     e( 96 - 96) =     18.41416  eV     1   --> A              
     e( 97 - 97) =     18.44903  eV     1   --> A              
     e( 98 - 98) =     18.73909  eV     1   --> A              
     e( 99 - 99) =     18.87927  eV     1   --> A              
     e(100 -100) =     19.01804  eV     1   --> A              

 **************************************************************************

 **************************************************************************

                    xk=(   0.07143,   0.04124,   0.00000  )

     Band symmetry, C_1 (1)     point group:

     e(  1 -  1) =    -34.90539  eV     1   --> A              
     e(  2 -  2) =    -34.90488  eV     1   --> A              
     e(  3 -  3) =    -34.90195  eV     1   --> A              
     e(  4 -  4) =    -34.90142  eV     1   --> A              
     e(  5 -  5) =    -34.86936  eV     1   --> A              
     e(  6 -  6) =    -34.86602  eV     1   --> A              
     e(  7 -  7) =    -34.86137  eV     1   --> A              
     e(  8 -  8) =    -34.85791  eV     1   --> A              
     e(  9 -  9) =    -34.85149  eV     1   --> A              
     e( 10 - 10) =    -34.84809  eV     1   --> A              
     e( 11 - 11) =    -34.80041  eV     1   --> A              
     e( 12 - 12) =    -34.79771  eV     1   --> A              
     e( 13 - 13) =    -34.78027  eV     1   --> A              
     e( 14 - 14) =    -34.76046  eV     1   --> A              
     e( 15 - 15) =    -34.75788  eV     1   --> A              
     e( 16 - 16) =    -27.69620  eV     1   --> A              
     e( 17 - 17) =    -27.69453  eV     1   --> A              
     e( 18 - 18) =    -27.69339  eV     1   --> A              
     e( 19 - 19) =    -27.69173  eV     1   --> A              
     e( 20 - 20) =    -27.68901  eV     1   --> A              
     e( 21 - 21) =    -27.68625  eV     1   --> A              
     e( 22 - 22) =    -27.68426  eV     1   --> A              
     e( 23 - 23) =    -27.68150  eV     1   --> A              
     e( 24 - 24) =    -27.68076  eV     1   --> A              
     e( 25 - 25) =    -27.67797  eV     1   --> A              
     e( 26 - 26) =    -10.74193  eV     1   --> A              
     e( 27 - 27) =    -10.20237  eV     1   --> A              
     e( 28 - 28) =     -9.14939  eV     1   --> A              
     e( 29 - 29) =     -6.46144  eV     1   --> A              
     e( 30 - 30) =     -5.22336  eV     1   --> A              
     e( 31 - 31) =     -0.68067  eV     1   --> A              
     e( 32 - 32) =     -0.54672  eV     1   --> A              
     e( 33 - 33) =     -0.13583  eV     1   --> A              
     e( 34 - 34) =      0.00799  eV     1   --> A              
     e( 35 - 35) =      0.20709  eV     1   --> A              
     e( 36 - 36) =      0.23969  eV     1   --> A              
     e( 37 - 37) =      0.84135  eV     1   --> A              
     e( 38 - 38) =      0.88127  eV     1   --> A              
     e( 39 - 39) =      1.23012  eV     1   --> A              
     e( 40 - 40) =      2.22513  eV     1   --> A              
     e( 41 - 41) =      2.28670  eV     1   --> A              
     e( 42 - 42) =      2.70586  eV     1   --> A              
     e( 43 - 43) =      3.52879  eV     1   --> A              
     e( 44 - 44) =      3.63881  eV     1   --> A              
     e( 45 - 45) =      3.80586  eV     1   --> A              
     e( 46 - 46) =      6.12097  eV     1   --> A              
     e( 47 - 47) =      6.22833  eV     1   --> A              
     e( 48 - 48) =      6.82717  eV     1   --> A              
     e( 49 - 49) =      6.96524  eV     1   --> A              
     e( 50 - 50) =      7.38553  eV     1   --> A              
     e( 51 - 51) =      7.76266  eV     1   --> A              
     e( 52 - 52) =      8.14673  eV     1   --> A              
     e( 53 - 53) =      8.38535  eV     1   --> A              
     e( 54 - 54) =      8.41837  eV     1   --> A              
     e( 55 - 55) =      8.67668  eV     1   --> A              
     e( 56 - 56) =      9.01950  eV     1   --> A              
     e( 57 - 57) =      9.52473  eV     1   --> A              
     e( 58 - 58) =      9.67864  eV     1   --> A              
     e( 59 - 59) =      9.81861  eV     1   --> A              
     e( 60 - 60) =     10.07722  eV     1   --> A              
     e( 61 - 61) =     10.50937  eV     1   --> A              
     e( 62 - 62) =     10.62783  eV     1   --> A              
     e( 63 - 63) =     10.96977  eV     1   --> A              
     e( 64 - 64) =     11.07778  eV     1   --> A              
     e( 65 - 65) =     11.83788  eV     1   --> A              
     e( 66 - 66) =     11.93356  eV     1   --> A              
     e( 67 - 67) =     12.52502  eV     1   --> A              
     e( 68 - 68) =     12.78034  eV     1   --> A              
     e( 69 - 69) =     13.17146  eV     1   --> A              
     e( 70 - 70) =     13.65237  eV     1   --> A              
     e( 71 - 71) =     13.92431  eV     1   --> A              
     e( 72 - 72) =     14.25203  eV     1   --> A              
     e( 73 - 73) =     14.37303  eV     1   --> A              
     e( 74 - 74) =     14.64192  eV     1   --> A              
     e( 75 - 75) =     15.11020  eV     1   --> A              
     e( 76 - 76) =     15.24037  eV     1   --> A              
     e( 77 - 77) =     15.46453  eV     1   --> A              
     e( 78 - 78) =     15.55599  eV     1   --> A              
     e( 79 - 79) =     15.78498  eV     1   --> A              
     e( 80 - 80) =     16.15986  eV     1   --> A              
     e( 81 - 81) =     16.31541  eV     1   --> A              
     e( 82 - 82) =     16.41212  eV     1   --> A              
     e( 83 - 83) =     16.56374  eV     1   --> A              
     e( 84 - 84) =     16.65998  eV     1   --> A              
     e( 85 - 85) =     16.82336  eV     1   --> A              
     e( 86 - 86) =     16.89661  eV     1   --> A              
     e( 87 - 87) =     17.01408  eV     1   --> A              
     e( 88 - 88) =     17.20662  eV     1   --> A              
     e( 89 - 89) =     17.45837  eV     1   --> A              
     e( 90 - 90) =     17.55360  eV     1   --> A              
     e( 91 - 91) =     17.64920  eV     1   --> A              
     e( 92 - 92) =     17.93980  eV     1   --> A              
     e( 93 - 93) =     17.96693  eV     1   --> A              
     e( 94 - 94) =     18.17631  eV     1   --> A              
     e( 95 - 95) =     18.26061  eV     1   --> A              
     e( 96 - 96) =     18.40360  eV     1   --> A              
     e( 97 - 97) =     18.46670  eV     1   --> A              
     e( 98 - 98) =     18.72002  eV     1   --> A              
     e( 99 - 99) =     18.83556  eV     1   --> A              
     e(100 -100) =     18.97213  eV     1   --> A              

 **************************************************************************

 **************************************************************************

                    xk=(   0.07857,   0.04536,   0.00000  )

     Band symmetry, C_1 (1)     point group:

     e(  1 -  1) =    -34.90539  eV     1   --> A              
     e(  2 -  2) =    -34.90487  eV     1   --> A              
     e(  3 -  3) =    -34.90195  eV     1   --> A              
     e(  4 -  4) =    -34.90142  eV     1   --> A              
     e(  5 -  5) =    -34.86936  eV     1   --> A              
     e(  6 -  6) =    -34.86602  eV     1   --> A              
     e(  7 -  7) =    -34.86138  eV     1   --> A              
     e(  8 -  8) =    -34.85791  eV     1   --> A              
     e(  9 -  9) =    -34.85149  eV     1   --> A              
     e( 10 - 10) =    -34.84809  eV     1   --> A              
     e( 11 - 11) =    -34.80040  eV     1   --> A              
     e( 12 - 12) =    -34.79771  eV     1   --> A              
     e( 13 - 13) =    -34.78027  eV     1   --> A              
     e( 14 - 14) =    -34.76045  eV     1   --> A              
     e( 15 - 15) =    -34.75788  eV     1   --> A              
     e( 16 - 16) =    -27.69619  eV     1   --> A              
     e( 17 - 17) =    -27.69453  eV     1   --> A              
     e( 18 - 18) =    -27.69337  eV     1   --> A              
     e( 19 - 19) =    -27.69172  eV     1   --> A              
     e( 20 - 20) =    -27.68901  eV     1   --> A              
     e( 21 - 21) =    -27.68625  eV     1   --> A              
     e( 22 - 22) =    -27.68428  eV     1   --> A              
     e( 23 - 23) =    -27.68151  eV     1   --> A              
     e( 24 - 24) =    -27.68076  eV     1   --> A              
     e( 25 - 25) =    -27.67797  eV     1   --> A              
     e( 26 - 26) =    -10.73352  eV     1   --> A              
     e( 27 - 27) =    -10.19483  eV     1   --> A              
     e( 28 - 28) =     -9.14524  eV     1   --> A              
     e( 29 - 29) =     -6.46456  eV     1   --> A              
     e( 30 - 30) =     -5.24126  eV     1   --> A              
     e( 31 - 31) =     -0.75192  eV     1   --> A              
     e( 32 - 32) =     -0.57259  eV     1   --> A              
     e( 33 - 33) =     -0.15564  eV     1   --> A              
     e( 34 - 34) =     -0.02245  eV     1   --> A              
     e( 35 - 35) =      0.19471  eV     1   --> A              
     e( 36 - 36) =      0.20272  eV     1   --> A              
     e( 37 - 37) =      0.85831  eV     1   --> A              
     e( 38 - 38) =      0.91650  eV     1   --> A              
     e( 39 - 39) =      1.25684  eV     1   --> A              
     e( 40 - 40) =      2.21111  eV     1   --> A              
     e( 41 - 41) =      2.34882  eV     1   --> A              
     e( 42 - 42) =      2.72340  eV     1   --> A              
     e( 43 - 43) =      3.52983  eV     1   --> A              
     e( 44 - 44) =      3.65914  eV     1   --> A              
     e( 45 - 45) =      3.83596  eV     1   --> A              
     e( 46 - 46) =      6.13468  eV     1   --> A              
     e( 47 - 47) =      6.22629  eV     1   --> A              
     e( 48 - 48) =      6.80044  eV     1   --> A              
     e( 49 - 49) =      6.96836  eV     1   --> A              
     e( 50 - 50) =      7.38738  eV     1   --> A              
     e( 51 - 51) =      7.77598  eV     1   --> A              
     e( 52 - 52) =      8.12331  eV     1   --> A              
     e( 53 - 53) =      8.40753  eV     1   --> A              
     e( 54 - 54) =      8.41837  eV     1   --> A              
     e( 55 - 55) =      8.71188  eV     1   --> A              
     e( 56 - 56) =      9.01941  eV     1   --> A              
     e( 57 - 57) =      9.50825  eV     1   --> A              
     e( 58 - 58) =      9.70799  eV     1   --> A              
     e( 59 - 59) =      9.85561  eV     1   --> A              
     e( 60 - 60) =     10.11303  eV     1   --> A              
     e( 61 - 61) =     10.53460  eV     1   --> A              
     e( 62 - 62) =     10.61129  eV     1   --> A              
     e( 63 - 63) =     10.98633  eV     1   --> A              
     e( 64 - 64) =     11.06807  eV     1   --> A              
[...]
     e(  3 -  3) =    -34.90197  eV     1   --> A              
     e(  4 -  4) =    -34.90145  eV     1   --> A              
     e(  5 -  5) =    -34.86936  eV     1   --> A              
     e(  6 -  6) =    -34.86601  eV     1   --> A              
     e(  7 -  7) =    -34.86137  eV     1   --> A              
     e(  8 -  8) =    -34.85791  eV     1   --> A              
     e(  9 -  9) =    -34.85151  eV     1   --> A              
     e( 10 - 10) =    -34.84811  eV     1   --> A              
     e( 11 - 11) =    -34.80044  eV     1   --> A              
     e( 12 - 12) =    -34.79770  eV     1   --> A              
     e( 13 - 13) =    -34.78027  eV     1   --> A              
     e( 14 - 14) =    -34.76049  eV     1   --> A              
     e( 15 - 15) =    -34.75788  eV     1   --> A              
     e( 16 - 16) =    -27.69628  eV     1   --> A              
     e( 17 - 17) =    -27.69455  eV     1   --> A              
     e( 18 - 18) =    -27.69347  eV     1   --> A              
     e( 19 - 19) =    -27.69174  eV     1   --> A              
     e( 20 - 20) =    -27.68903  eV     1   --> A              
     e( 21 - 21) =    -27.68627  eV     1   --> A              
     e( 22 - 22) =    -27.68420  eV     1   --> A              
     e( 23 - 23) =    -27.68144  eV     1   --> A              
     e( 24 - 24) =    -27.68076  eV     1   --> A              
     e( 25 - 25) =    -27.67798  eV     1   --> A              
     e( 26 - 26) =    -10.77988  eV     1   --> A              
     e( 27 - 27) =    -10.23644  eV     1   --> A              
     e( 28 - 28) =     -9.16841  eV     1   --> A              
     e( 29 - 29) =     -6.44819  eV     1   --> A              
     e( 30 - 30) =     -5.14153  eV     1   --> A              
     e( 31 - 31) =     -0.40487  eV     1   --> A              
     e( 32 - 32) =     -0.21448  eV     1   --> A              
     e( 33 - 33) =     -0.03458  eV     1   --> A              
     e( 34 - 34) =      0.10385  eV     1   --> A              
     e( 35 - 35) =      0.22777  eV     1   --> A              
     e( 36 - 36) =      0.53869  eV     1   --> A              
     e( 37 - 37) =      0.60465  eV     1   --> A              
     e( 38 - 38) =      0.76781  eV     1   --> A              
     e( 39 - 39) =      1.02283  eV     1   --> A              
     e( 40 - 40) =      1.86056  eV     1   --> A              
     e( 41 - 41) =      2.46472  eV     1   --> A              
     e( 42 - 42) =      2.63273  eV     1   --> A              
     e( 43 - 43) =      3.31170  eV     1   --> A              
     e( 44 - 44) =      3.62447  eV     1   --> A              
     e( 45 - 45) =      3.72790  eV     1   --> A              
     e( 46 - 46) =      6.05617  eV     1   --> A              
     e( 47 - 47) =      6.23089  eV     1   --> A              
     e( 48 - 48) =      6.88455  eV     1   --> A              
     e( 49 - 49) =      7.05016  eV     1   --> A              
     e( 50 - 50) =      7.39076  eV     1   --> A              
     e( 51 - 51) =      7.70646  eV     1   --> A              
     e( 52 - 52) =      8.18863  eV     1   --> A              
     e( 53 - 53) =      8.36487  eV     1   --> A              
     e( 54 - 54) =      8.44417  eV     1   --> A              
     e( 55 - 55) =      8.49229  eV     1   --> A              
     e( 56 - 56) =      9.08392  eV     1   --> A              
     e( 57 - 57) =      9.29933  eV     1   --> A              
     e( 58 - 58) =      9.52260  eV     1   --> A              
     e( 59 - 59) =      9.86476  eV     1   --> A              
     e( 60 - 60) =      9.91298  eV     1   --> A              
     e( 61 - 61) =     10.37486  eV     1   --> A              
     e( 62 - 62) =     10.65616  eV     1   --> A              
     e( 63 - 63) =     11.10032  eV     1   --> A              
     e( 64 - 64) =     11.27846  eV     1   --> A              
     e( 65 - 65) =     11.37462  eV     1   --> A              
     e( 66 - 66) =     11.59712  eV     1   --> A              
     e( 67 - 67) =     12.65777  eV     1   --> A              
     e( 68 - 68) =     12.71387  eV     1   --> A              
     e( 69 - 69) =     13.40754  eV     1   --> A              
     e( 70 - 70) =     13.79282  eV     1   --> A              
     e( 71 - 71) =     13.98847  eV     1   --> A              
     e( 72 - 72) =     14.05018  eV     1   --> A              
     e( 73 - 73) =     14.34452  eV     1   --> A              
     e( 74 - 74) =     14.86969  eV     1   --> A              
     e( 75 - 75) =     15.14863  eV     1   --> A              
     e( 76 - 76) =     15.61807  eV     1   --> A              
     e( 77 - 77) =     15.78943  eV     1   --> A              
     e( 78 - 78) =     15.83134  eV     1   --> A              
     e( 79 - 79) =     15.91872  eV     1   --> A              
     e( 80 - 80) =     16.17856  eV     1   --> A              
     e( 81 - 81) =     16.33112  eV     1   --> A              
     e( 82 - 82) =     16.43561  eV     1   --> A              
     e( 83 - 83) =     16.52345  eV     1   --> A              
     e( 84 - 84) =     16.73079  eV     1   --> A              
     e( 85 - 85) =     16.89621  eV     1   --> A              
     e( 86 - 86) =     16.96743  eV     1   --> A              
     e( 87 - 87) =     17.05585  eV     1   --> A              
     e( 88 - 88) =     17.07313  eV     1   --> A              
     e( 89 - 89) =     17.23983  eV     1   --> A              
     e( 90 - 90) =     17.31928  eV     1   --> A              
     e( 91 - 91) =     17.33032  eV     1   --> A              
     e( 92 - 92) =     17.62634  eV     1   --> A              
     e( 93 - 93) =     17.78057  eV     1   --> A              
     e( 94 - 94) =     18.03186  eV     1   --> A              
     e( 95 - 95) =     18.27605  eV     1   --> A              
     e( 96 - 96) =     18.39878  eV     1   --> A              
     e( 97 - 97) =     18.70203  eV     1   --> A              
     e( 98 - 98) =     18.85909  eV     1   --> A              
     e( 99 - 99) =     18.93050  eV     1   --> A              
     e(100 -100) =     19.06849  eV     1   --> A              

 **************************************************************************

 **************************************************************************

                    xk=(   0.00476,   0.00852,   0.00000  )

     Band symmetry, C_1 (1)     point group:

     e(  1 -  1) =    -34.90542  eV     1   --> A              
     e(  2 -  2) =    -34.90491  eV     1   --> A              
     e(  3 -  3) =    -34.90197  eV     1   --> A              
     e(  4 -  4) =    -34.90145  eV     1   --> A              
     e(  5 -  5) =    -34.86935  eV     1   --> A              
     e(  6 -  6) =    -34.86601  eV     1   --> A              
     e(  7 -  7) =    -34.86137  eV     1   --> A              
     e(  8 -  8) =    -34.85791  eV     1   --> A              
     e(  9 -  9) =    -34.85151  eV     1   --> A              
     e( 10 - 10) =    -34.84811  eV     1   --> A              
     e( 11 - 11) =    -34.80044  eV     1   --> A              
     e( 12 - 12) =    -34.79770  eV     1   --> A              
     e( 13 - 13) =    -34.78027  eV     1   --> A              
     e( 14 - 14) =    -34.76050  eV     1   --> A              
     e( 15 - 15) =    -34.75788  eV     1   --> A              
     e( 16 - 16) =    -27.69628  eV     1   --> A              
     e( 17 - 17) =    -27.69455  eV     1   --> A              
     e( 18 - 18) =    -27.69347  eV     1   --> A              
     e( 19 - 19) =    -27.69175  eV     1   --> A              
     e( 20 - 20) =    -27.68903  eV     1   --> A              
     e( 21 - 21) =    -27.68627  eV     1   --> A              
     e( 22 - 22) =    -27.68420  eV     1   --> A              
     e( 23 - 23) =    -27.68144  eV     1   --> A              
     e( 24 - 24) =    -27.68076  eV     1   --> A              
     e( 25 - 25) =    -27.67797  eV     1   --> A              
     e( 26 - 26) =    -10.78157  eV     1   --> A              
     e( 27 - 27) =    -10.23797  eV     1   --> A              
     e( 28 - 28) =     -9.16932  eV     1   --> A              
     e( 29 - 29) =     -6.44775  eV     1   --> A              
     e( 30 - 30) =     -5.13830  eV     1   --> A              
     e( 31 - 31) =     -0.39856  eV     1   --> A              
     e( 32 - 32) =     -0.18680  eV     1   --> A              
     e( 33 - 33) =     -0.04000  eV     1   --> A              
     e( 34 - 34) =      0.11489  eV     1   --> A              
     e( 35 - 35) =      0.23749  eV     1   --> A              
     e( 36 - 36) =      0.55229  eV     1   --> A              
     e( 37 - 37) =      0.58447  eV     1   --> A              
     e( 38 - 38) =      0.77076  eV     1   --> A              
     e( 39 - 39) =      1.00890  eV     1   --> A              
     e( 40 - 40) =      1.83992  eV     1   --> A              
     e( 41 - 41) =      2.46960  eV     1   --> A              
     e( 42 - 42) =      2.63954  eV     1   --> A              
     e( 43 - 43) =      3.29630  eV     1   --> A              
     e( 44 - 44) =      3.62209  eV     1   --> A              
     e( 45 - 45) =      3.72540  eV     1   --> A              
     e( 46 - 46) =      6.05311  eV     1   --> A              
     e( 47 - 47) =      6.23051  eV     1   --> A              
     e( 48 - 48) =      6.88402  eV     1   --> A              
     e( 49 - 49) =      7.05262  eV     1   --> A              
     e( 50 - 50) =      7.39115  eV     1   --> A              
     e( 51 - 51) =      7.71937  eV     1   --> A              
     e( 52 - 52) =      8.17391  eV     1   --> A              
     e( 53 - 53) =      8.37362  eV     1   --> A              
     e( 54 - 54) =      8.43518  eV     1   --> A              
     e( 55 - 55) =      8.49821  eV     1   --> A              
     e( 56 - 56) =      9.08653  eV     1   --> A              
     e( 57 - 57) =      9.28186  eV     1   --> A              
     e( 58 - 58) =      9.51538  eV     1   --> A              
     e( 59 - 59) =      9.87055  eV     1   --> A              
     e( 60 - 60) =      9.90333  eV     1   --> A              
     e( 61 - 61) =     10.36529  eV     1   --> A              
     e( 62 - 62) =     10.65786  eV     1   --> A              
     e( 63 - 63) =     11.15229  eV     1   --> A              
     e( 64 - 64) =     11.25535  eV     1   --> A              
     e( 65 - 65) =     11.36147  eV     1   --> A              
     e( 66 - 66) =     11.56133  eV     1   --> A              
     e( 67 - 67) =     12.66424  eV     1   --> A              
     e( 68 - 68) =     12.70548  eV     1   --> A              
     e( 69 - 69) =     13.43888  eV     1   --> A              
     e( 70 - 70) =     13.76415  eV     1   --> A              
     e( 71 - 71) =     14.01447  eV     1   --> A              
     e( 72 - 72) =     14.06071  eV     1   --> A              
     e( 73 - 73) =     14.31659  eV     1   --> A              
     e( 74 - 74) =     14.86331  eV     1   --> A              
     e( 75 - 75) =     15.19565  eV     1   --> A              
     e( 76 - 76) =     15.57180  eV     1   --> A              
     e( 77 - 77) =     15.77415  eV     1   --> A              
     e( 78 - 78) =     15.88001  eV     1   --> A              
     e( 79 - 79) =     15.93113  eV     1   --> A              
     e( 80 - 80) =     16.17138  eV     1   --> A              
     e( 81 - 81) =     16.39595  eV     1   --> A              
     e( 82 - 82) =     16.47527  eV     1   --> A              
     e( 83 - 83) =     16.57807  eV     1   --> A              
     e( 84 - 84) =     16.64684  eV     1   --> A              
     e( 85 - 85) =     16.82448  eV     1   --> A              
     e( 86 - 86) =     16.95754  eV     1   --> A              
     e( 87 - 87) =     17.01971  eV     1   --> A              
     e( 88 - 88) =     17.09182  eV     1   --> A              
     e( 89 - 89) =     17.24451  eV     1   --> A              
     e( 90 - 90) =     17.35895  eV     1   --> A              
     e( 91 - 91) =     17.39494  eV     1   --> A              
     e( 92 - 92) =     17.65313  eV     1   --> A              
     e( 93 - 93) =     17.67111  eV     1   --> A              
     e( 94 - 94) =     17.94366  eV     1   --> A              
     e( 95 - 95) =     18.36117  eV     1   --> A              
     e( 96 - 96) =     18.48574  eV     1   --> A              
     e( 97 - 97) =     18.60746  eV     1   --> A              
     e( 98 - 98) =     18.81007  eV     1   --> A              
     e( 99 - 99) =     18.96857  eV     1   --> A              
     e(100 -100) =     19.04277  eV     1   --> A              

 **************************************************************************

 **************************************************************************

                    xk=(   0.00000,   0.00000,   0.00000  )

     Band symmetry, C_1 (1)     point group:

     e(  1 -  1) =    -34.90541  eV     1   --> A              
     e(  2 -  2) =    -34.90491  eV     1   --> A              
     e(  3 -  3) =    -34.90197  eV     1   --> A              
     e(  4 -  4) =    -34.90145  eV     1   --> A              
     e(  5 -  5) =    -34.86935  eV     1   --> A              
     e(  6 -  6) =    -34.86601  eV     1   --> A              
     e(  7 -  7) =    -34.86137  eV     1   --> A              
     e(  8 -  8) =    -34.85791  eV     1   --> A              
     e(  9 -  9) =    -34.85151  eV     1   --> A              
     e( 10 - 10) =    -34.84811  eV     1   --> A              
     e( 11 - 11) =    -34.80044  eV     1   --> A              
     e( 12 - 12) =    -34.79770  eV     1   --> A              
     e( 13 - 13) =    -34.78026  eV     1   --> A              
     e( 14 - 14) =    -34.76050  eV     1   --> A              
     e( 15 - 15) =    -34.75788  eV     1   --> A              
     e( 16 - 16) =    -27.69628  eV     1   --> A              
     e( 17 - 17) =    -27.69455  eV     1   --> A              
     e( 18 - 18) =    -27.69347  eV     1   --> A              
     e( 19 - 19) =    -27.69175  eV     1   --> A              
     e( 20 - 20) =    -27.68903  eV     1   --> A              
     e( 21 - 21) =    -27.68627  eV     1   --> A              
     e( 22 - 22) =    -27.68420  eV     1   --> A              
     e( 23 - 23) =    -27.68144  eV     1   --> A              
     e( 24 - 24) =    -27.68076  eV     1   --> A              
     e( 25 - 25) =    -27.67797  eV     1   --> A              
     e( 26 - 26) =    -10.78212  eV     1   --> A              
     e( 27 - 27) =    -10.23848  eV     1   --> A              
     e( 28 - 28) =     -9.16960  eV     1   --> A              
     e( 29 - 29) =     -6.44760  eV     1   --> A              
     e( 30 - 30) =     -5.13719  eV     1   --> A              
     e( 31 - 31) =     -0.39645  eV     1   --> A              
     e( 32 - 32) =     -0.17674  eV     1   --> A              
     e( 33 - 33) =     -0.04250  eV     1   --> A              
     e( 34 - 34) =      0.11867  eV     1   --> A              
     e( 35 - 35) =      0.24097  eV     1   --> A              
     e( 36 - 36) =      0.55993  eV     1   --> A              
     e( 37 - 37) =      0.57413  eV     1   --> A              
     e( 38 - 38) =      0.77182  eV     1   --> A              
     e( 39 - 39) =      1.00442  eV     1   --> A              
     e( 40 - 40) =      1.83272  eV     1   --> A              
     e( 41 - 41) =      2.47111  eV     1   --> A              
     e( 42 - 42) =      2.64231  eV     1   --> A              
     e( 43 - 43) =      3.29078  eV     1   --> A              
     e( 44 - 44) =      3.62128  eV     1   --> A              
     e( 45 - 45) =      3.72469  eV     1   --> A              
     e( 46 - 46) =      6.05209  eV     1   --> A              
     e( 47 - 47) =      6.23039  eV     1   --> A              
     e( 48 - 48) =      6.88381  eV     1   --> A              
     e( 49 - 49) =      7.05343  eV     1   --> A              
     e( 50 - 50) =      7.39130  eV     1   --> A              
     e( 51 - 51) =      7.72402  eV     1   --> A              
     e( 52 - 52) =      8.16853  eV     1   --> A              
     e( 53 - 53) =      8.37745  eV     1   --> A              
     e( 54 - 54) =      8.43120  eV     1   --> A              
     e( 55 - 55) =      8.50058  eV     1   --> A              
     e( 56 - 56) =      9.08754  eV     1   --> A              
     e( 57 - 57) =      9.27579  eV     1   --> A              
     e( 58 - 58) =      9.51279  eV     1   --> A              
     e( 59 - 59) =      9.87267  eV     1   --> A              
     e( 60 - 60) =      9.90009  eV     1   --> A              
     e( 61 - 61) =     10.36213  eV     1   --> A              
     e( 62 - 62) =     10.65837  eV     1   --> A              
     e( 63 - 63) =     11.18527  eV     1   --> A              
     e( 64 - 64) =     11.23045  eV     1   --> A              
     e( 65 - 65) =     11.36026  eV     1   --> A              
     e( 66 - 66) =     11.54774  eV     1   --> A              
     e( 67 - 67) =     12.66684  eV     1   --> A              
     e( 68 - 68) =     12.70224  eV     1   --> A              
     e( 69 - 69) =     13.45113  eV     1   --> A              
     e( 70 - 70) =     13.75266  eV     1   --> A              
     e( 71 - 71) =     14.01877  eV     1   --> A              
     e( 72 - 72) =     14.07076  eV     1   --> A              
     e( 73 - 73) =     14.30573  eV     1   --> A              
     e( 74 - 74) =     14.85881  eV     1   --> A              
     e( 75 - 75) =     15.21908  eV     1   --> A              
     e( 76 - 76) =     15.54853  eV     1   --> A              
     e( 77 - 77) =     15.76899  eV     1   --> A              
     e( 78 - 78) =     15.90246  eV     1   --> A              
     e( 79 - 79) =     15.93346  eV     1   --> A              
     e( 80 - 80) =     16.16401  eV     1   --> A              
     e( 81 - 81) =     16.45530  eV     1   --> A              
     e( 82 - 82) =     16.46297  eV     1   --> A              
     e( 83 - 83) =     16.58929  eV     1   --> A              
     e( 84 - 84) =     16.64298  eV     1   --> A              
     e( 85 - 85) =     16.77244  eV     1   --> A              
     e( 86 - 86) =     16.95146  eV     1   --> A              
     e( 87 - 87) =     17.00573  eV     1   --> A              
     e( 88 - 88) =     17.10026  eV     1   --> A              
     e( 89 - 89) =     17.24590  eV     1   --> A              
     e( 90 - 90) =     17.37627  eV     1   --> A              
     e( 91 - 91) =     17.44098  eV     1   --> A              
     e( 92 - 92) =     17.60160  eV     1   --> A              
     e( 93 - 93) =     17.68606  eV     1   --> A              
     e( 94 - 94) =     17.89547  eV     1   --> A              
     e( 95 - 95) =     18.44460  eV     1   --> A              
     e( 96 - 96) =     18.47326  eV     1   --> A              
     e( 97 - 97) =     18.58092  eV     1   --> A              
     e( 98 - 98) =     18.77582  eV     1   --> A              
     e( 99 - 99) =     18.97698  eV     1   --> A              
     e(100 -100) =     19.03811  eV     1   --> A              

 **************************************************************************

     BANDS        :   1m18.30s CPU   2m16.38s WALL


   This run was terminated on:  16:52:38  13Aug2025            

=------------------------------------------------------------------------------=
   JOB DONE.
=------------------------------------------------------------------------------=
