
     Program BANDS v.7.4.1 starts on 14Aug2025 at 21: 3:44 

     This program is part of the open-source Quantum ESPRESSO suite
     for quantum simulation of materials; please cite
         "P. Giannozzi et al., J. Phys.:Condens. Matter 21 395502 (2009);
         "P. Giannozzi et al., J. Phys.:Condens. Matter 29 465901 (2017);
         "P. Giannozzi et al., J. Chem. Phys. 152 154105 (2020);
          URL http://www.quantum-espresso.org", 
     in publications or presentations arising from this work. More details at
     http://www.quantum-espresso.org/quote

     Parallel version (MPI & OpenMP), running on      48 processor cores
     Number of MPI processes:                24
     Threads/MPI process:                     2

     MPI processes distributed on     2 nodes
     R & G space division:  proc/nbgrp/npool/nimage =      24
     96917 MiB available memory on the printing compute node when the environment starts


     Reading xml data from directory:

     tmp/Sb2Te3-uatsx-c3-4.0.save/

     IMPORTANT: XC functional enforced from input :
     Exchange-correlation= PBE
                           (   1   4   3   4   0   0   0)
     Any further DFT definition will be discarded
     Please, verify this is what you really want


     Parallelization info
     --------------------
     sticks:   dense  smooth     PW     G-vecs:    dense   smooth      PW
     Min          99      39     11                19681     4971     755
     Max         100      40     12                19687     4990     769
     Sum        2379     953    269               472441   119521   18333

     Using Slab Decomposition

     Reading collected, re-writing distributed wavefunctions
     high-symmetry point:  0.0000 0.0000 0.0000   x coordinate   0.0000
     high-symmetry point:  0.5000 0.2887 0.0000   x coordinate   0.5774
     high-symmetry point:  0.3333 0.5928 0.0000   x coordinate   0.9241
     high-symmetry point:  0.0000 0.0000 0.0000   x coordinate   1.6042

     Plottable bands (eV) written to file ./bands/Sb2Te3-uatsx-c3-4.0.bands.gnu
     Bands written to file ./bands/Sb2Te3-uatsx-c3-4.0.bands

 **************************************************************************

                    xk=(   0.00000,   0.00000,   0.00000  )

     point group C_1 (1)    
     there are  1 classes
     the character table:

       E    
A      1.00

     the symmetry operations in each class and the name of the first element:

     E        1
                                                                 

     Band symmetry, C_1 (1)     point group:

     e(  1 -  1) =    -34.83902  eV     1   --> A              
     e(  2 -  2) =    -34.83859  eV     1   --> A              
     e(  3 -  3) =    -34.83611  eV     1   --> A              
     e(  4 -  4) =    -34.83569  eV     1   --> A              
     e(  5 -  5) =    -34.80520  eV     1   --> A              
     e(  6 -  6) =    -34.80222  eV     1   --> A              
     e(  7 -  7) =    -34.79851  eV     1   --> A              
     e(  8 -  8) =    -34.79566  eV     1   --> A              
     e(  9 -  9) =    -34.78888  eV     1   --> A              
     e( 10 - 10) =    -34.78598  eV     1   --> A              
     e( 11 - 11) =    -34.73272  eV     1   --> A              
     e( 12 - 12) =    -34.72850  eV     1   --> A              
     e( 13 - 13) =    -34.71458  eV     1   --> A              
     e( 14 - 14) =    -34.69070  eV     1   --> A              
     e( 15 - 15) =    -34.68910  eV     1   --> A              
     e( 16 - 16) =    -27.62114  eV     1   --> A              
     e( 17 - 17) =    -27.62006  eV     1   --> A              
     e( 18 - 18) =    -27.61877  eV     1   --> A              
     e( 19 - 19) =    -27.61768  eV     1   --> A              
     e( 20 - 20) =    -27.61374  eV     1   --> A              
     e( 21 - 21) =    -27.61137  eV     1   --> A              
     e( 22 - 22) =    -27.60957  eV     1   --> A              
     e( 23 - 23) =    -27.60721  eV     1   --> A              
     e( 24 - 24) =    -27.60680  eV     1   --> A              
     e( 25 - 25) =    -27.60443  eV     1   --> A              
     e( 26 - 26) =    -10.74269  eV     1   --> A              
     e( 27 - 27) =    -10.20233  eV     1   --> A              
     e( 28 - 28) =     -9.12971  eV     1   --> A              
     e( 29 - 29) =     -6.39782  eV     1   --> A              
     e( 30 - 30) =     -5.06009  eV     1   --> A              
     e( 31 - 31) =     -0.28858  eV     1   --> A              
     e( 32 - 32) =     -0.11458  eV     1   --> A              
     e( 33 - 33) =      0.07978  eV     1   --> A              
     e( 34 - 34) =      0.16740  eV     1   --> A              
     e( 35 - 35) =      0.31463  eV     1   --> A              
     e( 36 - 36) =      0.64316  eV     1   --> A              
     e( 37 - 37) =      0.68530  eV     1   --> A              
     e( 38 - 38) =      0.86397  eV     1   --> A              
     e( 39 - 39) =      1.08850  eV     1   --> A              
     e( 40 - 40) =      1.98419  eV     1   --> A              
     e( 41 - 41) =      2.56585  eV     1   --> A              
     e( 42 - 42) =      2.70611  eV     1   --> A              
     e( 43 - 43) =      3.43438  eV     1   --> A              
     e( 44 - 44) =      3.69937  eV     1   --> A              
     e( 45 - 45) =      3.78482  eV     1   --> A              
     e( 46 - 46) =      6.10541  eV     1   --> A              
     e( 47 - 47) =      6.28834  eV     1   --> A              
     e( 48 - 48) =      6.91486  eV     1   --> A              
     e( 49 - 49) =      7.20439  eV     1   --> A              
     e( 50 - 50) =      7.46419  eV     1   --> A              
     e( 51 - 51) =      7.75479  eV     1   --> A              
     e( 52 - 52) =      8.25377  eV     1   --> A              
     e( 53 - 53) =      8.45395  eV     1   --> A              
     e( 54 - 54) =      8.55280  eV     1   --> A              
     e( 55 - 55) =      8.58887  eV     1   --> A              
     e( 56 - 56) =      9.10700  eV     1   --> A              
     e( 57 - 57) =      9.37705  eV     1   --> A              
     e( 58 - 58) =      9.57134  eV     1   --> A              
     e( 59 - 59) =      9.92041  eV     1   --> A              
     e( 60 - 60) =      9.97516  eV     1   --> A              
     e( 61 - 61) =     10.41505  eV     1   --> A              
     e( 62 - 62) =     10.78148  eV     1   --> A              
     e( 63 - 63) =     11.26009  eV     1   --> A              
     e( 64 - 64) =     11.32968  eV     1   --> A              
     e( 65 - 65) =     11.36939  eV     1   --> A              
     e( 66 - 66) =     11.58940  eV     1   --> A              
     e( 67 - 67) =     12.73406  eV     1   --> A              
     e( 68 - 68) =     12.73901  eV     1   --> A              
     e( 69 - 69) =     13.58564  eV     1   --> A              
     e( 70 - 70) =     13.87620  eV     1   --> A              
     e( 71 - 71) =     14.09362  eV     1   --> A              
     e( 72 - 72) =     14.09463  eV     1   --> A              
     e( 73 - 73) =     14.33402  eV     1   --> A              
     e( 74 - 74) =     14.92755  eV     1   --> A              
     e( 75 - 75) =     15.39245  eV     1   --> A              
     e( 76 - 76) =     15.73109  eV     1   --> A              
     e( 77 - 77) =     15.85618  eV     1   --> A              
     e( 78 - 78) =     15.95044  eV     1   --> A              
     e( 79 - 79) =     16.04152  eV     1   --> A              
     e( 80 - 80) =     16.23082  eV     1   --> A              
     e( 81 - 81) =     16.53675  eV     1   --> A              
     e( 82 - 82) =     16.68027  eV     1   --> A              
     e( 83 - 83) =     16.74188  eV     1   --> A              
     e( 84 - 84) =     16.80555  eV     1   --> A              
     e( 85 - 85) =     16.99022  eV     1   --> A              
     e( 86 - 86) =     17.07706  eV     1   --> A              
     e( 87 - 87) =     17.14325  eV     1   --> A              
     e( 88 - 88) =     17.19371  eV     1   --> A              
     e( 89 - 89) =     17.37403  eV     1   --> A              
     e( 90 - 90) =     17.44861  eV     1   --> A              
     e( 91 - 91) =     17.51390  eV     1   --> A              
     e( 92 - 92) =     17.67692  eV     1   --> A              
     e( 93 - 93) =     17.74012  eV     1   --> A              
     e( 94 - 94) =     17.97298  eV     1   --> A              
     e( 95 - 95) =     18.62750  eV     1   --> A              
     e( 96 - 96) =     18.67146  eV     1   --> A              
     e( 97 - 97) =     18.76827  eV     1   --> A              
     e( 98 - 98) =     18.97750  eV     1   --> A              
     e( 99 - 99) =     19.07758  eV     1   --> A              
     e(100 -100) =     19.14552  eV     1   --> A              

 **************************************************************************

 **************************************************************************

                    xk=(   0.00714,   0.00412,   0.00000  )

     Band symmetry, C_1 (1)     point group:

     e(  1 -  1) =    -34.83902  eV     1   --> A              
     e(  2 -  2) =    -34.83859  eV     1   --> A              
     e(  3 -  3) =    -34.83611  eV     1   --> A              
     e(  4 -  4) =    -34.83569  eV     1   --> A              
     e(  5 -  5) =    -34.80520  eV     1   --> A              
     e(  6 -  6) =    -34.80222  eV     1   --> A              
     e(  7 -  7) =    -34.79851  eV     1   --> A              
     e(  8 -  8) =    -34.79566  eV     1   --> A              
     e(  9 -  9) =    -34.78888  eV     1   --> A              
     e( 10 - 10) =    -34.78598  eV     1   --> A              
     e( 11 - 11) =    -34.73272  eV     1   --> A              
     e( 12 - 12) =    -34.72850  eV     1   --> A              
     e( 13 - 13) =    -34.71458  eV     1   --> A              
     e( 14 - 14) =    -34.69070  eV     1   --> A              
     e( 15 - 15) =    -34.68910  eV     1   --> A              
     e( 16 - 16) =    -27.62114  eV     1   --> A              
     e( 17 - 17) =    -27.62006  eV     1   --> A              
     e( 18 - 18) =    -27.61877  eV     1   --> A              
     e( 19 - 19) =    -27.61768  eV     1   --> A              
     e( 20 - 20) =    -27.61374  eV     1   --> A              
     e( 21 - 21) =    -27.61137  eV     1   --> A              
     e( 22 - 22) =    -27.60957  eV     1   --> A              
     e( 23 - 23) =    -27.60721  eV     1   --> A              
     e( 24 - 24) =    -27.60680  eV     1   --> A              
     e( 25 - 25) =    -27.60443  eV     1   --> A              
     e( 26 - 26) =    -10.74227  eV     1   --> A              
     e( 27 - 27) =    -10.20195  eV     1   --> A              
     e( 28 - 28) =     -9.12950  eV     1   --> A              
     e( 29 - 29) =     -6.39792  eV     1   --> A              
     e( 30 - 30) =     -5.06092  eV     1   --> A              
     e( 31 - 31) =     -0.29025  eV     1   --> A              
     e( 32 - 32) =     -0.12074  eV     1   --> A              
     e( 33 - 33) =      0.07461  eV     1   --> A              
     e( 34 - 34) =      0.16892  eV     1   --> A              
     e( 35 - 35) =      0.31369  eV     1   --> A              
     e( 36 - 36) =      0.64090  eV     1   --> A              
     e( 37 - 37) =      0.68843  eV     1   --> A              
     e( 38 - 38) =      0.86520  eV     1   --> A              
     e( 39 - 39) =      1.09120  eV     1   --> A              
     e( 40 - 40) =      1.99043  eV     1   --> A              
     e( 41 - 41) =      2.56227  eV     1   --> A              
     e( 42 - 42) =      2.70592  eV     1   --> A              
     e( 43 - 43) =      3.43916  eV     1   --> A              
     e( 44 - 44) =      3.69963  eV     1   --> A              
     e( 45 - 45) =      3.78468  eV     1   --> A              
     e( 46 - 46) =      6.10616  eV     1   --> A              
     e( 47 - 47) =      6.28841  eV     1   --> A              
     e( 48 - 48) =      6.91499  eV     1   --> A              
     e( 49 - 49) =      7.20230  eV     1   --> A              
     e( 50 - 50) =      7.46402  eV     1   --> A              
     e( 51 - 51) =      7.75484  eV     1   --> A              
     e( 52 - 52) =      8.25644  eV     1   --> A              
     e( 53 - 53) =      8.45120  eV     1   --> A              
     e( 54 - 54) =      8.55468  eV     1   --> A              
     e( 55 - 55) =      8.58758  eV     1   --> A              
     e( 56 - 56) =      9.10520  eV     1   --> A              
     e( 57 - 57) =      9.38384  eV     1   --> A              
     e( 58 - 58) =      9.57347  eV     1   --> A              
     e( 59 - 59) =      9.91792  eV     1   --> A              
     e( 60 - 60) =      9.97708  eV     1   --> A              
     e( 61 - 61) =     10.41650  eV     1   --> A              
     e( 62 - 62) =     10.78292  eV     1   --> A              
     e( 63 - 63) =     11.24303  eV     1   --> A              
     e( 64 - 64) =     11.30669  eV     1   --> A              
     e( 65 - 65) =     11.40639  eV     1   --> A              
     e( 66 - 66) =     11.59642  eV     1   --> A              
     e( 67 - 67) =     12.72823  eV     1   --> A              
     e( 68 - 68) =     12.74446  eV     1   --> A              
     e( 69 - 69) =     13.57570  eV     1   --> A              
     e( 70 - 70) =     13.88220  eV     1   --> A              
     e( 71 - 71) =     14.05958  eV     1   --> A              
     e( 72 - 72) =     14.12983  eV     1   --> A              
     e( 73 - 73) =     14.33718  eV     1   --> A              
     e( 74 - 74) =     14.92859  eV     1   --> A              
     e( 75 - 75) =     15.37053  eV     1   --> A              
     e( 76 - 76) =     15.73563  eV     1   --> A              
     e( 77 - 77) =     15.86883  eV     1   --> A              
     e( 78 - 78) =     15.93827  eV     1   --> A              
     e( 79 - 79) =     16.05521  eV     1   --> A              
     e( 80 - 80) =     16.23071  eV     1   --> A              
     e( 81 - 81) =     16.52756  eV     1   --> A              
     e( 82 - 82) =     16.61301  eV     1   --> A              
     e( 83 - 83) =     16.75213  eV     1   --> A              
     e( 84 - 84) =     16.82840  eV     1   --> A              
     e( 85 - 85) =     16.99756  eV     1   --> A              
     e( 86 - 86) =     17.07106  eV     1   --> A              
     e( 87 - 87) =     17.15764  eV     1   --> A              
     e( 88 - 88) =     17.21761  eV     1   --> A              
     e( 89 - 89) =     17.36172  eV     1   --> A              
     e( 90 - 90) =     17.45501  eV     1   --> A              
     e( 91 - 91) =     17.51452  eV     1   --> A              
     e( 92 - 92) =     17.69341  eV     1   --> A              
     e( 93 - 93) =     17.73744  eV     1   --> A              
     e( 94 - 94) =     17.98467  eV     1   --> A              
     e( 95 - 95) =     18.55044  eV     1   --> A              
     e( 96 - 96) =     18.66274  eV     1   --> A              
     e( 97 - 97) =     18.80437  eV     1   --> A              
     e( 98 - 98) =     19.01623  eV     1   --> A              
     e( 99 - 99) =     19.04489  eV     1   --> A              
     e(100 -100) =     19.16757  eV     1   --> A              

 **************************************************************************

 **************************************************************************

                    xk=(   0.01429,   0.00825,   0.00000  )

     Band symmetry, C_1 (1)     point group:

     e(  1 -  1) =    -34.83902  eV     1   --> A              
     e(  2 -  2) =    -34.83859  eV     1   --> A              
     e(  3 -  3) =    -34.83611  eV     1   --> A              
     e(  4 -  4) =    -34.83569  eV     1   --> A              
     e(  5 -  5) =    -34.80520  eV     1   --> A              
     e(  6 -  6) =    -34.80223  eV     1   --> A              
     e(  7 -  7) =    -34.79851  eV     1   --> A              
     e(  8 -  8) =    -34.79566  eV     1   --> A              
     e(  9 -  9) =    -34.78887  eV     1   --> A              
     e( 10 - 10) =    -34.78598  eV     1   --> A              
     e( 11 - 11) =    -34.73272  eV     1   --> A              
     e( 12 - 12) =    -34.72850  eV     1   --> A              
     e( 13 - 13) =    -34.71458  eV     1   --> A              
     e( 14 - 14) =    -34.69070  eV     1   --> A              
     e( 15 - 15) =    -34.68910  eV     1   --> A              
     e( 16 - 16) =    -27.62113  eV     1   --> A              
     e( 17 - 17) =    -27.62006  eV     1   --> A              
     e( 18 - 18) =    -27.61876  eV     1   --> A              
     e( 19 - 19) =    -27.61768  eV     1   --> A              
     e( 20 - 20) =    -27.61374  eV     1   --> A              
     e( 21 - 21) =    -27.61137  eV     1   --> A              
     e( 22 - 22) =    -27.60957  eV     1   --> A              
     e( 23 - 23) =    -27.60721  eV     1   --> A              
     e( 24 - 24) =    -27.60680  eV     1   --> A              
     e( 25 - 25) =    -27.60444  eV     1   --> A              
     e( 26 - 26) =    -10.74105  eV     1   --> A              
     e( 27 - 27) =    -10.20084  eV     1   --> A              
     e( 28 - 28) =     -9.12885  eV     1   --> A              
     e( 29 - 29) =     -6.39827  eV     1   --> A              
     e( 30 - 30) =     -5.06346  eV     1   --> A              
     e( 31 - 31) =     -0.29528  eV     1   --> A              
     e( 32 - 32) =     -0.13915  eV     1   --> A              
     e( 33 - 33) =      0.06184  eV     1   --> A              
     e( 34 - 34) =      0.17105  eV     1   --> A              
     e( 35 - 35) =      0.31120  eV     1   --> A              
     e( 36 - 36) =      0.63287  eV     1   --> A              
     e( 37 - 37) =      0.69839  eV     1   --> A              
     e( 38 - 38) =      0.86877  eV     1   --> A              
     e( 39 - 39) =      1.09964  eV     1   --> A              
     e( 40 - 40) =      2.00878  eV     1   --> A              
     e( 41 - 41) =      2.55148  eV     1   --> A              
     e( 42 - 42) =      2.70580  eV     1   --> A              
     e( 43 - 43) =      3.45303  eV     1   --> A              
     e( 44 - 44) =      3.70026  eV     1   --> A              
     e( 45 - 45) =      3.78444  eV     1   --> A              
     e( 46 - 46) =      6.10839  eV     1   --> A              
     e( 47 - 47) =      6.28863  eV     1   --> A              
     e( 48 - 48) =      6.91534  eV     1   --> A              
     e( 49 - 49) =      7.19609  eV     1   --> A              
     e( 50 - 50) =      7.46355  eV     1   --> A              
     e( 51 - 51) =      7.75512  eV     1   --> A              
     e( 52 - 52) =      8.26418  eV     1   --> A              
     e( 53 - 53) =      8.44355  eV     1   --> A              
     e( 54 - 54) =      8.55615  eV     1   --> A              
     e( 55 - 55) =      8.58780  eV     1   --> A              
     e( 56 - 56) =      9.10029  eV     1   --> A              
     e( 57 - 57) =      9.40321  eV     1   --> A              
     e( 58 - 58) =      9.57975  eV     1   --> A              
     e( 59 - 59) =      9.91077  eV     1   --> A              
     e( 60 - 60) =      9.98278  eV     1   --> A              
     e( 61 - 61) =     10.42098  eV     1   --> A              
     e( 62 - 62) =     10.78678  eV     1   --> A              
     e( 63 - 63) =     11.20278  eV     1   --> A              
     e( 64 - 64) =     11.28217  eV     1   --> A              
     e( 65 - 65) =     11.46360  eV     1   --> A              
     e( 66 - 66) =     11.61605  eV     1   --> A              
     e( 67 - 67) =     12.71980  eV     1   --> A              
     e( 68 - 68) =     12.75177  eV     1   --> A              
     e( 69 - 69) =     13.54930  eV     1   --> A              
     e( 70 - 70) =     13.89382  eV     1   --> A              
     e( 71 - 71) =     14.03176  eV     1   --> A              
     e( 72 - 72) =     14.16354  eV     1   --> A              
     e( 73 - 73) =     14.34742  eV     1   --> A              
     e( 74 - 74) =     14.92919  eV     1   --> A              
     e( 75 - 75) =     15.32049  eV     1   --> A              
     e( 76 - 76) =     15.73119  eV     1   --> A              
     e( 77 - 77) =     15.91149  eV     1   --> A              
     e( 78 - 78) =     15.91354  eV     1   --> A              
     e( 79 - 79) =     16.08031  eV     1   --> A              
     e( 80 - 80) =     16.23178  eV     1   --> A              
     e( 81 - 81) =     16.47588  eV     1   --> A              
     e( 82 - 82) =     16.57051  eV     1   --> A              
     e( 83 - 83) =     16.65979  eV     1   --> A              
     e( 84 - 84) =     16.92248  eV     1   --> A              
     e( 85 - 85) =     16.99405  eV     1   --> A              
     e( 86 - 86) =     17.05750  eV     1   --> A              
     e( 87 - 87) =     17.20337  eV     1   --> A              
     e( 88 - 88) =     17.25181  eV     1   --> A              
     e( 89 - 89) =     17.35726  eV     1   --> A              
     e( 90 - 90) =     17.46119  eV     1   --> A              
     e( 91 - 91) =     17.52354  eV     1   --> A              
     e( 92 - 92) =     17.72654  eV     1   --> A              
     e( 93 - 93) =     17.74454  eV     1   --> A              
     e( 94 - 94) =     18.01382  eV     1   --> A              
     e( 95 - 95) =     18.44844  eV     1   --> A              
     e( 96 - 96) =     18.57581  eV     1   --> A              
     e( 97 - 97) =     18.87019  eV     1   --> A              
     e( 98 - 98) =     19.01477  eV     1   --> A              
     e( 99 - 99) =     19.09254  eV     1   --> A              
     e(100 -100) =     19.13671  eV     1   --> A              

 **************************************************************************

 **************************************************************************

                    xk=(   0.02143,   0.01237,   0.00000  )

     Band symmetry, C_1 (1)     point group:

     e(  1 -  1) =    -34.83902  eV     1   --> A              
     e(  2 -  2) =    -34.83859  eV     1   --> A              
     e(  3 -  3) =    -34.83611  eV     1   --> A              
     e(  4 -  4) =    -34.83569  eV     1   --> A              
     e(  5 -  5) =    -34.80520  eV     1   --> A              
     e(  6 -  6) =    -34.80223  eV     1   --> A              
     e(  7 -  7) =    -34.79851  eV     1   --> A              
     e(  8 -  8) =    -34.79566  eV     1   --> A              
     e(  9 -  9) =    -34.78887  eV     1   --> A              
     e( 10 - 10) =    -34.78598  eV     1   --> A              
     e( 11 - 11) =    -34.73271  eV     1   --> A              
     e( 12 - 12) =    -34.72850  eV     1   --> A              
     e( 13 - 13) =    -34.71458  eV     1   --> A              
     e( 14 - 14) =    -34.69069  eV     1   --> A              
     e( 15 - 15) =    -34.68910  eV     1   --> A              
     e( 16 - 16) =    -27.62113  eV     1   --> A              
     e( 17 - 17) =    -27.62006  eV     1   --> A              
     e( 18 - 18) =    -27.61876  eV     1   --> A              
     e( 19 - 19) =    -27.61768  eV     1   --> A              
     e( 20 - 20) =    -27.61374  eV     1   --> A              
     e( 21 - 21) =    -27.61137  eV     1   --> A              
     e( 22 - 22) =    -27.60957  eV     1   --> A              
     e( 23 - 23) =    -27.60722  eV     1   --> A              
     e( 24 - 24) =    -27.60680  eV     1   --> A              
     e( 25 - 25) =    -27.60444  eV     1   --> A              
     e( 26 - 26) =    -10.73900  eV     1   --> A              
     e( 27 - 27) =    -10.19898  eV     1   --> A              
     e( 28 - 28) =     -9.12777  eV     1   --> A              
     e( 29 - 29) =     -6.39883  eV     1   --> A              
     e( 30 - 30) =     -5.06768  eV     1   --> A              
     e( 31 - 31) =     -0.30369  eV     1   --> A              
     e( 32 - 32) =     -0.16925  eV     1   --> A              
     e( 33 - 33) =      0.04602  eV     1   --> A              
     e( 34 - 34) =      0.16994  eV     1   --> A              
     e( 35 - 35) =      0.30787  eV     1   --> A              
     e( 36 - 36) =      0.61723  eV     1   --> A              
     e( 37 - 37) =      0.71545  eV     1   --> A              
     e( 38 - 38) =      0.87442  eV     1   --> A              
     e( 39 - 39) =      1.11462  eV     1   --> A              
     e( 40 - 40) =      2.03823  eV     1   --> A              
     e( 41 - 41) =      2.53367  eV     1   --> A              
     e( 42 - 42) =      2.70678  eV     1   --> A              
     e( 43 - 43) =      3.47472  eV     1   --> A              
     e( 44 - 44) =      3.70093  eV     1   --> A              
     e( 45 - 45) =      3.78472  eV     1   --> A              
     e( 46 - 46) =      6.11210  eV     1   --> A              
     e( 47 - 47) =      6.28898  eV     1   --> A              
     e( 48 - 48) =      6.91579  eV     1   --> A              
     e( 49 - 49) =      7.18594  eV     1   --> A              
     e( 50 - 50) =      7.46289  eV     1   --> A              
     e( 51 - 51) =      7.75594  eV     1   --> A              
     e( 52 - 52) =      8.27623  eV     1   --> A              
     e( 53 - 53) =      8.43208  eV     1   --> A              
     e( 54 - 54) =      8.54964  eV     1   --> A              
     e( 55 - 55) =      8.59743  eV     1   --> A              
     e( 56 - 56) =      9.09334  eV     1   --> A              
     e( 57 - 57) =      9.43270  eV     1   --> A              
     e( 58 - 58) =      9.58986  eV     1   --> A              
     e( 59 - 59) =      9.89976  eV     1   --> A              
     e( 60 - 60) =      9.99218  eV     1   --> A              
     e( 61 - 61) =     10.42880  eV     1   --> A              
     e( 62 - 62) =     10.79176  eV     1   --> A              
     e( 63 - 63) =     11.15755  eV     1   --> A              
     e( 64 - 64) =     11.25793  eV     1   --> A              
     e( 65 - 65) =     11.52476  eV     1   --> A              
     e( 66 - 66) =     11.64523  eV     1   --> A              
     e( 67 - 67) =     12.71021  eV     1   --> A              
     e( 68 - 68) =     12.75950  eV     1   --> A              
     e( 69 - 69) =     13.51296  eV     1   --> A              
     e( 70 - 70) =     13.89555  eV     1   --> A              
     e( 71 - 71) =     14.02027  eV     1   --> A              
     e( 72 - 72) =     14.19382  eV     1   --> A              
     e( 73 - 73) =     14.36609  eV     1   --> A              
     e( 74 - 74) =     14.92122  eV     1   --> A              
     e( 75 - 75) =     15.26949  eV     1   --> A              
     e( 76 - 76) =     15.70810  eV     1   --> A              
     e( 77 - 77) =     15.88274  eV     1   --> A              
     e( 78 - 78) =     15.97479  eV     1   --> A              
     e( 79 - 79) =     16.09544  eV     1   --> A              
     e( 80 - 80) =     16.23939  eV     1   --> A              
     e( 81 - 81) =     16.40398  eV     1   --> A              
     e( 82 - 82) =     16.54398  eV     1   --> A              
     e( 83 - 83) =     16.57514  eV     1   --> A              
     e( 84 - 84) =     16.95423  eV     1   --> A              
     e( 85 - 85) =     16.98119  eV     1   --> A              
     e( 86 - 86) =     17.10282  eV     1   --> A              
     e( 87 - 87) =     17.22031  eV     1   --> A              
     e( 88 - 88) =     17.25335  eV     1   --> A              
     e( 89 - 89) =     17.41259  eV     1   --> A              
     e( 90 - 90) =     17.48137  eV     1   --> A              
     e( 91 - 91) =     17.53292  eV     1   --> A              
     e( 92 - 92) =     17.74982  eV     1   --> A              
     e( 93 - 93) =     17.78981  eV     1   --> A              
     e( 94 - 94) =     18.04766  eV     1   --> A              
     e( 95 - 95) =     18.35572  eV     1   --> A              
     e( 96 - 96) =     18.46819  eV     1   --> A              
     e( 97 - 97) =     18.86432  eV     1   --> A              
     e( 98 - 98) =     19.05483  eV     1   --> A              
     e( 99 - 99) =     19.09102  eV     1   --> A              
     e(100 -100) =     19.16652  eV     1   --> A              

 **************************************************************************

 **************************************************************************

                    xk=(   0.02857,   0.01650,   0.00000  )

     Band symmetry, C_1 (1)     point group:

     e(  1 -  1) =    -34.83902  eV     1   --> A              
     e(  2 -  2) =    -34.83859  eV     1   --> A              
     e(  3 -  3) =    -34.83611  eV     1   --> A              
     e(  4 -  4) =    -34.83568  eV     1   --> A              
     e(  5 -  5) =    -34.80520  eV     1   --> A              
     e(  6 -  6) =    -34.80223  eV     1   --> A              
     e(  7 -  7) =    -34.79851  eV     1   --> A              
     e(  8 -  8) =    -34.79566  eV     1   --> A              
     e(  9 -  9) =    -34.78887  eV     1   --> A              
     e( 10 - 10) =    -34.78598  eV     1   --> A              
     e( 11 - 11) =    -34.73271  eV     1   --> A              
     e( 12 - 12) =    -34.72850  eV     1   --> A              
     e( 13 - 13) =    -34.71458  eV     1   --> A              
     e( 14 - 14) =    -34.69069  eV     1   --> A              
     e( 15 - 15) =    -34.68910  eV     1   --> A              
     e( 16 - 16) =    -27.62112  eV     1   --> A              
     e( 17 - 17) =    -27.62006  eV     1   --> A              
     e( 18 - 18) =    -27.61875  eV     1   --> A              
     e( 19 - 19) =    -27.61767  eV     1   --> A              
     e( 20 - 20) =    -27.61373  eV     1   --> A              
     e( 21 - 21) =    -27.61137  eV     1   --> A              
     e( 22 - 22) =    -27.60958  eV     1   --> A              
     e( 23 - 23) =    -27.60722  eV     1   --> A              
     e( 24 - 24) =    -27.60680  eV     1   --> A              
     e( 25 - 25) =    -27.60444  eV     1   --> A              
     e( 26 - 26) =    -10.73611  eV     1   --> A              
     e( 27 - 27) =    -10.19636  eV     1   --> A              
     e( 28 - 28) =     -9.12625  eV     1   --> A              
     e( 29 - 29) =     -6.39961  eV     1   --> A              
     e( 30 - 30) =     -5.07356  eV     1   --> A              
     e( 31 - 31) =     -0.31557  eV     1   --> A              
     e( 32 - 32) =     -0.20964  eV     1   --> A              
     e( 33 - 33) =      0.02983  eV     1   --> A              
     e( 34 - 34) =      0.16372  eV     1   --> A              
     e( 35 - 35) =      0.30426  eV     1   --> A              
     e( 36 - 36) =      0.59329  eV     1   --> A              
     e( 37 - 37) =      0.73877  eV     1   --> A              
     e( 38 - 38) =      0.88172  eV     1   --> A              
     e( 39 - 39) =      1.13655  eV     1   --> A              
     e( 40 - 40) =      2.07733  eV     1   --> A              
     e( 41 - 41) =      2.50963  eV     1   --> A              
     e( 42 - 42) =      2.70970  eV     1   --> A              
     e( 43 - 43) =      3.50238  eV     1   --> A              
     e( 44 - 44) =      3.70112  eV     1   --> A              
     e( 45 - 45) =      3.78654  eV     1   --> A              
     e( 46 - 46) =      6.11726  eV     1   --> A              
     e( 47 - 47) =      6.28944  eV     1   --> A              
     e( 48 - 48) =      6.91613  eV     1   --> A              
     e( 49 - 49) =      7.17222  eV     1   --> A              
     e( 50 - 50) =      7.46220  eV     1   --> A              
     e( 51 - 51) =      7.75773  eV     1   --> A              
     e( 52 - 52) =      8.29117  eV     1   --> A              
     e( 53 - 53) =      8.41765  eV     1   --> A              
     e( 54 - 54) =      8.53796  eV     1   --> A              
     e( 55 - 55) =      8.61500  eV     1   --> A              
     e( 56 - 56) =      9.08542  eV     1   --> A              
     e( 57 - 57) =      9.46914  eV     1   --> A              
     e( 58 - 58) =      9.60331  eV     1   --> A              
     e( 59 - 59) =      9.88614  eV     1   --> A              
     e( 60 - 60) =     10.00540  eV     1   --> A              
     e( 61 - 61) =     10.44037  eV     1   --> A              
     e( 62 - 62) =     10.79565  eV     1   --> A              
     e( 63 - 63) =     11.11557  eV     1   --> A              
     e( 64 - 64) =     11.23234  eV     1   --> A              
     e( 65 - 65) =     11.58739  eV     1   --> A              
     e( 66 - 66) =     11.68115  eV     1   --> A              
     e( 67 - 67) =     12.69929  eV     1   --> A              
     e( 68 - 68) =     12.76784  eV     1   --> A              
     e( 69 - 69) =     13.47198  eV     1   --> A              
     e( 70 - 70) =     13.87813  eV     1   --> A              
     e( 71 - 71) =     14.02847  eV     1   --> A              
     e( 72 - 72) =     14.22184  eV     1   --> A              
     e( 73 - 73) =     14.39304  eV     1   --> A              
     e( 74 - 74) =     14.89284  eV     1   --> A              
     e( 75 - 75) =     15.23952  eV     1   --> A              
     e( 76 - 76) =     15.67363  eV     1   --> A              
     e( 77 - 77) =     15.84562  eV     1   --> A              
     e( 78 - 78) =     16.02105  eV     1   --> A              
     e( 79 - 79) =     16.10081  eV     1   --> A              
     e( 80 - 80) =     16.25753  eV     1   --> A              
     e( 81 - 81) =     16.35215  eV     1   --> A              
     e( 82 - 82) =     16.44402  eV     1   --> A              
     e( 83 - 83) =     16.57845  eV     1   --> A              
     e( 84 - 84) =     16.90918  eV     1   --> A              
     e( 85 - 85) =     16.98468  eV     1   --> A              
     e( 86 - 86) =     17.18532  eV     1   --> A              
     e( 87 - 87) =     17.20321  eV     1   --> A              
     e( 88 - 88) =     17.25035  eV     1   --> A              
     e( 89 - 89) =     17.47011  eV     1   --> A              
     e( 90 - 90) =     17.52617  eV     1   --> A              
     e( 91 - 91) =     17.56688  eV     1   --> A              
     e( 92 - 92) =     17.79032  eV     1   --> A              
     e( 93 - 93) =     17.84026  eV     1   --> A              
     e( 94 - 94) =     18.06875  eV     1   --> A              
     e( 95 - 95) =     18.29251  eV     1   --> A              
     e( 96 - 96) =     18.35611  eV     1   --> A              
     e( 97 - 97) =     18.81585  eV     1   --> A              
     e( 98 - 98) =     19.04271  eV     1   --> A              
     e( 99 - 99) =     19.10510  eV     1   --> A              
     e(100 -100) =     19.22627  eV     1   --> A              

 **************************************************************************

 **************************************************************************

                    xk=(   0.03571,   0.02062,   0.00000  )

     Band symmetry, C_1 (1)     point group:

     e(  1 -  1) =    -34.83901  eV     1   --> A              
     e(  2 -  2) =    -34.83859  eV     1   --> A              
     e(  3 -  3) =    -34.83611  eV     1   --> A              
     e(  4 -  4) =    -34.83568  eV     1   --> A              
     e(  5 -  5) =    -34.80520  eV     1   --> A              
     e(  6 -  6) =    -34.80223  eV     1   --> A              
     e(  7 -  7) =    -34.79851  eV     1   --> A              
     e(  8 -  8) =    -34.79566  eV     1   --> A              
     e(  9 -  9) =    -34.78887  eV     1   --> A              
     e( 10 - 10) =    -34.78598  eV     1   --> A              
     e( 11 - 11) =    -34.73271  eV     1   --> A              
     e( 12 - 12) =    -34.72850  eV     1   --> A              
     e( 13 - 13) =    -34.71458  eV     1   --> A              
     e( 14 - 14) =    -34.69069  eV     1   --> A              
     e( 15 - 15) =    -34.68909  eV     1   --> A              
     e( 16 - 16) =    -27.62111  eV     1   --> A              
     e( 17 - 17) =    -27.62006  eV     1   --> A              
     e( 18 - 18) =    -27.61874  eV     1   --> A              
     e( 19 - 19) =    -27.61767  eV     1   --> A              
     e( 20 - 20) =    -27.61373  eV     1   --> A              
     e( 21 - 21) =    -27.61137  eV     1   --> A              
     e( 22 - 22) =    -27.60959  eV     1   --> A              
     e( 23 - 23) =    -27.60723  eV     1   --> A              
     e( 24 - 24) =    -27.60680  eV     1   --> A              
     e( 25 - 25) =    -27.60444  eV     1   --> A              
     e( 26 - 26) =    -10.73241  eV     1   --> A              
     e( 27 - 27) =    -10.19301  eV     1   --> A              
     e( 28 - 28) =     -9.12432  eV     1   --> A              
     e( 29 - 29) =     -6.40063  eV     1   --> A              
     e( 30 - 30) =     -5.08111  eV     1   --> A              
     e( 31 - 31) =     -0.33121  eV     1   --> A              
     e( 32 - 32) =     -0.25804  eV     1   --> A              
     e( 33 - 33) =      0.01408  eV     1   --> A              
     e( 34 - 34) =      0.15239  eV     1   --> A              
     e( 35 - 35) =      0.30042  eV     1   --> A              
     e( 36 - 36) =      0.56143  eV     1   --> A              
     e( 37 - 37) =      0.76714  eV     1   --> A              
     e( 38 - 38) =      0.89026  eV     1   --> A              
     e( 39 - 39) =      1.16495  eV     1   --> A              
     e( 40 - 40) =      2.12449  eV     1   --> A              
     e( 41 - 41) =      2.48080  eV     1   --> A              
     e( 42 - 42) =      2.71497  eV     1   --> A              
     e( 43 - 43) =      3.53376  eV     1   --> A              
     e( 44 - 44) =      3.70037  eV     1   --> A              
     e( 45 - 45) =      3.79120  eV     1   --> A              
     e( 46 - 46) =      6.12384  eV     1   --> A              
     e( 47 - 47) =      6.28997  eV     1   --> A              
     e( 48 - 48) =      6.91601  eV     1   --> A              
     e( 49 - 49) =      7.15556  eV     1   --> A              
     e( 50 - 50) =      7.46163  eV     1   --> A              
     e( 51 - 51) =      7.76090  eV     1   --> A              
     e( 52 - 52) =      8.30638  eV     1   --> A              
     e( 53 - 53) =      8.40187  eV     1   --> A              
     e( 54 - 54) =      8.52619  eV     1   --> A              
     e( 55 - 55) =      8.63709  eV     1   --> A              
     e( 56 - 56) =      9.07737  eV     1   --> A              
     e( 57 - 57) =      9.50902  eV     1   --> A              
     e( 58 - 58) =      9.61946  eV     1   --> A              
     e( 59 - 59) =      9.87185  eV     1   --> A              
     e( 60 - 60) =     10.02263  eV     1   --> A              
     e( 61 - 61) =     10.45604  eV     1   --> A              
     e( 62 - 62) =     10.79545  eV     1   --> A              
     e( 63 - 63) =     11.08091  eV     1   --> A              
     e( 64 - 64) =     11.20642  eV     1   --> A              
     e( 65 - 65) =     11.65011  eV     1   --> A              
     e( 66 - 66) =     11.72199  eV     1   --> A              
     e( 67 - 67) =     12.68685  eV     1   --> A              
     e( 68 - 68) =     12.77705  eV     1   --> A              
     e( 69 - 69) =     13.42973  eV     1   --> A              
     e( 70 - 70) =     13.84893  eV     1   --> A              
     e( 71 - 71) =     14.04479  eV     1   --> A              
     e( 72 - 72) =     14.25090  eV     1   --> A              
     e( 73 - 73) =     14.42543  eV     1   --> A              
     e( 74 - 74) =     14.83962  eV     1   --> A              
     e( 75 - 75) =     15.23976  eV     1   --> A              
     e( 76 - 76) =     15.63297  eV     1   --> A              
     e( 77 - 77) =     15.79807  eV     1   --> A              
     e( 78 - 78) =     15.99593  eV     1   --> A              
     e( 79 - 79) =     16.14026  eV     1   --> A              
     e( 80 - 80) =     16.25513  eV     1   --> A              
     e( 81 - 81) =     16.33319  eV     1   --> A              
     e( 82 - 82) =     16.37152  eV     1   --> A              
     e( 83 - 83) =     16.59613  eV     1   --> A              
     e( 84 - 84) =     16.86369  eV     1   --> A              
     e( 85 - 85) =     16.96691  eV     1   --> A              
     e( 86 - 86) =     17.16433  eV     1   --> A              
     e( 87 - 87) =     17.21050  eV     1   --> A              
     e( 88 - 88) =     17.32060  eV     1   --> A              
     e( 89 - 89) =     17.47315  eV     1   --> A              
     e( 90 - 90) =     17.58724  eV     1   --> A              
     e( 91 - 91) =     17.65871  eV     1   --> A              
     e( 92 - 92) =     17.83827  eV     1   --> A              
     e( 93 - 93) =     17.88294  eV     1   --> A              
     e( 94 - 94) =     18.06926  eV     1   --> A              
     e( 95 - 95) =     18.23382  eV     1   --> A              
     e( 96 - 96) =     18.29331  eV     1   --> A              
     e( 97 - 97) =     18.75958  eV     1   --> A              
     e( 98 - 98) =     18.99451  eV     1   --> A              
     e( 99 - 99) =     19.10720  eV     1   --> A              
     e(100 -100) =     19.24297  eV     1   --> A              

 **************************************************************************

 **************************************************************************

                    xk=(   0.04286,   0.02474,   0.00000  )

     Band symmetry, C_1 (1)     point group:

     e(  1 -  1) =    -34.83901  eV     1   --> A              
     e(  2 -  2) =    -34.83858  eV     1   --> A              
     e(  3 -  3) =    -34.83610  eV     1   --> A              
     e(  4 -  4) =    -34.83568  eV     1   --> A              
     e(  5 -  5) =    -34.80520  eV     1   --> A              
     e(  6 -  6) =    -34.80223  eV     1   --> A              
     e(  7 -  7) =    -34.79851  eV     1   --> A              
     e(  8 -  8) =    -34.79566  eV     1   --> A              
     e(  9 -  9) =    -34.78887  eV     1   --> A              
     e( 10 - 10) =    -34.78597  eV     1   --> A              
     e( 11 - 11) =    -34.73271  eV     1   --> A              
     e( 12 - 12) =    -34.72850  eV     1   --> A              
     e( 13 - 13) =    -34.71458  eV     1   --> A              
     e( 14 - 14) =    -34.69068  eV     1   --> A              
     e( 15 - 15) =    -34.68909  eV     1   --> A              
     e( 16 - 16) =    -27.62110  eV     1   --> A              
     e( 17 - 17) =    -27.62006  eV     1   --> A              
     e( 18 - 18) =    -27.61873  eV     1   --> A              
     e( 19 - 19) =    -27.61767  eV     1   --> A              
     e( 20 - 20) =    -27.61373  eV     1   --> A              
     e( 21 - 21) =    -27.61136  eV     1   --> A              
     e( 22 - 22) =    -27.60959  eV     1   --> A              
     e( 23 - 23) =    -27.60724  eV     1   --> A              
     e( 24 - 24) =    -27.60680  eV     1   --> A              
     e( 25 - 25) =    -27.60444  eV     1   --> A              
     e( 26 - 26) =    -10.72789  eV     1   --> A              
     e( 27 - 27) =    -10.18891  eV     1   --> A              
     e( 28 - 28) =     -9.12195  eV     1   --> A              
     e( 29 - 29) =     -6.40190  eV     1   --> A              
     e( 30 - 30) =     -5.09034  eV     1   --> A              
     e( 31 - 31) =     -0.35240  eV     1   --> A              
     e( 32 - 32) =     -0.31054  eV     1   --> A              
     e( 33 - 33) =     -0.00133  eV     1   --> A              
     e( 34 - 34) =      0.13686  eV     1   --> A              
     e( 35 - 35) =      0.29606  eV     1   --> A              
     e( 36 - 36) =      0.52278  eV     1   --> A              
     e( 37 - 37) =      0.79932  eV     1   --> A              
     e( 38 - 38) =      0.89981  eV     1   --> A              
     e( 39 - 39) =      1.19844  eV     1   --> A              
     e( 40 - 40) =      2.17816  eV     1   --> A              
     e( 41 - 41) =      2.44900  eV     1   --> A              
     e( 42 - 42) =      2.72263  eV     1   --> A              
     e( 43 - 43) =      3.56607  eV     1   --> A              
     e( 44 - 44) =      3.69889  eV     1   --> A              
     e( 45 - 45) =      3.80000  eV     1   --> A              
     e( 46 - 46) =      6.13181  eV     1   --> A              
     e( 47 - 47) =      6.29052  eV     1   --> A              
     e( 48 - 48) =      6.91488  eV     1   --> A              
     e( 49 - 49) =      7.13689  eV     1   --> A              
     e( 50 - 50) =      7.46132  eV     1   --> A              
     e( 51 - 51) =      7.76576  eV     1   --> A              
     e( 52 - 52) =      8.31575  eV     1   --> A              
     e( 53 - 53) =      8.39029  eV     1   --> A              
     e( 54 - 54) =      8.51679  eV     1   --> A              
     e( 55 - 55) =      8.66230  eV     1   --> A              
     e( 56 - 56) =      9.06977  eV     1   --> A              
     e( 57 - 57) =      9.54811  eV     1   --> A              
     e( 58 - 58) =      9.63775  eV     1   --> A              
     e( 59 - 59) =      9.85992  eV     1   --> A              
     e( 60 - 60) =     10.04405  eV     1   --> A              
     e( 61 - 61) =     10.47606  eV     1   --> A              
     e( 62 - 62) =     10.78804  eV     1   --> A              
     e( 63 - 63) =     11.05658  eV     1   --> A              
     e( 64 - 64) =     11.18143  eV     1   --> A              
     e( 65 - 65) =     11.71150  eV     1   --> A              
     e( 66 - 66) =     11.76698  eV     1   --> A              
     e( 67 - 67) =     12.67284  eV     1   --> A              
     e( 68 - 68) =     12.78734  eV     1   --> A              
     e( 69 - 69) =     13.38837  eV     1   --> A              
     e( 70 - 70) =     13.81553  eV     1   --> A              
     e( 71 - 71) =     14.05968  eV     1   --> A              
     e( 72 - 72) =     14.28358  eV     1   --> A              
     e( 73 - 73) =     14.45794  eV     1   --> A              
     e( 74 - 74) =     14.77187  eV     1   --> A              
     e( 75 - 75) =     15.26376  eV     1   --> A              
     e( 76 - 76) =     15.58742  eV     1   --> A              
     e( 77 - 77) =     15.73848  eV     1   --> A              
     e( 78 - 78) =     15.93946  eV     1   --> A              
     e( 79 - 79) =     16.15730  eV     1   --> A              
     e( 80 - 80) =     16.20522  eV     1   --> A              
     e( 81 - 81) =     16.34567  eV     1   --> A              
     e( 82 - 82) =     16.37307  eV     1   --> A              
     e( 83 - 83) =     16.62406  eV     1   --> A              
     e( 84 - 84) =     16.82480  eV     1   --> A              
     e( 85 - 85) =     16.93633  eV     1   --> A              
     e( 86 - 86) =     17.12051  eV     1   --> A              
     e( 87 - 87) =     17.20208  eV     1   --> A              
     e( 88 - 88) =     17.41858  eV     1   --> A              
     e( 89 - 89) =     17.46954  eV     1   --> A              
     e( 90 - 90) =     17.65108  eV     1   --> A              
     e( 91 - 91) =     17.75519  eV     1   --> A              
     e( 92 - 92) =     17.84817  eV     1   --> A              
     e( 93 - 93) =     17.94456  eV     1   --> A              
     e( 94 - 94) =     18.08725  eV     1   --> A              
     e( 95 - 95) =     18.12470  eV     1   --> A              
     e( 96 - 96) =     18.32654  eV     1   --> A              
     e( 97 - 97) =     18.70225  eV     1   --> A              
     e( 98 - 98) =     18.94703  eV     1   --> A              
     e( 99 - 99) =     19.07903  eV     1   --> A              
     e(100 -100) =     19.20726  eV     1   --> A              

 **************************************************************************

 **************************************************************************

                    xk=(   0.05000,   0.02887,   0.00000  )

     Band symmetry, C_1 (1)     point group:

     e(  1 -  1) =    -34.83901  eV     1   --> A              
     e(  2 -  2) =    -34.83858  eV     1   --> A              
     e(  3 -  3) =    -34.83610  eV     1   --> A              
     e(  4 -  4) =    -34.83567  eV     1   --> A              
     e(  5 -  5) =    -34.80520  eV     1   --> A              
     e(  6 -  6) =    -34.80223  eV     1   --> A              
     e(  7 -  7) =    -34.79851  eV     1   --> A              
     e(  8 -  8) =    -34.79567  eV     1   --> A              
     e(  9 -  9) =    -34.78886  eV     1   --> A              
     e( 10 - 10) =    -34.78597  eV     1   --> A              
     e( 11 - 11) =    -34.73270  eV     1   --> A              
     e( 12 - 12) =    -34.72850  eV     1   --> A              
     e( 13 - 13) =    -34.71458  eV     1   --> A              
     e( 14 - 14) =    -34.69068  eV     1   --> A              
     e( 15 - 15) =    -34.68909  eV     1   --> A              
     e( 16 - 16) =    -27.62109  eV     1   --> A              
     e( 17 - 17) =    -27.62006  eV     1   --> A              
     e( 18 - 18) =    -27.61872  eV     1   --> A              
     e( 19 - 19) =    -27.61767  eV     1   --> A              
     e( 20 - 20) =    -27.61372  eV     1   --> A              
     e( 21 - 21) =    -27.61136  eV     1   --> A              
     e( 22 - 22) =    -27.60960  eV     1   --> A              
     e( 23 - 23) =    -27.60725  eV     1   --> A              
     e( 24 - 24) =    -27.60680  eV     1   --> A              
     e( 25 - 25) =    -27.60444  eV     1   --> A              
     e( 26 - 26) =    -10.72255  eV     1   --> A              
     e( 27 - 27) =    -10.18408  eV     1   --> A              
     e( 28 - 28) =     -9.11917  eV     1   --> A              
     e( 29 - 29) =     -6.40342  eV     1   --> A              
     e( 30 - 30) =     -5.10121  eV     1   --> A              
     e( 31 - 31) =     -0.38993  eV     1   --> A              
     e( 32 - 32) =     -0.35443  eV     1   --> A              
     e( 33 - 33) =     -0.01683  eV     1   --> A              
     e( 34 - 34) =      0.11827  eV     1   --> A              
     e( 35 - 35) =      0.29081  eV     1   --> A              
     e( 36 - 36) =      0.47886  eV     1   --> A              
     e( 37 - 37) =      0.83411  eV     1   --> A              
     e( 38 - 38) =      0.91042  eV     1   --> A              
     e( 39 - 39) =      1.23505  eV     1   --> A              
     e( 40 - 40) =      2.23688  eV     1   --> A              
     e( 41 - 41) =      2.41619  eV     1   --> A              
     e( 42 - 42) =      2.73256  eV     1   --> A              
     e( 43 - 43) =      3.59546  eV     1   --> A              
     e( 44 - 44) =      3.69851  eV     1   --> A              
     e( 45 - 45) =      3.81401  eV     1   --> A              
     e( 46 - 46) =      6.14112  eV     1   --> A              
     e( 47 - 47) =      6.29104  eV     1   --> A              
     e( 48 - 48) =      6.91193  eV     1   --> A              
     e( 49 - 49) =      7.11752  eV     1   --> A              
     e( 50 - 50) =      7.46136  eV     1   --> A              
     e( 51 - 51) =      7.77251  eV     1   --> A              
     e( 52 - 52) =      8.30949  eV     1   --> A              
     e( 53 - 53) =      8.39279  eV     1   --> A              
     e( 54 - 54) =      8.51046  eV     1   --> A              
     e( 55 - 55) =      8.69000  eV     1   --> A              
     e( 56 - 56) =      9.06310  eV     1   --> A              
     e( 57 - 57) =      9.58051  eV     1   --> A              
     e( 58 - 58) =      9.65840  eV     1   --> A              
     e( 59 - 59) =      9.85476  eV     1   --> A              
     e( 60 - 60) =     10.06976  eV     1   --> A              
     e( 61 - 61) =     10.50057  eV     1   --> A              
     e( 62 - 62) =     10.77176  eV     1   --> A              
     e( 63 - 63) =     11.04378  eV     1   --> A              
     e( 64 - 64) =     11.15852  eV     1   --> A              
     e( 65 - 65) =     11.76976  eV     1   --> A              
     e( 66 - 66) =     11.81625  eV     1   --> A              
     e( 67 - 67) =     12.65738  eV     1   --> A              
     e( 68 - 68) =     12.79886  eV     1   --> A              
     e( 69 - 69) =     13.34937  eV     1   --> A              
     e( 70 - 70) =     13.78116  eV     1   --> A              
     e( 71 - 71) =     14.07013  eV     1   --> A              
     e( 72 - 72) =     14.31935  eV     1   --> A              
     e( 73 - 73) =     14.48055  eV     1   --> A              
     e( 74 - 74) =     14.70844  eV     1   --> A              
     e( 75 - 75) =     15.30039  eV     1   --> A              
     e( 76 - 76) =     15.53424  eV     1   --> A              
     e( 77 - 77) =     15.67212  eV     1   --> A              
     e( 78 - 78) =     15.87843  eV     1   --> A              
     e( 79 - 79) =     16.07503  eV     1   --> A              
     e( 80 - 80) =     16.21914  eV     1   --> A              
     e( 81 - 81) =     16.36046  eV     1   --> A              
     e( 82 - 82) =     16.41280  eV     1   --> A              
     e( 83 - 83) =     16.65471  eV     1   --> A              
     e( 84 - 84) =     16.80223  eV     1   --> A              
     e( 85 - 85) =     16.89994  eV     1   --> A              
     e( 86 - 86) =     17.07601  eV     1   --> A              
     e( 87 - 87) =     17.18245  eV     1   --> A              
     e( 88 - 88) =     17.47135  eV     1   --> A              
     e( 89 - 89) =     17.51365  eV     1   --> A              
     e( 90 - 90) =     17.68038  eV     1   --> A              
     e( 91 - 91) =     17.81166  eV     1   --> A              
     e( 92 - 92) =     17.88508  eV     1   --> A              
     e( 93 - 93) =     17.99923  eV     1   --> A              
     e( 94 - 94) =     18.04848  eV     1   --> A              
     e( 95 - 95) =     18.14369  eV     1   --> A              
     e( 96 - 96) =     18.37896  eV     1   --> A              
     e( 97 - 97) =     18.64579  eV     1   --> A              
     e( 98 - 98) =     18.90195  eV     1   --> A              
     e( 99 - 99) =     19.03890  eV     1   --> A              
     e(100 -100) =     19.16049  eV     1   --> A              

 **************************************************************************

 **************************************************************************

                    xk=(   0.05714,   0.03299,   0.00000  )

     Band symmetry, C_1 (1)     point group:

     e(  1 -  1) =    -34.83900  eV     1   --> A              
     e(  2 -  2) =    -34.83857  eV     1   --> A              
     e(  3 -  3) =    -34.83609  eV     1   --> A              
     e(  4 -  4) =    -34.83567  eV     1   --> A              
     e(  5 -  5) =    -34.80520  eV     1   --> A              
     e(  6 -  6) =    -34.80223  eV     1   --> A              
     e(  7 -  7) =    -34.79851  eV     1   --> A              
     e(  8 -  8) =    -34.79567  eV     1   --> A              
     e(  9 -  9) =    -34.78886  eV     1   --> A              
     e( 10 - 10) =    -34.78597  eV     1   --> A              
     e( 11 - 11) =    -34.73270  eV     1   --> A              
     e( 12 - 12) =    -34.72851  eV     1   --> A              
     e( 13 - 13) =    -34.71458  eV     1   --> A              
     e( 14 - 14) =    -34.69067  eV     1   --> A              
     e( 15 - 15) =    -34.68909  eV     1   --> A              
     e( 16 - 16) =    -27.62108  eV     1   --> A              
     e( 17 - 17) =    -27.62005  eV     1   --> A              
     e( 18 - 18) =    -27.61871  eV     1   --> A              
     e( 19 - 19) =    -27.61767  eV     1   --> A              
     e( 20 - 20) =    -27.61372  eV     1   --> A              
     e( 21 - 21) =    -27.61135  eV     1   --> A              
     e( 22 - 22) =    -27.60962  eV     1   --> A              
     e( 23 - 23) =    -27.60726  eV     1   --> A              
     e( 24 - 24) =    -27.60680  eV     1   --> A              
     e( 25 - 25) =    -27.60444  eV     1   --> A              
     e( 26 - 26) =    -10.71639  eV     1   --> A              
     e( 27 - 27) =    -10.17851  eV     1   --> A              
     e( 28 - 28) =     -9.11598  eV     1   --> A              
     e( 29 - 29) =     -6.40521  eV     1   --> A              
     e( 30 - 30) =     -5.11375  eV     1   --> A              
     e( 31 - 31) =     -0.44891  eV     1   --> A              
     e( 32 - 32) =     -0.38297  eV     1   --> A              
     e( 33 - 33) =     -0.03293  eV     1   --> A              
     e( 34 - 34) =      0.09746  eV     1   --> A              
     e( 35 - 35) =      0.28440  eV     1   --> A              
     e( 36 - 36) =      0.43136  eV     1   --> A              
     e( 37 - 37) =      0.86988  eV     1   --> A              
     e( 38 - 38) =      0.92272  eV     1   --> A              
     e( 39 - 39) =      1.27250  eV     1   --> A              
     e( 40 - 40) =      2.29938  eV     1   --> A              
     e( 41 - 41) =      2.38432  eV     1   --> A              
     e( 42 - 42) =      2.74462  eV     1   --> A              
     e( 43 - 43) =      3.61619  eV     1   --> A              
     e( 44 - 44) =      3.70352  eV     1   --> A              
     e( 45 - 45) =      3.83393  eV     1   --> A              
     e( 46 - 46) =      6.15172  eV     1   --> A              
     e( 47 - 47) =      6.29143  eV     1   --> A              
     e( 48 - 48) =      6.90606  eV     1   --> A              
     e( 49 - 49) =      7.09914  eV     1   --> A              
     e( 50 - 50) =      7.46181  eV     1   --> A              
     e( 51 - 51) =      7.78126  eV     1   --> A              
     e( 52 - 52) =      8.28915  eV     1   --> A              
     e( 53 - 53) =      8.40841  eV     1   --> A              
     e( 54 - 54) =      8.50692  eV     1   --> A              
     e( 55 - 55) =      8.71978  eV     1   --> A              
     e( 56 - 56) =      9.05777  eV     1   --> A              
     e( 57 - 57) =      9.59898  eV     1   --> A              
     e( 58 - 58) =      9.68283  eV     1   --> A              
     e( 59 - 59) =      9.86129  eV     1   --> A              
     e( 60 - 60) =     10.09961  eV     1   --> A              
     e( 61 - 61) =     10.52960  eV     1   --> A              
     e( 62 - 62) =     10.74773  eV     1   --> A              
     e( 63 - 63) =     11.04083  eV     1   --> A              
     e( 64 - 64) =     11.13883  eV     1   --> A              
     e( 65 - 65) =     11.82346  eV     1   --> A              
     e( 66 - 66) =     11.86977  eV     1   --> A              
     e( 67 - 67) =     12.64080  eV     1   --> A              
     e( 68 - 68) =     12.81172  eV     1   --> A              
     e( 69 - 69) =     13.31381  eV     1   --> A              
     e( 70 - 70) =     13.74714  eV     1   --> A              
     e( 71 - 71) =     14.07547  eV     1   --> A              
     e( 72 - 72) =     14.35342  eV     1   --> A              
     e( 73 - 73) =     14.47586  eV     1   --> A              
     e( 74 - 74) =     14.67613  eV     1   --> A              
     e( 75 - 75) =     15.33852  eV     1   --> A              
     e( 76 - 76) =     15.46758  eV     1   --> A              
     e( 77 - 77) =     15.61196  eV     1   --> A              
     e( 78 - 78) =     15.81591  eV     1   --> A              
     e( 79 - 79) =     15.98938  eV     1   --> A              
     e( 80 - 80) =     16.23102  eV     1   --> A              
     e( 81 - 81) =     16.37590  eV     1   --> A              
     e( 82 - 82) =     16.45501  eV     1   --> A              
     e( 83 - 83) =     16.66945  eV     1   --> A              
     e( 84 - 84) =     16.80572  eV     1   --> A              
     e( 85 - 85) =     16.87121  eV     1   --> A              
     e( 86 - 86) =     17.03405  eV     1   --> A              
     e( 87 - 87) =     17.15290  eV     1   --> A              
     e( 88 - 88) =     17.46944  eV     1   --> A              
     e( 89 - 89) =     17.58996  eV     1   --> A              
     e( 90 - 90) =     17.66403  eV     1   --> A              
     e( 91 - 91) =     17.84496  eV     1   --> A              
     e( 92 - 92) =     17.93609  eV     1   --> A              
     e( 93 - 93) =     17.96640  eV     1   --> A              
     e( 94 - 94) =     18.14625  eV     1   --> A              
     e( 95 - 95) =     18.21424  eV     1   --> A              
     e( 96 - 96) =     18.43667  eV     1   --> A              
     e( 97 - 97) =     18.59162  eV     1   --> A              
     e( 98 - 98) =     18.86106  eV     1   --> A              
     e( 99 - 99) =     18.99471  eV     1   --> A              
     e(100 -100) =     19.11174  eV     1   --> A              

 **************************************************************************

 **************************************************************************

                    xk=(   0.06429,   0.03712,   0.00000  )

     Band symmetry, C_1 (1)     point group:

     e(  1 -  1) =    -34.83900  eV     1   --> A              
     e(  2 -  2) =    -34.83857  eV     1   --> A              
     e(  3 -  3) =    -34.83609  eV     1   --> A              
     e(  4 -  4) =    -34.83567  eV     1   --> A              
     e(  5 -  5) =    -34.80520  eV     1   --> A              
     e(  6 -  6) =    -34.80223  eV     1   --> A              
     e(  7 -  7) =    -34.79851  eV     1   --> A              
     e(  8 -  8) =    -34.79567  eV     1   --> A              
     e(  9 -  9) =    -34.78886  eV     1   --> A              
     e( 10 - 10) =    -34.78596  eV     1   --> A              
     e( 11 - 11) =    -34.73269  eV     1   --> A              
     e( 12 - 12) =    -34.72851  eV     1   --> A              
     e( 13 - 13) =    -34.71458  eV     1   --> A              
     e( 14 - 14) =    -34.69067  eV     1   --> A              
     e( 15 - 15) =    -34.68909  eV     1   --> A              
     e( 16 - 16) =    -27.62106  eV     1   --> A              
     e( 17 - 17) =    -27.62005  eV     1   --> A              
     e( 18 - 18) =    -27.61869  eV     1   --> A              
     e( 19 - 19) =    -27.61766  eV     1   --> A              
     e( 20 - 20) =    -27.61372  eV     1   --> A              
     e( 21 - 21) =    -27.61135  eV     1   --> A              
     e( 22 - 22) =    -27.60963  eV     1   --> A              
     e( 23 - 23) =    -27.60728  eV     1   --> A              
     e( 24 - 24) =    -27.60680  eV     1   --> A              
     e( 25 - 25) =    -27.60444  eV     1   --> A              
     e( 26 - 26) =    -10.70942  eV     1   --> A              
     e( 27 - 27) =    -10.17221  eV     1   --> A              
     e( 28 - 28) =     -9.11239  eV     1   --> A              
     e( 29 - 29) =     -6.40728  eV     1   --> A              
     e( 30 - 30) =     -5.12792  eV     1   --> A              
     e( 31 - 31) =     -0.51506  eV     1   --> A              
     e( 32 - 32) =     -0.40908  eV     1   --> A              
     e( 33 - 33) =     -0.05014  eV     1   --> A              
     e( 34 - 34) =      0.07489  eV     1   --> A              
     e( 35 - 35) =      0.27672  eV     1   --> A              
     e( 36 - 36) =      0.38202  eV     1   --> A              
     e( 37 - 37) =      0.90291  eV     1   --> A              
     e( 38 - 38) =      0.93968  eV     1   --> A              
     e( 39 - 39) =      1.30843  eV     1   --> A              
     e( 40 - 40) =      2.35489  eV     1   --> A              
     e( 41 - 41) =      2.36498  eV     1   --> A              
     e( 42 - 42) =      2.75869  eV     1   --> A              
     e( 43 - 43) =      3.62370  eV     1   --> A              
     e( 44 - 44) =      3.71769  eV     1   --> A              
     e( 45 - 45) =      3.86008  eV     1   --> A              
     e( 46 - 46) =      6.16356  eV     1   --> A              
     e( 47 - 47) =      6.29158  eV     1   --> A              
     e( 48 - 48) =      6.89605  eV     1   --> A              
     e( 49 - 49) =      7.08358  eV     1   --> A              
     e( 50 - 50) =      7.46270  eV     1   --> A              
     e( 51 - 51) =      7.79203  eV     1   --> A              
     e( 52 - 52) =      8.26334  eV     1   --> A              
     e( 53 - 53) =      8.42926  eV     1   --> A              
     e( 54 - 54) =      8.50550  eV     1   --> A              
     e( 55 - 55) =      8.75136  eV     1   --> A              
     e( 56 - 56) =      9.05419  eV     1   --> A              
     e( 57 - 57) =      9.60084  eV     1   --> A              
     e( 58 - 58) =      9.71070  eV     1   --> A              
     e( 59 - 59) =      9.88198  eV     1   --> A              
     e( 60 - 60) =     10.13312  eV     1   --> A              
     e( 61 - 61) =     10.56302  eV     1   --> A              
     e( 62 - 62) =     10.71915  eV     1   --> A              
     e( 63 - 63) =     11.04392  eV     1   --> A              
     e( 64 - 64) =     11.12381  eV     1   --> A              
     e( 65 - 65) =     11.87290  eV     1   --> A              
     e( 66 - 66) =     11.92579  eV     1   --> A              
     e( 67 - 67) =     12.62368  eV     1   --> A              
     e( 68 - 68) =     12.82591  eV     1   --> A              
     e( 69 - 69) =     13.28254  eV     1   --> A              
     e( 70 - 70) =     13.71417  eV     1   --> A              
     e( 71 - 71) =     14.07372  eV     1   --> A              
     e( 72 - 72) =     14.36752  eV     1   --> A              
     e( 73 - 73) =     14.45445  eV     1   --> A              
     e( 74 - 74) =     14.68630  eV     1   --> A              
     e( 75 - 75) =     15.35138  eV     1   --> A              
     e( 76 - 76) =     15.39830  eV     1   --> A              
     e( 77 - 77) =     15.56901  eV     1   --> A              
     e( 78 - 78) =     15.75345  eV     1   --> A              
     e( 79 - 79) =     15.91922  eV     1   --> A              
     e( 80 - 80) =     16.23614  eV     1   --> A              
     e( 81 - 81) =     16.38785  eV     1   --> A              
     e( 82 - 82) =     16.48607  eV     1   --> A              
     e( 83 - 83) =     16.66980  eV     1   --> A              
     e( 84 - 84) =     16.79282  eV     1   --> A              
     e( 85 - 85) =     16.89129  eV     1   --> A              
     e( 86 - 86) =     16.99836  eV     1   --> A              
     e( 87 - 87) =     17.11868  eV     1   --> A              
     e( 88 - 88) =     17.42945  eV     1   --> A              
     e( 89 - 89) =     17.63057  eV     1   --> A              
     e( 90 - 90) =     17.68210  eV     1   --> A              
     e( 91 - 91) =     17.78801  eV     1   --> A              
     e( 92 - 92) =     17.99864  eV     1   --> A              
     e( 93 - 93) =     18.04611  eV     1   --> A              
     e( 94 - 94) =     18.25502  eV     1   --> A              
     e( 95 - 95) =     18.29706  eV     1   --> A              
     e( 96 - 96) =     18.49302  eV     1   --> A              
     e( 97 - 97) =     18.54253  eV     1   --> A              
     e( 98 - 98) =     18.82697  eV     1   --> A              
     e( 99 - 99) =     18.95083  eV     1   --> A              
     e(100 -100) =     19.06430  eV     1   --> A              

 **************************************************************************

 **************************************************************************

                    xk=(   0.07143,   0.04124,   0.00000  )

     Band symmetry, C_1 (1)     point group:

     e(  1 -  1) =    -34.83899  eV     1   --> A              
     e(  2 -  2) =    -34.83856  eV     1   --> A              
     e(  3 -  3) =    -34.83608  eV     1   --> A              
     e(  4 -  4) =    -34.83566  eV     1   --> A              
     e(  5 -  5) =    -34.80520  eV     1   --> A              
     e(  6 -  6) =    -34.80223  eV     1   --> A              
     e(  7 -  7) =    -34.79851  eV     1   --> A              
     e(  8 -  8) =    -34.79567  eV     1   --> A              
     e(  9 -  9) =    -34.78885  eV     1   --> A              
     e( 10 - 10) =    -34.78596  eV     1   --> A              
     e( 11 - 11) =    -34.73269  eV     1   --> A              
     e( 12 - 12) =    -34.72851  eV     1   --> A              
     e( 13 - 13) =    -34.71458  eV     1   --> A              
     e( 14 - 14) =    -34.69066  eV     1   --> A              
     e( 15 - 15) =    -34.68909  eV     1   --> A              
     e( 16 - 16) =    -27.62104  eV     1   --> A              
     e( 17 - 17) =    -27.62005  eV     1   --> A              
     e( 18 - 18) =    -27.61867  eV     1   --> A              
     e( 19 - 19) =    -27.61766  eV     1   --> A              
     e( 20 - 20) =    -27.61371  eV     1   --> A              
     e( 21 - 21) =    -27.61134  eV     1   --> A              
     e( 22 - 22) =    -27.60964  eV     1   --> A              
     e( 23 - 23) =    -27.60729  eV     1   --> A              
     e( 24 - 24) =    -27.60680  eV     1   --> A              
     e( 25 - 25) =    -27.60444  eV     1   --> A              
     e( 26 - 26) =    -10.70163  eV     1   --> A              
     e( 27 - 27) =    -10.16517  eV     1   --> A              
     e( 28 - 28) =     -9.10839  eV     1   --> A              
     e( 29 - 29) =     -6.40965  eV     1   --> A              
     e( 30 - 30) =     -5.14369  eV     1   --> A              
     e( 31 - 31) =     -0.58415  eV     1   --> A              
     e( 32 - 32) =     -0.43587  eV     1   --> A              
     e( 33 - 33) =     -0.06893  eV     1   --> A              
     e( 34 - 34) =      0.05041  eV     1   --> A              
     e( 35 - 35) =      0.26776  eV     1   --> A              
     e( 36 - 36) =      0.33270  eV     1   --> A              
     e( 37 - 37) =      0.92600  eV     1   --> A              
     e( 38 - 38) =      0.96783  eV     1   --> A              
     e( 39 - 39) =      1.34047  eV     1   --> A              
     e( 40 - 40) =      2.33116  eV     1   --> A              
     e( 41 - 41) =      2.43134  eV     1   --> A              
     e( 42 - 42) =      2.77466  eV     1   --> A              
     e( 43 - 43) =      3.62080  eV     1   --> A              
     e( 44 - 44) =      3.73833  eV     1   --> A              
     e( 45 - 45) =      3.89208  eV     1   --> A              
     e( 46 - 46) =      6.17658  eV     1   --> A              
     e( 47 - 47) =      6.29135  eV     1   --> A              
     e( 48 - 48) =      6.88103  eV     1   --> A              
     e( 49 - 49) =      7.07239  eV     1   --> A              
     e( 50 - 50) =      7.46408  eV     1   --> A              
     e( 51 - 51) =      7.80477  eV     1   --> A              
     e( 52 - 52) =      8.23644  eV     1   --> A              
     e( 53 - 53) =      8.45154  eV     1   --> A              
     e( 54 - 54) =      8.50542  eV     1   --> A              
     e( 55 - 55) =      8.78446  eV     1   --> A              
     e( 56 - 56) =      9.05276  eV     1   --> A              
     e( 57 - 57) =      9.59024  eV     1   --> A              
     e( 58 - 58) =      9.73957  eV     1   --> A              
     e( 59 - 59) =      9.91495  eV     1   --> A              
     e( 60 - 60) =     10.16927  eV     1   --> A              
     e( 61 - 61) =     10.60014  eV     1   --> A              
     e( 62 - 62) =     10.69013  eV     1   --> A              
     e( 63 - 63) =     11.04873  eV     1   --> A              
     e( 64 - 64) =     11.11539  eV     1   --> A              
     e( 65 - 65) =     11.91919  eV     1   --> A              
     e( 66 - 66) =     11.98171  eV     1   --> A              
     e( 67 - 67) =     12.60693  eV     1   --> A              
     e( 68 - 68) =     12.84133  eV     1   --> A              
     e( 69 - 69) =     13.25628  eV     1   --> A              
     e( 70 - 70) =     13.68273  eV     1   --> A              
     e( 71 - 71) =     14.05874  eV     1   --> A              
     e( 72 - 72) =     14.33789  eV     1   --> A              
     e( 73 - 73) =     14.46619  eV     1   --> A              
     e( 74 - 74) =     14.71927  eV     1   --> A              
     e( 75 - 75) =     15.27237  eV     1   --> A              
     e( 76 - 76) =     15.37867  eV     1   --> A              
     e( 77 - 77) =     15.54585  eV     1   --> A              
     e( 78 - 78) =     15.70153  eV     1   --> A              
     e( 79 - 79) =     15.86884  eV     1   --> A              
     e( 80 - 80) =     16.23523  eV     1   --> A              
     e( 81 - 81) =     16.39690  eV     1   --> A              
     e( 82 - 82) =     16.49548  eV     1   --> A              
     e( 83 - 83) =     16.67172  eV     1   --> A              
     e( 84 - 84) =     16.76512  eV     1   --> A              
     e( 85 - 85) =     16.92449  eV     1   --> A              
     e( 86 - 86) =     16.98139  eV     1   --> A              
     e( 87 - 87) =     17.09106  eV     1   --> A              
     e( 88 - 88) =     17.36051  eV     1   --> A              
     e( 89 - 89) =     17.62289  eV     1   --> A              
     e( 90 - 90) =     17.67745  eV     1   --> A              
     e( 91 - 91) =     17.81183  eV     1   --> A              
     e( 92 - 92) =     18.09028  eV     1   --> A              
     e( 93 - 93) =     18.12307  eV     1   --> A              
     e( 94 - 94) =     18.34613  eV     1   --> A              
     e( 95 - 95) =     18.39369  eV     1   --> A              
     e( 96 - 96) =     18.50934  eV     1   --> A              
     e( 97 - 97) =     18.54230  eV     1   --> A              
     e( 98 - 98) =     18.80296  eV     1   --> A              
     e( 99 - 99) =     18.91158  eV     1   --> A              
     e(100 -100) =     19.02186  eV     1   --> A              

 **************************************************************************

 **************************************************************************

                    xk=(   0.07857,   0.04536,   0.00000  )

     Band symmetry, C_1 (1)     point group:

     e(  1 -  1) =    -34.83899  eV     1   --> A              
     e(  2 -  2) =    -34.83856  eV     1   --> A              
     e(  3 -  3) =    -34.83608  eV     1   --> A              
     e(  4 -  4) =    -34.83566  eV     1   --> A              
     e(  5 -  5) =    -34.80521  eV     1   --> A              
     e(  6 -  6) =    -34.80224  eV     1   --> A              
     e(  7 -  7) =    -34.79851  eV     1   --> A              
     e(  8 -  8) =    -34.79567  eV     1   --> A              
     e(  9 -  9) =    -34.78885  eV     1   --> A              
     e( 10 - 10) =    -34.78596  eV     1   --> A              
     e( 11 - 11) =    -34.73268  eV     1   --> A              
     e( 12 - 12) =    -34.72851  eV     1   --> A              
     e( 13 - 13) =    -34.71458  eV     1   --> A              
     e( 14 - 14) =    -34.69065  eV     1   --> A              
     e( 15 - 15) =    -34.68909  eV     1   --> A              
     e( 16 - 16) =    -27.62102  eV     1   --> A              
     e( 17 - 17) =    -27.62004  eV     1   --> A              
     e( 18 - 18) =    -27.61865  eV     1   --> A              
     e( 19 - 19) =    -27.61765  eV     1   --> A              
     e( 20 - 20) =    -27.61370  eV     1   --> A              
     e( 21 - 21) =    -27.61134  eV     1   --> A              
     e( 22 - 22) =    -27.60966  eV     1   --> A              
     e( 23 - 23) =    -27.60730  eV     1   --> A              
     e( 24 - 24) =    -27.60680  eV     1   --> A              
     e( 25 - 25) =    -27.60444  eV     1   --> A              
     e( 26 - 26) =    -10.69304  eV     1   --> A              
     e( 27 - 27) =    -10.15743  eV     1   --> A              
     e( 28 - 28) =     -9.10399  eV     1   --> A              
     e( 29 - 29) =     -6.41236  eV     1   --> A              
     e( 30 - 30) =     -5.16109  eV     1   --> A              
     e( 31 - 31) =     -0.65495  eV     1   --> A              
     e( 32 - 32) =     -0.46360  eV     1   --> A              
     e( 33 - 33) =     -0.08960  eV     1   --> A              
     e( 34 - 34) =      0.02324  eV     1   --> A              
     e( 35 - 35) =      0.25759  eV     1   --> A              
     e( 36 - 36) =      0.28549  eV     1   --> A              
     e( 37 - 37) =      0.94061  eV     1   --> A              
     e( 38 - 38) =      1.00510  eV     1   --> A              
     e( 39 - 39) =      1.36633  eV     1   --> A              
     e( 40 - 40) =      2.31391  eV     1   --> A              
     e( 41 - 41) =      2.49857  eV     1   --> A              
     e( 42 - 42) =      2.79250  eV     1   --> A              
     e( 43 - 43) =      3.61300  eV     1   --> A              
     e( 44 - 44) =      3.76098  eV     1   --> A              
     e( 45 - 45) =      3.92886  eV     1   --> A              
     e( 46 - 46) =      6.19071  eV     1   --> A              
     e( 47 - 47) =      6.29056  eV     1   --> A              
     e( 48 - 48) =      6.86105  eV     1   --> A              
     e( 49 - 49) =      7.06618  eV     1   --> A              
     e( 50 - 50) =      7.46597  eV     1   --> A              
     e( 51 - 51) =      7.81942  eV     1   --> A              
     e( 52 - 52) =      8.21039  eV     1   --> A              
     e( 53 - 53) =      8.47375  eV     1   --> A              
     e( 54 - 54) =      8.50589  eV     1   --> A              
     e( 55 - 55) =      8.81880  eV     1   --> A              
     e( 56 - 56) =      9.05390  eV     1   --> A              
     e( 57 - 57) =      9.57268  eV     1   --> A              
     e( 58 - 58) =      9.76801  eV     1   --> A              
     e( 59 - 59) =      9.95616  eV     1   --> A              
     e( 60 - 60) =     10.20639  eV     1   --> A              
     e( 61 - 61) =     10.63363  eV     1   --> A              
     e( 62 - 62) =     10.67104  eV     1   --> A              
     e( 63 - 63) =     11.05209  eV     1   --> A              
     e( 64 - 64) =     11.11514  eV     1   --> A              
[...]
     e(  3 -  3) =    -34.83611  eV     1   --> A              
     e(  4 -  4) =    -34.83569  eV     1   --> A              
     e(  5 -  5) =    -34.80520  eV     1   --> A              
     e(  6 -  6) =    -34.80223  eV     1   --> A              
     e(  7 -  7) =    -34.79851  eV     1   --> A              
     e(  8 -  8) =    -34.79566  eV     1   --> A              
     e(  9 -  9) =    -34.78887  eV     1   --> A              
     e( 10 - 10) =    -34.78598  eV     1   --> A              
     e( 11 - 11) =    -34.73271  eV     1   --> A              
     e( 12 - 12) =    -34.72850  eV     1   --> A              
     e( 13 - 13) =    -34.71458  eV     1   --> A              
     e( 14 - 14) =    -34.69069  eV     1   --> A              
     e( 15 - 15) =    -34.68910  eV     1   --> A              
     e( 16 - 16) =    -27.62114  eV     1   --> A              
     e( 17 - 17) =    -27.62006  eV     1   --> A              
     e( 18 - 18) =    -27.61877  eV     1   --> A              
     e( 19 - 19) =    -27.61767  eV     1   --> A              
     e( 20 - 20) =    -27.61374  eV     1   --> A              
     e( 21 - 21) =    -27.61137  eV     1   --> A              
     e( 22 - 22) =    -27.60957  eV     1   --> A              
     e( 23 - 23) =    -27.60721  eV     1   --> A              
     e( 24 - 24) =    -27.60681  eV     1   --> A              
     e( 25 - 25) =    -27.60444  eV     1   --> A              
     e( 26 - 26) =    -10.74041  eV     1   --> A              
     e( 27 - 27) =    -10.20025  eV     1   --> A              
     e( 28 - 28) =     -9.12849  eV     1   --> A              
     e( 29 - 29) =     -6.39831  eV     1   --> A              
     e( 30 - 30) =     -5.06431  eV     1   --> A              
     e( 31 - 31) =     -0.29672  eV     1   --> A              
     e( 32 - 32) =     -0.14188  eV     1   --> A              
     e( 33 - 33) =      0.07638  eV     1   --> A              
     e( 34 - 34) =      0.15021  eV     1   --> A              
     e( 35 - 35) =      0.30098  eV     1   --> A              
     e( 36 - 36) =      0.63842  eV     1   --> A              
     e( 37 - 37) =      0.69952  eV     1   --> A              
     e( 38 - 38) =      0.85884  eV     1   --> A              
     e( 39 - 39) =      1.11061  eV     1   --> A              
     e( 40 - 40) =      2.01217  eV     1   --> A              
     e( 41 - 41) =      2.55903  eV     1   --> A              
     e( 42 - 42) =      2.69777  eV     1   --> A              
     e( 43 - 43) =      3.45376  eV     1   --> A              
     e( 44 - 44) =      3.70259  eV     1   --> A              
     e( 45 - 45) =      3.78831  eV     1   --> A              
     e( 46 - 46) =      6.10957  eV     1   --> A              
     e( 47 - 47) =      6.28900  eV     1   --> A              
     e( 48 - 48) =      6.91538  eV     1   --> A              
     e( 49 - 49) =      7.20054  eV     1   --> A              
     e( 50 - 50) =      7.46400  eV     1   --> A              
     e( 51 - 51) =      7.73933  eV     1   --> A              
     e( 52 - 52) =      8.27397  eV     1   --> A              
     e( 53 - 53) =      8.44562  eV     1   --> A              
     e( 54 - 54) =      8.55403  eV     1   --> A              
     e( 55 - 55) =      8.58492  eV     1   --> A              
     e( 56 - 56) =      9.10344  eV     1   --> A              
     e( 57 - 57) =      9.39985  eV     1   --> A              
     e( 58 - 58) =      9.58276  eV     1   --> A              
     e( 59 - 59) =      9.91418  eV     1   --> A              
     e( 60 - 60) =      9.98876  eV     1   --> A              
     e( 61 - 61) =     10.42877  eV     1   --> A              
     e( 62 - 62) =     10.77542  eV     1   --> A              
     e( 63 - 63) =     11.18034  eV     1   --> A              
     e( 64 - 64) =     11.32779  eV     1   --> A              
     e( 65 - 65) =     11.42828  eV     1   --> A              
     e( 66 - 66) =     11.64063  eV     1   --> A              
     e( 67 - 67) =     12.71810  eV     1   --> A              
     e( 68 - 68) =     12.75883  eV     1   --> A              
     e( 69 - 69) =     13.53765  eV     1   --> A              
     e( 70 - 70) =     13.91764  eV     1   --> A              
     e( 71 - 71) =     14.02022  eV     1   --> A              
     e( 72 - 72) =     14.11693  eV     1   --> A              
     e( 73 - 73) =     14.37812  eV     1   --> A              
     e( 74 - 74) =     14.94522  eV     1   --> A              
     e( 75 - 75) =     15.31557  eV     1   --> A              
     e( 76 - 76) =     15.77039  eV     1   --> A              
     e( 77 - 77) =     15.87449  eV     1   --> A              
     e( 78 - 78) =     15.90717  eV     1   --> A              
     e( 79 - 79) =     16.03601  eV     1   --> A              
     e( 80 - 80) =     16.26020  eV     1   --> A              
     e( 81 - 81) =     16.47816  eV     1   --> A              
     e( 82 - 82) =     16.57567  eV     1   --> A              
     e( 83 - 83) =     16.66789  eV     1   --> A              
     e( 84 - 84) =     16.91105  eV     1   --> A              
     e( 85 - 85) =     17.02564  eV     1   --> A              
     e( 86 - 86) =     17.10039  eV     1   --> A              
     e( 87 - 87) =     17.13085  eV     1   --> A              
     e( 88 - 88) =     17.25639  eV     1   --> A              
     e( 89 - 89) =     17.36332  eV     1   --> A              
     e( 90 - 90) =     17.39626  eV     1   --> A              
     e( 91 - 91) =     17.42701  eV     1   --> A              
     e( 92 - 92) =     17.71948  eV     1   --> A              
     e( 93 - 93) =     17.84397  eV     1   --> A              
     e( 94 - 94) =     18.10949  eV     1   --> A              
     e( 95 - 95) =     18.44745  eV     1   --> A              
     e( 96 - 96) =     18.58400  eV     1   --> A              
     e( 97 - 97) =     18.89707  eV     1   --> A              
     e( 98 - 98) =     19.00547  eV     1   --> A              
     e( 99 - 99) =     19.01348  eV     1   --> A              
     e(100 -100) =     19.19037  eV     1   --> A              

 **************************************************************************

 **************************************************************************

                    xk=(   0.00476,   0.00847,   0.00000  )

     Band symmetry, C_1 (1)     point group:

     e(  1 -  1) =    -34.83902  eV     1   --> A              
     e(  2 -  2) =    -34.83859  eV     1   --> A              
     e(  3 -  3) =    -34.83611  eV     1   --> A              
     e(  4 -  4) =    -34.83569  eV     1   --> A              
     e(  5 -  5) =    -34.80520  eV     1   --> A              
     e(  6 -  6) =    -34.80223  eV     1   --> A              
     e(  7 -  7) =    -34.79851  eV     1   --> A              
     e(  8 -  8) =    -34.79566  eV     1   --> A              
     e(  9 -  9) =    -34.78888  eV     1   --> A              
     e( 10 - 10) =    -34.78598  eV     1   --> A              
     e( 11 - 11) =    -34.73272  eV     1   --> A              
     e( 12 - 12) =    -34.72850  eV     1   --> A              
     e( 13 - 13) =    -34.71458  eV     1   --> A              
     e( 14 - 14) =    -34.69070  eV     1   --> A              
     e( 15 - 15) =    -34.68910  eV     1   --> A              
     e( 16 - 16) =    -27.62114  eV     1   --> A              
     e( 17 - 17) =    -27.62006  eV     1   --> A              
     e( 18 - 18) =    -27.61877  eV     1   --> A              
     e( 19 - 19) =    -27.61768  eV     1   --> A              
     e( 20 - 20) =    -27.61374  eV     1   --> A              
     e( 21 - 21) =    -27.61137  eV     1   --> A              
     e( 22 - 22) =    -27.60957  eV     1   --> A              
     e( 23 - 23) =    -27.60721  eV     1   --> A              
     e( 24 - 24) =    -27.60680  eV     1   --> A              
     e( 25 - 25) =    -27.60444  eV     1   --> A              
     e( 26 - 26) =    -10.74211  eV     1   --> A              
     e( 27 - 27) =    -10.20181  eV     1   --> A              
     e( 28 - 28) =     -9.12942  eV     1   --> A              
     e( 29 - 29) =     -6.39795  eV     1   --> A              
     e( 30 - 30) =     -5.06115  eV     1   --> A              
     e( 31 - 31) =     -0.29060  eV     1   --> A              
     e( 32 - 32) =     -0.12150  eV     1   --> A              
     e( 33 - 33) =      0.07887  eV     1   --> A              
     e( 34 - 34) =      0.16303  eV     1   --> A              
     e( 35 - 35) =      0.31102  eV     1   --> A              
     e( 36 - 36) =      0.64302  eV     1   --> A              
     e( 37 - 37) =      0.68823  eV     1   --> A              
     e( 38 - 38) =      0.86257  eV     1   --> A              
     e( 39 - 39) =      1.09399  eV     1   --> A              
     e( 40 - 40) =      1.99141  eV     1   --> A              
     e( 41 - 41) =      2.56426  eV     1   --> A              
     e( 42 - 42) =      2.70364  eV     1   --> A              
     e( 43 - 43) =      3.43951  eV     1   --> A              
     e( 44 - 44) =      3.70019  eV     1   --> A              
     e( 45 - 45) =      3.78558  eV     1   --> A              
     e( 46 - 46) =      6.10645  eV     1   --> A              
     e( 47 - 47) =      6.28850  eV     1   --> A              
     e( 48 - 48) =      6.91500  eV     1   --> A              
     e( 49 - 49) =      7.20345  eV     1   --> A              
     e( 50 - 50) =      7.46413  eV     1   --> A              
     e( 51 - 51) =      7.75070  eV     1   --> A              
     e( 52 - 52) =      8.25908  eV     1   --> A              
     e( 53 - 53) =      8.45176  eV     1   --> A              
     e( 54 - 54) =      8.55383  eV     1   --> A              
     e( 55 - 55) =      8.58708  eV     1   --> A              
     e( 56 - 56) =      9.10599  eV     1   --> A              
     e( 57 - 57) =      9.38295  eV     1   --> A              
     e( 58 - 58) =      9.57434  eV     1   --> A              
     e( 59 - 59) =      9.91872  eV     1   --> A              
     e( 60 - 60) =      9.97857  eV     1   --> A              
     e( 61 - 61) =     10.41846  eV     1   --> A              
     e( 62 - 62) =     10.77999  eV     1   --> A              
     e( 63 - 63) =     11.23208  eV     1   --> A              
     e( 64 - 64) =     11.33394  eV     1   --> A              
     e( 65 - 65) =     11.38627  eV     1   --> A              
     e( 66 - 66) =     11.60343  eV     1   --> A              
     e( 67 - 67) =     12.72686  eV     1   --> A              
     e( 68 - 68) =     12.74717  eV     1   --> A              
     e( 69 - 69) =     13.57209  eV     1   --> A              
     e( 70 - 70) =     13.88824  eV     1   --> A              
     e( 71 - 71) =     14.06646  eV     1   --> A              
     e( 72 - 72) =     14.10720  eV     1   --> A              
     e( 73 - 73) =     14.34641  eV     1   --> A              
     e( 74 - 74) =     14.93311  eV     1   --> A              
     e( 75 - 75) =     15.36843  eV     1   --> A              
     e( 76 - 76) =     15.74711  eV     1   --> A              
     e( 77 - 77) =     15.86750  eV     1   --> A              
     e( 78 - 78) =     15.92741  eV     1   --> A              
     e( 79 - 79) =     16.04173  eV     1   --> A              
     e( 80 - 80) =     16.24048  eV     1   --> A              
     e( 81 - 81) =     16.53000  eV     1   --> A              
     e( 82 - 82) =     16.61323  eV     1   --> A              
     e( 83 - 83) =     16.75664  eV     1   --> A              
     e( 84 - 84) =     16.82205  eV     1   --> A              
     e( 85 - 85) =     17.00118  eV     1   --> A              
     e( 86 - 86) =     17.08893  eV     1   --> A              
     e( 87 - 87) =     17.17426  eV     1   --> A              
     e( 88 - 88) =     17.17861  eV     1   --> A              
     e( 89 - 89) =     17.37042  eV     1   --> A              
     e( 90 - 90) =     17.43237  eV     1   --> A              
     e( 91 - 91) =     17.47816  eV     1   --> A              
     e( 92 - 92) =     17.71853  eV     1   --> A              
     e( 93 - 93) =     17.74198  eV     1   --> A              
     e( 94 - 94) =     18.01682  eV     1   --> A              
     e( 95 - 95) =     18.54715  eV     1   --> A              
     e( 96 - 96) =     18.67112  eV     1   --> A              
     e( 97 - 97) =     18.80415  eV     1   --> A              
     e( 98 - 98) =     18.99508  eV     1   --> A              
     e( 99 - 99) =     19.06074  eV     1   --> A              
     e(100 -100) =     19.16379  eV     1   --> A              

 **************************************************************************

 **************************************************************************

                    xk=(   0.00000,   0.00000,   0.00000  )

     Band symmetry, C_1 (1)     point group:

     e(  1 -  1) =    -34.83902  eV     1   --> A              
     e(  2 -  2) =    -34.83859  eV     1   --> A              
     e(  3 -  3) =    -34.83611  eV     1   --> A              
     e(  4 -  4) =    -34.83569  eV     1   --> A              
     e(  5 -  5) =    -34.80520  eV     1   --> A              
     e(  6 -  6) =    -34.80222  eV     1   --> A              
     e(  7 -  7) =    -34.79851  eV     1   --> A              
     e(  8 -  8) =    -34.79566  eV     1   --> A              
     e(  9 -  9) =    -34.78888  eV     1   --> A              
     e( 10 - 10) =    -34.78598  eV     1   --> A              
     e( 11 - 11) =    -34.73272  eV     1   --> A              
     e( 12 - 12) =    -34.72850  eV     1   --> A              
     e( 13 - 13) =    -34.71458  eV     1   --> A              
     e( 14 - 14) =    -34.69070  eV     1   --> A              
     e( 15 - 15) =    -34.68910  eV     1   --> A              
     e( 16 - 16) =    -27.62114  eV     1   --> A              
     e( 17 - 17) =    -27.62006  eV     1   --> A              
     e( 18 - 18) =    -27.61877  eV     1   --> A              
     e( 19 - 19) =    -27.61768  eV     1   --> A              
     e( 20 - 20) =    -27.61374  eV     1   --> A              
     e( 21 - 21) =    -27.61137  eV     1   --> A              
     e( 22 - 22) =    -27.60957  eV     1   --> A              
     e( 23 - 23) =    -27.60721  eV     1   --> A              
     e( 24 - 24) =    -27.60680  eV     1   --> A              
     e( 25 - 25) =    -27.60443  eV     1   --> A              
     e( 26 - 26) =    -10.74269  eV     1   --> A              
     e( 27 - 27) =    -10.20233  eV     1   --> A              
     e( 28 - 28) =     -9.12971  eV     1   --> A              
     e( 29 - 29) =     -6.39782  eV     1   --> A              
     e( 30 - 30) =     -5.06009  eV     1   --> A              
     e( 31 - 31) =     -0.28858  eV     1   --> A              
     e( 32 - 32) =     -0.11458  eV     1   --> A              
     e( 33 - 33) =      0.07978  eV     1   --> A              
     e( 34 - 34) =      0.16740  eV     1   --> A              
     e( 35 - 35) =      0.31463  eV     1   --> A              
     e( 36 - 36) =      0.64316  eV     1   --> A              
     e( 37 - 37) =      0.68530  eV     1   --> A              
     e( 38 - 38) =      0.86397  eV     1   --> A              
     e( 39 - 39) =      1.08850  eV     1   --> A              
     e( 40 - 40) =      1.98419  eV     1   --> A              
     e( 41 - 41) =      2.56585  eV     1   --> A              
     e( 42 - 42) =      2.70611  eV     1   --> A              
     e( 43 - 43) =      3.43438  eV     1   --> A              
     e( 44 - 44) =      3.69937  eV     1   --> A              
     e( 45 - 45) =      3.78482  eV     1   --> A              
     e( 46 - 46) =      6.10541  eV     1   --> A              
     e( 47 - 47) =      6.28834  eV     1   --> A              
     e( 48 - 48) =      6.91486  eV     1   --> A              
     e( 49 - 49) =      7.20439  eV     1   --> A              
     e( 50 - 50) =      7.46419  eV     1   --> A              
     e( 51 - 51) =      7.75479  eV     1   --> A              
     e( 52 - 52) =      8.25377  eV     1   --> A              
     e( 53 - 53) =      8.45395  eV     1   --> A              
     e( 54 - 54) =      8.55280  eV     1   --> A              
     e( 55 - 55) =      8.58887  eV     1   --> A              
     e( 56 - 56) =      9.10700  eV     1   --> A              
     e( 57 - 57) =      9.37705  eV     1   --> A              
     e( 58 - 58) =      9.57134  eV     1   --> A              
     e( 59 - 59) =      9.92041  eV     1   --> A              
     e( 60 - 60) =      9.97516  eV     1   --> A              
     e( 61 - 61) =     10.41505  eV     1   --> A              
     e( 62 - 62) =     10.78148  eV     1   --> A              
     e( 63 - 63) =     11.26009  eV     1   --> A              
     e( 64 - 64) =     11.32968  eV     1   --> A              
     e( 65 - 65) =     11.36939  eV     1   --> A              
     e( 66 - 66) =     11.58940  eV     1   --> A              
     e( 67 - 67) =     12.73406  eV     1   --> A              
     e( 68 - 68) =     12.73901  eV     1   --> A              
     e( 69 - 69) =     13.58564  eV     1   --> A              
     e( 70 - 70) =     13.87620  eV     1   --> A              
     e( 71 - 71) =     14.09362  eV     1   --> A              
     e( 72 - 72) =     14.09463  eV     1   --> A              
     e( 73 - 73) =     14.33402  eV     1   --> A              
     e( 74 - 74) =     14.92755  eV     1   --> A              
     e( 75 - 75) =     15.39245  eV     1   --> A              
     e( 76 - 76) =     15.73109  eV     1   --> A              
     e( 77 - 77) =     15.85618  eV     1   --> A              
     e( 78 - 78) =     15.95044  eV     1   --> A              
     e( 79 - 79) =     16.04152  eV     1   --> A              
     e( 80 - 80) =     16.23082  eV     1   --> A              
     e( 81 - 81) =     16.53675  eV     1   --> A              
     e( 82 - 82) =     16.68027  eV     1   --> A              
     e( 83 - 83) =     16.74188  eV     1   --> A              
     e( 84 - 84) =     16.80555  eV     1   --> A              
     e( 85 - 85) =     16.99022  eV     1   --> A              
     e( 86 - 86) =     17.07706  eV     1   --> A              
     e( 87 - 87) =     17.14325  eV     1   --> A              
     e( 88 - 88) =     17.19371  eV     1   --> A              
     e( 89 - 89) =     17.37403  eV     1   --> A              
     e( 90 - 90) =     17.44861  eV     1   --> A              
     e( 91 - 91) =     17.51390  eV     1   --> A              
     e( 92 - 92) =     17.67692  eV     1   --> A              
     e( 93 - 93) =     17.74012  eV     1   --> A              
     e( 94 - 94) =     17.97298  eV     1   --> A              
     e( 95 - 95) =     18.62750  eV     1   --> A              
     e( 96 - 96) =     18.67146  eV     1   --> A              
     e( 97 - 97) =     18.76827  eV     1   --> A              
     e( 98 - 98) =     18.97750  eV     1   --> A              
     e( 99 - 99) =     19.07758  eV     1   --> A              
     e(100 -100) =     19.14552  eV     1   --> A              

 **************************************************************************

     BANDS        :   1m14.61s CPU   2m14.76s WALL


   This run was terminated on:  21: 5:58  14Aug2025            

=------------------------------------------------------------------------------=
   JOB DONE.
=------------------------------------------------------------------------------=
