
     Program BANDS v.7.4.1 starts on 14Aug2025 at 20:31:47 

     This program is part of the open-source Quantum ESPRESSO suite
     for quantum simulation of materials; please cite
         "P. Giannozzi et al., J. Phys.:Condens. Matter 21 395502 (2009);
         "P. Giannozzi et al., J. Phys.:Condens. Matter 29 465901 (2017);
         "P. Giannozzi et al., J. Chem. Phys. 152 154105 (2020);
          URL http://www.quantum-espresso.org", 
     in publications or presentations arising from this work. More details at
     http://www.quantum-espresso.org/quote

     Parallel version (MPI & OpenMP), running on      48 processor cores
     Number of MPI processes:                24
     Threads/MPI process:                     2

     MPI processes distributed on     2 nodes
     R & G space division:  proc/nbgrp/npool/nimage =      24
     106842 MiB available memory on the printing compute node when the environment starts


     Reading xml data from directory:

     tmp/Sb2Te3-uatsx-c3-2.0.save/

     IMPORTANT: XC functional enforced from input :
     Exchange-correlation= PBE
                           (   1   4   3   4   0   0   0)
     Any further DFT definition will be discarded
     Please, verify this is what you really want


     Parallelization info
     --------------------
     sticks:   dense  smooth     PW     G-vecs:    dense   smooth      PW
     Min          97      39     10                19297     4885     728
     Max          98      40     11                19315     4897     761
     Sum        2329     937    263               463351   117389   17987

     Using Slab Decomposition

     Reading collected, re-writing distributed wavefunctions
     high-symmetry point:  0.0000 0.0000 0.0000   x coordinate   0.0000
     high-symmetry point:  0.5000 0.2887 0.0000   x coordinate   0.5774
     high-symmetry point:  0.3333 0.5851 0.0000   x coordinate   0.9174
     high-symmetry point:  0.0000 0.0000 0.0000   x coordinate   1.5907

     Plottable bands (eV) written to file ./bands/Sb2Te3-uatsx-c3-2.0.bands.gnu
     Bands written to file ./bands/Sb2Te3-uatsx-c3-2.0.bands

 **************************************************************************

                    xk=(   0.00000,   0.00000,   0.00000  )

     point group C_1 (1)    
     there are  1 classes
     the character table:

       E    
A      1.00

     the symmetry operations in each class and the name of the first element:

     E        1
                                                                 

     Band symmetry, C_1 (1)     point group:

     e(  1 -  1) =    -34.70362  eV     1   --> A              
     e(  2 -  2) =    -34.70337  eV     1   --> A              
     e(  3 -  3) =    -34.69822  eV     1   --> A              
     e(  4 -  4) =    -34.69797  eV     1   --> A              
     e(  5 -  5) =    -34.67384  eV     1   --> A              
     e(  6 -  6) =    -34.67023  eV     1   --> A              
     e(  7 -  7) =    -34.66838  eV     1   --> A              
     e(  8 -  8) =    -34.66489  eV     1   --> A              
     e(  9 -  9) =    -34.66079  eV     1   --> A              
     e( 10 - 10) =    -34.65538  eV     1   --> A              
     e( 11 - 11) =    -34.59540  eV     1   --> A              
     e( 12 - 12) =    -34.58739  eV     1   --> A              
     e( 13 - 13) =    -34.58049  eV     1   --> A              
     e( 14 - 14) =    -34.54846  eV     1   --> A              
     e( 15 - 15) =    -34.54805  eV     1   --> A              
     e( 16 - 16) =    -27.47009  eV     1   --> A              
     e( 17 - 17) =    -27.46989  eV     1   --> A              
     e( 18 - 18) =    -27.46622  eV     1   --> A              
     e( 19 - 19) =    -27.46601  eV     1   --> A              
     e( 20 - 20) =    -27.46198  eV     1   --> A              
     e( 21 - 21) =    -27.45862  eV     1   --> A              
     e( 22 - 22) =    -27.45816  eV     1   --> A              
     e( 23 - 23) =    -27.45729  eV     1   --> A              
     e( 24 - 24) =    -27.45481  eV     1   --> A              
     e( 25 - 25) =    -27.45347  eV     1   --> A              
     e( 26 - 26) =    -10.66266  eV     1   --> A              
     e( 27 - 27) =    -10.12907  eV     1   --> A              
     e( 28 - 28) =     -9.04824  eV     1   --> A              
     e( 29 - 29) =     -6.29821  eV     1   --> A              
     e( 30 - 30) =     -4.90932  eV     1   --> A              
     e( 31 - 31) =     -0.17367  eV     1   --> A              
     e( 32 - 32) =      0.10798  eV     1   --> A              
     e( 33 - 33) =      0.27790  eV     1   --> A              
     e( 34 - 34) =      0.33774  eV     1   --> A              
     e( 35 - 35) =      0.46357  eV     1   --> A              
     e( 36 - 36) =      0.78350  eV     1   --> A              
     e( 37 - 37) =      0.94621  eV     1   --> A              
     e( 38 - 38) =      1.04436  eV     1   --> A              
     e( 39 - 39) =      1.27942  eV     1   --> A              
     e( 40 - 40) =      2.28656  eV     1   --> A              
     e( 41 - 41) =      2.77139  eV     1   --> A              
     e( 42 - 42) =      2.84427  eV     1   --> A              
     e( 43 - 43) =      3.73220  eV     1   --> A              
     e( 44 - 44) =      3.86600  eV     1   --> A              
     e( 45 - 45) =      3.91122  eV     1   --> A              
     e( 46 - 46) =      6.21422  eV     1   --> A              
     e( 47 - 47) =      6.40735  eV     1   --> A              
     e( 48 - 48) =      6.98070  eV     1   --> A              
     e( 49 - 49) =      7.52977  eV     1   --> A              
     e( 50 - 50) =      7.61325  eV     1   --> A              
     e( 51 - 51) =      7.81743  eV     1   --> A              
     e( 52 - 52) =      8.39729  eV     1   --> A              
     e( 53 - 53) =      8.62147  eV     1   --> A              
     e( 54 - 54) =      8.77075  eV     1   --> A              
     e( 55 - 55) =      8.84646  eV     1   --> A              
     e( 56 - 56) =      9.14253  eV     1   --> A              
     e( 57 - 57) =      9.59193  eV     1   --> A              
     e( 58 - 58) =      9.69438  eV     1   --> A              
     e( 59 - 59) =     10.02591  eV     1   --> A              
     e( 60 - 60) =     10.12701  eV     1   --> A              
     e( 61 - 61) =     10.52924  eV     1   --> A              
     e( 62 - 62) =     11.05212  eV     1   --> A              
     e( 63 - 63) =     11.33908  eV     1   --> A              
     e( 64 - 64) =     11.46632  eV     1   --> A              
     e( 65 - 65) =     11.54336  eV     1   --> A              
     e( 66 - 66) =     11.67899  eV     1   --> A              
     e( 67 - 67) =     12.81317  eV     1   --> A              
     e( 68 - 68) =     12.87027  eV     1   --> A              
     e( 69 - 69) =     13.87106  eV     1   --> A              
     e( 70 - 70) =     14.13398  eV     1   --> A              
     e( 71 - 71) =     14.13778  eV     1   --> A              
     e( 72 - 72) =     14.24932  eV     1   --> A              
     e( 73 - 73) =     14.40355  eV     1   --> A              
     e( 74 - 74) =     15.08198  eV     1   --> A              
     e( 75 - 75) =     15.74666  eV     1   --> A              
     e( 76 - 76) =     16.01425  eV     1   --> A              
     e( 77 - 77) =     16.04665  eV     1   --> A              
     e( 78 - 78) =     16.08908  eV     1   --> A              
     e( 79 - 79) =     16.25038  eV     1   --> A              
     e( 80 - 80) =     16.35448  eV     1   --> A              
     e( 81 - 81) =     16.69138  eV     1   --> A              
     e( 82 - 82) =     17.08724  eV     1   --> A              
     e( 83 - 83) =     17.10626  eV     1   --> A              
     e( 84 - 84) =     17.14231  eV     1   --> A              
     e( 85 - 85) =     17.35292  eV     1   --> A              
     e( 86 - 86) =     17.35743  eV     1   --> A              
     e( 87 - 87) =     17.45048  eV     1   --> A              
     e( 88 - 88) =     17.48194  eV     1   --> A              
     e( 89 - 89) =     17.55139  eV     1   --> A              
     e( 90 - 90) =     17.64244  eV     1   --> A              
     e( 91 - 91) =     17.70447  eV     1   --> A              
     e( 92 - 92) =     17.82226  eV     1   --> A              
     e( 93 - 93) =     17.89126  eV     1   --> A              
     e( 94 - 94) =     18.15823  eV     1   --> A              
     e( 95 - 95) =     19.00975  eV     1   --> A              
     e( 96 - 96) =     19.07824  eV     1   --> A              
     e( 97 - 97) =     19.14469  eV     1   --> A              
     e( 98 - 98) =     19.25804  eV     1   --> A              
     e( 99 - 99) =     19.31353  eV     1   --> A              
     e(100 -100) =     19.41266  eV     1   --> A              

 **************************************************************************

 **************************************************************************

                    xk=(   0.00714,   0.00412,   0.00000  )

     Band symmetry, C_1 (1)     point group:

     e(  1 -  1) =    -34.70362  eV     1   --> A              
     e(  2 -  2) =    -34.70337  eV     1   --> A              
     e(  3 -  3) =    -34.69822  eV     1   --> A              
     e(  4 -  4) =    -34.69797  eV     1   --> A              
     e(  5 -  5) =    -34.67384  eV     1   --> A              
     e(  6 -  6) =    -34.67023  eV     1   --> A              
     e(  7 -  7) =    -34.66838  eV     1   --> A              
     e(  8 -  8) =    -34.66489  eV     1   --> A              
     e(  9 -  9) =    -34.66079  eV     1   --> A              
     e( 10 - 10) =    -34.65538  eV     1   --> A              
     e( 11 - 11) =    -34.59540  eV     1   --> A              
     e( 12 - 12) =    -34.58739  eV     1   --> A              
     e( 13 - 13) =    -34.58049  eV     1   --> A              
     e( 14 - 14) =    -34.54846  eV     1   --> A              
     e( 15 - 15) =    -34.54805  eV     1   --> A              
     e( 16 - 16) =    -27.47009  eV     1   --> A              
     e( 17 - 17) =    -27.46989  eV     1   --> A              
     e( 18 - 18) =    -27.46622  eV     1   --> A              
     e( 19 - 19) =    -27.46601  eV     1   --> A              
     e( 20 - 20) =    -27.46198  eV     1   --> A              
     e( 21 - 21) =    -27.45862  eV     1   --> A              
     e( 22 - 22) =    -27.45816  eV     1   --> A              
     e( 23 - 23) =    -27.45729  eV     1   --> A              
     e( 24 - 24) =    -27.45481  eV     1   --> A              
     e( 25 - 25) =    -27.45347  eV     1   --> A              
     e( 26 - 26) =    -10.66222  eV     1   --> A              
     e( 27 - 27) =    -10.12866  eV     1   --> A              
     e( 28 - 28) =     -9.04801  eV     1   --> A              
     e( 29 - 29) =     -6.29829  eV     1   --> A              
     e( 30 - 30) =     -4.91008  eV     1   --> A              
     e( 31 - 31) =     -0.17488  eV     1   --> A              
     e( 32 - 32) =      0.10264  eV     1   --> A              
     e( 33 - 33) =      0.27351  eV     1   --> A              
     e( 34 - 34) =      0.33552  eV     1   --> A              
     e( 35 - 35) =      0.46261  eV     1   --> A              
     e( 36 - 36) =      0.78566  eV     1   --> A              
     e( 37 - 37) =      0.94465  eV     1   --> A              
     e( 38 - 38) =      1.04517  eV     1   --> A              
     e( 39 - 39) =      1.28387  eV     1   --> A              
     e( 40 - 40) =      2.29278  eV     1   --> A              
     e( 41 - 41) =      2.76768  eV     1   --> A              
     e( 42 - 42) =      2.84446  eV     1   --> A              
     e( 43 - 43) =      3.73673  eV     1   --> A              
     e( 44 - 44) =      3.86618  eV     1   --> A              
     e( 45 - 45) =      3.91115  eV     1   --> A              
     e( 46 - 46) =      6.21502  eV     1   --> A              
     e( 47 - 47) =      6.40750  eV     1   --> A              
     e( 48 - 48) =      6.98088  eV     1   --> A              
     e( 49 - 49) =      7.52682  eV     1   --> A              
     e( 50 - 50) =      7.61322  eV     1   --> A              
     e( 51 - 51) =      7.81779  eV     1   --> A              
     e( 52 - 52) =      8.40030  eV     1   --> A              
     e( 53 - 53) =      8.62037  eV     1   --> A              
     e( 54 - 54) =      8.76750  eV     1   --> A              
     e( 55 - 55) =      8.84787  eV     1   --> A              
     e( 56 - 56) =      9.14152  eV     1   --> A              
     e( 57 - 57) =      9.59775  eV     1   --> A              
     e( 58 - 58) =      9.69670  eV     1   --> A              
     e( 59 - 59) =     10.02449  eV     1   --> A              
     e( 60 - 60) =     10.12940  eV     1   --> A              
     e( 61 - 61) =     10.53162  eV     1   --> A              
     e( 62 - 62) =     11.05135  eV     1   --> A              
     e( 63 - 63) =     11.33367  eV     1   --> A              
     e( 64 - 64) =     11.43542  eV     1   --> A              
     e( 65 - 65) =     11.57761  eV     1   --> A              
     e( 66 - 66) =     11.68595  eV     1   --> A              
     e( 67 - 67) =     12.81238  eV     1   --> A              
     e( 68 - 68) =     12.87163  eV     1   --> A              
     e( 69 - 69) =     13.85818  eV     1   --> A              
     e( 70 - 70) =     14.10783  eV     1   --> A              
     e( 71 - 71) =     14.15729  eV     1   --> A              
     e( 72 - 72) =     14.26430  eV     1   --> A              
     e( 73 - 73) =     14.40745  eV     1   --> A              
     e( 74 - 74) =     15.08502  eV     1   --> A              
     e( 75 - 75) =     15.72565  eV     1   --> A              
     e( 76 - 76) =     15.98793  eV     1   --> A              
     e( 77 - 77) =     16.03888  eV     1   --> A              
     e( 78 - 78) =     16.12734  eV     1   --> A              
     e( 79 - 79) =     16.26266  eV     1   --> A              
     e( 80 - 80) =     16.35571  eV     1   --> A              
     e( 81 - 81) =     16.69414  eV     1   --> A              
     e( 82 - 82) =     16.99447  eV     1   --> A              
     e( 83 - 83) =     17.09266  eV     1   --> A              
     e( 84 - 84) =     17.22605  eV     1   --> A              
     e( 85 - 85) =     17.31330  eV     1   --> A              
     e( 86 - 86) =     17.34772  eV     1   --> A              
     e( 87 - 87) =     17.41158  eV     1   --> A              
     e( 88 - 88) =     17.54788  eV     1   --> A              
     e( 89 - 89) =     17.56404  eV     1   --> A              
     e( 90 - 90) =     17.64168  eV     1   --> A              
     e( 91 - 91) =     17.71096  eV     1   --> A              
     e( 92 - 92) =     17.84116  eV     1   --> A              
     e( 93 - 93) =     17.90239  eV     1   --> A              
     e( 94 - 94) =     18.16952  eV     1   --> A              
     e( 95 - 95) =     18.94277  eV     1   --> A              
     e( 96 - 96) =     19.03879  eV     1   --> A              
     e( 97 - 97) =     19.19753  eV     1   --> A              
     e( 98 - 98) =     19.23650  eV     1   --> A              
     e( 99 - 99) =     19.33126  eV     1   --> A              
     e(100 -100) =     19.38395  eV     1   --> A              

 **************************************************************************

 **************************************************************************

                    xk=(   0.01429,   0.00825,   0.00000  )

     Band symmetry, C_1 (1)     point group:

     e(  1 -  1) =    -34.70361  eV     1   --> A              
     e(  2 -  2) =    -34.70337  eV     1   --> A              
     e(  3 -  3) =    -34.69822  eV     1   --> A              
     e(  4 -  4) =    -34.69797  eV     1   --> A              
     e(  5 -  5) =    -34.67384  eV     1   --> A              
     e(  6 -  6) =    -34.67023  eV     1   --> A              
     e(  7 -  7) =    -34.66838  eV     1   --> A              
     e(  8 -  8) =    -34.66489  eV     1   --> A              
     e(  9 -  9) =    -34.66078  eV     1   --> A              
     e( 10 - 10) =    -34.65538  eV     1   --> A              
     e( 11 - 11) =    -34.59540  eV     1   --> A              
     e( 12 - 12) =    -34.58739  eV     1   --> A              
     e( 13 - 13) =    -34.58049  eV     1   --> A              
     e( 14 - 14) =    -34.54845  eV     1   --> A              
     e( 15 - 15) =    -34.54804  eV     1   --> A              
     e( 16 - 16) =    -27.47008  eV     1   --> A              
     e( 17 - 17) =    -27.46989  eV     1   --> A              
     e( 18 - 18) =    -27.46622  eV     1   --> A              
     e( 19 - 19) =    -27.46601  eV     1   --> A              
     e( 20 - 20) =    -27.46197  eV     1   --> A              
     e( 21 - 21) =    -27.45862  eV     1   --> A              
     e( 22 - 22) =    -27.45816  eV     1   --> A              
     e( 23 - 23) =    -27.45729  eV     1   --> A              
     e( 24 - 24) =    -27.45481  eV     1   --> A              
     e( 25 - 25) =    -27.45347  eV     1   --> A              
     e( 26 - 26) =    -10.66092  eV     1   --> A              
     e( 27 - 27) =    -10.12747  eV     1   --> A              
     e( 28 - 28) =     -9.04729  eV     1   --> A              
     e( 29 - 29) =     -6.29848  eV     1   --> A              
     e( 30 - 30) =     -4.91240  eV     1   --> A              
     e( 31 - 31) =     -0.17859  eV     1   --> A              
     e( 32 - 32) =      0.08683  eV     1   --> A              
     e( 33 - 33) =      0.26145  eV     1   --> A              
     e( 34 - 34) =      0.32828  eV     1   --> A              
     e( 35 - 35) =      0.46005  eV     1   --> A              
     e( 36 - 36) =      0.79064  eV     1   --> A              
     e( 37 - 37) =      0.94079  eV     1   --> A              
     e( 38 - 38) =      1.04754  eV     1   --> A              
     e( 39 - 39) =      1.29729  eV     1   --> A              
     e( 40 - 40) =      2.31106  eV     1   --> A              
     e( 41 - 41) =      2.75646  eV     1   --> A              
     e( 42 - 42) =      2.84549  eV     1   --> A              
     e( 43 - 43) =      3.74980  eV     1   --> A              
     e( 44 - 44) =      3.86648  eV     1   --> A              
     e( 45 - 45) =      3.91138  eV     1   --> A              
     e( 46 - 46) =      6.21742  eV     1   --> A              
     e( 47 - 47) =      6.40797  eV     1   --> A              
     e( 48 - 48) =      6.98137  eV     1   --> A              
     e( 49 - 49) =      7.51797  eV     1   --> A              
     e( 50 - 50) =      7.61320  eV     1   --> A              
     e( 51 - 51) =      7.81898  eV     1   --> A              
     e( 52 - 52) =      8.40911  eV     1   --> A              
     e( 53 - 53) =      8.61688  eV     1   --> A              
     e( 54 - 54) =      8.75778  eV     1   --> A              
     e( 55 - 55) =      8.85274  eV     1   --> A              
     e( 56 - 56) =      9.13865  eV     1   --> A              
     e( 57 - 57) =      9.61436  eV     1   --> A              
     e( 58 - 58) =      9.70354  eV     1   --> A              
     e( 59 - 59) =     10.02048  eV     1   --> A              
     e( 60 - 60) =     10.13658  eV     1   --> A              
     e( 61 - 61) =     10.53883  eV     1   --> A              
     e( 62 - 62) =     11.04860  eV     1   --> A              
     e( 63 - 63) =     11.31819  eV     1   --> A              
     e( 64 - 64) =     11.38808  eV     1   --> A              
     e( 65 - 65) =     11.63579  eV     1   --> A              
     e( 66 - 66) =     11.70568  eV     1   --> A              
     e( 67 - 67) =     12.81013  eV     1   --> A              
     e( 68 - 68) =     12.87560  eV     1   --> A              
     e( 69 - 69) =     13.82458  eV     1   --> A              
     e( 70 - 70) =     14.06957  eV     1   --> A              
     e( 71 - 71) =     14.18226  eV     1   --> A              
     e( 72 - 72) =     14.29663  eV     1   --> A              
     e( 73 - 73) =     14.42049  eV     1   --> A              
     e( 74 - 74) =     15.09258  eV     1   --> A              
     e( 75 - 75) =     15.67353  eV     1   --> A              
     e( 76 - 76) =     15.94732  eV     1   --> A              
     e( 77 - 77) =     16.02218  eV     1   --> A              
     e( 78 - 78) =     16.19199  eV     1   --> A              
     e( 79 - 79) =     16.29143  eV     1   --> A              
     e( 80 - 80) =     16.36163  eV     1   --> A              
     e( 81 - 81) =     16.70225  eV     1   --> A              
     e( 82 - 82) =     16.87955  eV     1   --> A              
     e( 83 - 83) =     17.04692  eV     1   --> A              
     e( 84 - 84) =     17.24236  eV     1   --> A              
     e( 85 - 85) =     17.26245  eV     1   --> A              
     e( 86 - 86) =     17.37358  eV     1   --> A              
     e( 87 - 87) =     17.40822  eV     1   --> A              
     e( 88 - 88) =     17.52775  eV     1   --> A              
     e( 89 - 89) =     17.61496  eV     1   --> A              
     e( 90 - 90) =     17.68861  eV     1   --> A              
     e( 91 - 91) =     17.73630  eV     1   --> A              
     e( 92 - 92) =     17.89104  eV     1   --> A              
     e( 93 - 93) =     17.93653  eV     1   --> A              
     e( 94 - 94) =     18.20040  eV     1   --> A              
     e( 95 - 95) =     18.83300  eV     1   --> A              
     e( 96 - 96) =     18.95460  eV     1   --> A              
     e( 97 - 97) =     19.15144  eV     1   --> A              
     e( 98 - 98) =     19.31211  eV     1   --> A              
     e( 99 - 99) =     19.33121  eV     1   --> A              
     e(100 -100) =     19.37560  eV     1   --> A              

 **************************************************************************

 **************************************************************************

                    xk=(   0.02143,   0.01237,   0.00000  )

     Band symmetry, C_1 (1)     point group:

     e(  1 -  1) =    -34.70361  eV     1   --> A              
     e(  2 -  2) =    -34.70336  eV     1   --> A              
     e(  3 -  3) =    -34.69822  eV     1   --> A              
     e(  4 -  4) =    -34.69797  eV     1   --> A              
     e(  5 -  5) =    -34.67384  eV     1   --> A              
     e(  6 -  6) =    -34.67023  eV     1   --> A              
     e(  7 -  7) =    -34.66838  eV     1   --> A              
     e(  8 -  8) =    -34.66489  eV     1   --> A              
     e(  9 -  9) =    -34.66078  eV     1   --> A              
     e( 10 - 10) =    -34.65538  eV     1   --> A              
     e( 11 - 11) =    -34.59540  eV     1   --> A              
     e( 12 - 12) =    -34.58739  eV     1   --> A              
     e( 13 - 13) =    -34.58049  eV     1   --> A              
     e( 14 - 14) =    -34.54845  eV     1   --> A              
     e( 15 - 15) =    -34.54804  eV     1   --> A              
     e( 16 - 16) =    -27.47008  eV     1   --> A              
     e( 17 - 17) =    -27.46989  eV     1   --> A              
     e( 18 - 18) =    -27.46621  eV     1   --> A              
     e( 19 - 19) =    -27.46601  eV     1   --> A              
     e( 20 - 20) =    -27.46197  eV     1   --> A              
     e( 21 - 21) =    -27.45863  eV     1   --> A              
     e( 22 - 22) =    -27.45816  eV     1   --> A              
     e( 23 - 23) =    -27.45729  eV     1   --> A              
     e( 24 - 24) =    -27.45482  eV     1   --> A              
     e( 25 - 25) =    -27.45347  eV     1   --> A              
     e( 26 - 26) =    -10.65877  eV     1   --> A              
     e( 27 - 27) =    -10.12548  eV     1   --> A              
     e( 28 - 28) =     -9.04608  eV     1   --> A              
     e( 29 - 29) =     -6.29881  eV     1   --> A              
     e( 30 - 30) =     -4.91626  eV     1   --> A              
     e( 31 - 31) =     -0.18512  eV     1   --> A              
     e( 32 - 32) =      0.06130  eV     1   --> A              
     e( 33 - 33) =      0.24397  eV     1   --> A              
     e( 34 - 34) =      0.31533  eV     1   --> A              
     e( 35 - 35) =      0.45651  eV     1   --> A              
     e( 36 - 36) =      0.79361  eV     1   --> A              
     e( 37 - 37) =      0.93799  eV     1   --> A              
     e( 38 - 38) =      1.05128  eV     1   --> A              
     e( 39 - 39) =      1.31951  eV     1   --> A              
     e( 40 - 40) =      2.34036  eV     1   --> A              
     e( 41 - 41) =      2.73806  eV     1   --> A              
     e( 42 - 42) =      2.84817  eV     1   --> A              
     e( 43 - 43) =      3.76983  eV     1   --> A              
     e( 44 - 44) =      3.86621  eV     1   --> A              
     e( 45 - 45) =      3.91329  eV     1   --> A              
     e( 46 - 46) =      6.22139  eV     1   --> A              
     e( 47 - 47) =      6.40873  eV     1   --> A              
     e( 48 - 48) =      6.98212  eV     1   --> A              
     e( 49 - 49) =      7.50344  eV     1   --> A              
     e( 50 - 50) =      7.61338  eV     1   --> A              
     e( 51 - 51) =      7.82133  eV     1   --> A              
     e( 52 - 52) =      8.42302  eV     1   --> A              
     e( 53 - 53) =      8.61037  eV     1   --> A              
     e( 54 - 54) =      8.74277  eV     1   --> A              
     e( 55 - 55) =      8.86197  eV     1   --> A              
     e( 56 - 56) =      9.13442  eV     1   --> A              
     e( 57 - 57) =      9.63941  eV     1   --> A              
     e( 58 - 58) =      9.71461  eV     1   --> A              
     e( 59 - 59) =     10.01463  eV     1   --> A              
     e( 60 - 60) =     10.14863  eV     1   --> A              
     e( 61 - 61) =     10.55099  eV     1   --> A              
     e( 62 - 62) =     11.04248  eV     1   --> A              
     e( 63 - 63) =     11.29374  eV     1   --> A              
     e( 64 - 64) =     11.34653  eV     1   --> A              
     e( 65 - 65) =     11.69792  eV     1   --> A              
     e( 66 - 66) =     11.73584  eV     1   --> A              
     e( 67 - 67) =     12.80669  eV     1   --> A              
     e( 68 - 68) =     12.88190  eV     1   --> A              
     e( 69 - 69) =     13.77901  eV     1   --> A              
     e( 70 - 70) =     14.02680  eV     1   --> A              
     e( 71 - 71) =     14.20727  eV     1   --> A              
     e( 72 - 72) =     14.33393  eV     1   --> A              
     e( 73 - 73) =     14.44496  eV     1   --> A              
     e( 74 - 74) =     15.09973  eV     1   --> A              
     e( 75 - 75) =     15.61088  eV     1   --> A              
     e( 76 - 76) =     15.90480  eV     1   --> A              
     e( 77 - 77) =     16.00145  eV     1   --> A              
     e( 78 - 78) =     16.25332  eV     1   --> A              
     e( 79 - 79) =     16.31892  eV     1   --> A              
     e( 80 - 80) =     16.38178  eV     1   --> A              
     e( 81 - 81) =     16.70593  eV     1   --> A              
     e( 82 - 82) =     16.78001  eV     1   --> A              
     e( 83 - 83) =     16.96379  eV     1   --> A              
     e( 84 - 84) =     17.18618  eV     1   --> A              
     e( 85 - 85) =     17.23343  eV     1   --> A              
     e( 86 - 86) =     17.37564  eV     1   --> A              
     e( 87 - 87) =     17.46088  eV     1   --> A              
     e( 88 - 88) =     17.50660  eV     1   --> A              
     e( 89 - 89) =     17.66888  eV     1   --> A              
     e( 90 - 90) =     17.68874  eV     1   --> A              
     e( 91 - 91) =     17.83493  eV     1   --> A              
     e( 92 - 92) =     17.96254  eV     1   --> A              
     e( 93 - 93) =     17.99000  eV     1   --> A              
     e( 94 - 94) =     18.24432  eV     1   --> A              
     e( 95 - 95) =     18.72121  eV     1   --> A              
     e( 96 - 96) =     18.84951  eV     1   --> A              
     e( 97 - 97) =     19.08606  eV     1   --> A              
     e( 98 - 98) =     19.29225  eV     1   --> A              
     e( 99 - 99) =     19.34929  eV     1   --> A              
     e(100 -100) =     19.39752  eV     1   --> A              

 **************************************************************************

 **************************************************************************

                    xk=(   0.02857,   0.01650,   0.00000  )

     Band symmetry, C_1 (1)     point group:

     e(  1 -  1) =    -34.70361  eV     1   --> A              
     e(  2 -  2) =    -34.70336  eV     1   --> A              
     e(  3 -  3) =    -34.69821  eV     1   --> A              
     e(  4 -  4) =    -34.69797  eV     1   --> A              
     e(  5 -  5) =    -34.67384  eV     1   --> A              
     e(  6 -  6) =    -34.67023  eV     1   --> A              
     e(  7 -  7) =    -34.66838  eV     1   --> A              
     e(  8 -  8) =    -34.66489  eV     1   --> A              
     e(  9 -  9) =    -34.66078  eV     1   --> A              
     e( 10 - 10) =    -34.65538  eV     1   --> A              
     e( 11 - 11) =    -34.59539  eV     1   --> A              
     e( 12 - 12) =    -34.58739  eV     1   --> A              
     e( 13 - 13) =    -34.58049  eV     1   --> A              
     e( 14 - 14) =    -34.54845  eV     1   --> A              
     e( 15 - 15) =    -34.54804  eV     1   --> A              
     e( 16 - 16) =    -27.47007  eV     1   --> A              
     e( 17 - 17) =    -27.46988  eV     1   --> A              
     e( 18 - 18) =    -27.46620  eV     1   --> A              
     e( 19 - 19) =    -27.46601  eV     1   --> A              
     e( 20 - 20) =    -27.46197  eV     1   --> A              
     e( 21 - 21) =    -27.45864  eV     1   --> A              
     e( 22 - 22) =    -27.45815  eV     1   --> A              
     e( 23 - 23) =    -27.45729  eV     1   --> A              
     e( 24 - 24) =    -27.45482  eV     1   --> A              
     e( 25 - 25) =    -27.45347  eV     1   --> A              
     e( 26 - 26) =    -10.65577  eV     1   --> A              
     e( 27 - 27) =    -10.12272  eV     1   --> A              
     e( 28 - 28) =     -9.04438  eV     1   --> A              
     e( 29 - 29) =     -6.29927  eV     1   --> A              
     e( 30 - 30) =     -4.92171  eV     1   --> A              
     e( 31 - 31) =     -0.19506  eV     1   --> A              
     e( 32 - 32) =      0.02744  eV     1   --> A              
     e( 33 - 33) =      0.22301  eV     1   --> A              
     e( 34 - 34) =      0.29711  eV     1   --> A              
     e( 35 - 35) =      0.45231  eV     1   --> A              
     e( 36 - 36) =      0.78695  eV     1   --> A              
     e( 37 - 37) =      0.94252  eV     1   --> A              
     e( 38 - 38) =      1.05623  eV     1   --> A              
     e( 39 - 39) =      1.34961  eV     1   --> A              
     e( 40 - 40) =      2.37914  eV     1   --> A              
     e( 41 - 41) =      2.71375  eV     1   --> A              
     e( 42 - 42) =      2.85293  eV     1   --> A              
     e( 43 - 43) =      3.79383  eV     1   --> A              
     e( 44 - 44) =      3.86503  eV     1   --> A              
     e( 45 - 45) =      3.91903  eV     1   --> A              
     e( 46 - 46) =      6.22692  eV     1   --> A              
     e( 47 - 47) =      6.40978  eV     1   --> A              
     e( 48 - 48) =      6.98299  eV     1   --> A              
     e( 49 - 49) =      7.48372  eV     1   --> A              
     e( 50 - 50) =      7.61390  eV     1   --> A              
     e( 51 - 51) =      7.82520  eV     1   --> A              
     e( 52 - 52) =      8.44100  eV     1   --> A              
     e( 53 - 53) =      8.59962  eV     1   --> A              
     e( 54 - 54) =      8.72551  eV     1   --> A              
     e( 55 - 55) =      8.87558  eV     1   --> A              
     e( 56 - 56) =      9.12943  eV     1   --> A              
     e( 57 - 57) =      9.66955  eV     1   --> A              
     e( 58 - 58) =      9.72936  eV     1   --> A              
     e( 59 - 59) =     10.00847  eV     1   --> A              
     e( 60 - 60) =     10.16562  eV     1   --> A              
     e( 61 - 61) =     10.56830  eV     1   --> A              
     e( 62 - 62) =     11.03094  eV     1   --> A              
     e( 63 - 63) =     11.26251  eV     1   --> A              
     e( 64 - 64) =     11.31607  eV     1   --> A              
     e( 65 - 65) =     11.75835  eV     1   --> A              
     e( 66 - 66) =     11.77618  eV     1   --> A              
     e( 67 - 67) =     12.80231  eV     1   --> A              
     e( 68 - 68) =     12.89029  eV     1   --> A              
     e( 69 - 69) =     13.72773  eV     1   --> A              
     e( 70 - 70) =     13.98283  eV     1   --> A              
     e( 71 - 71) =     14.22647  eV     1   --> A              
     e( 72 - 72) =     14.37393  eV     1   --> A              
     e( 73 - 73) =     14.48055  eV     1   --> A              
     e( 74 - 74) =     15.09763  eV     1   --> A              
     e( 75 - 75) =     15.55607  eV     1   --> A              
     e( 76 - 76) =     15.86116  eV     1   --> A              
     e( 77 - 77) =     15.97710  eV     1   --> A              
     e( 78 - 78) =     16.29157  eV     1   --> A              
     e( 79 - 79) =     16.33921  eV     1   --> A              
     e( 80 - 80) =     16.42262  eV     1   --> A              
     e( 81 - 81) =     16.63888  eV     1   --> A              
     e( 82 - 82) =     16.76343  eV     1   --> A              
     e( 83 - 83) =     16.86823  eV     1   --> A              
     e( 84 - 84) =     17.12758  eV     1   --> A              
     e( 85 - 85) =     17.21471  eV     1   --> A              
     e( 86 - 86) =     17.33920  eV     1   --> A              
     e( 87 - 87) =     17.43105  eV     1   --> A              
     e( 88 - 88) =     17.59200  eV     1   --> A              
     e( 89 - 89) =     17.66955  eV     1   --> A              
     e( 90 - 90) =     17.74989  eV     1   --> A              
     e( 91 - 91) =     17.93452  eV     1   --> A              
     e( 92 - 92) =     18.05326  eV     1   --> A              
     e( 93 - 93) =     18.05553  eV     1   --> A              
     e( 94 - 94) =     18.29337  eV     1   --> A              
     e( 95 - 95) =     18.61887  eV     1   --> A              
     e( 96 - 96) =     18.73546  eV     1   --> A              
     e( 97 - 97) =     19.02063  eV     1   --> A              
     e( 98 - 98) =     19.24475  eV     1   --> A              
     e( 99 - 99) =     19.32537  eV     1   --> A              
     e(100 -100) =     19.39299  eV     1   --> A              

 **************************************************************************

 **************************************************************************

                    xk=(   0.03571,   0.02062,   0.00000  )

     Band symmetry, C_1 (1)     point group:

     e(  1 -  1) =    -34.70360  eV     1   --> A              
     e(  2 -  2) =    -34.70336  eV     1   --> A              
     e(  3 -  3) =    -34.69821  eV     1   --> A              
     e(  4 -  4) =    -34.69797  eV     1   --> A              
     e(  5 -  5) =    -34.67385  eV     1   --> A              
     e(  6 -  6) =    -34.67023  eV     1   --> A              
     e(  7 -  7) =    -34.66838  eV     1   --> A              
     e(  8 -  8) =    -34.66489  eV     1   --> A              
     e(  9 -  9) =    -34.66078  eV     1   --> A              
     e( 10 - 10) =    -34.65538  eV     1   --> A              
     e( 11 - 11) =    -34.59539  eV     1   --> A              
     e( 12 - 12) =    -34.58739  eV     1   --> A              
     e( 13 - 13) =    -34.58049  eV     1   --> A              
     e( 14 - 14) =    -34.54845  eV     1   --> A              
     e( 15 - 15) =    -34.54804  eV     1   --> A              
     e( 16 - 16) =    -27.47005  eV     1   --> A              
     e( 17 - 17) =    -27.46988  eV     1   --> A              
     e( 18 - 18) =    -27.46619  eV     1   --> A              
     e( 19 - 19) =    -27.46600  eV     1   --> A              
     e( 20 - 20) =    -27.46196  eV     1   --> A              
     e( 21 - 21) =    -27.45865  eV     1   --> A              
     e( 22 - 22) =    -27.45814  eV     1   --> A              
     e( 23 - 23) =    -27.45729  eV     1   --> A              
     e( 24 - 24) =    -27.45483  eV     1   --> A              
     e( 25 - 25) =    -27.45347  eV     1   --> A              
     e( 26 - 26) =    -10.65191  eV     1   --> A              
     e( 27 - 27) =    -10.11919  eV     1   --> A              
     e( 28 - 28) =     -9.04224  eV     1   --> A              
     e( 29 - 29) =     -6.29993  eV     1   --> A              
     e( 30 - 30) =     -4.92873  eV     1   --> A              
     e( 31 - 31) =     -0.20940  eV     1   --> A              
     e( 32 - 32) =     -0.01267  eV     1   --> A              
     e( 33 - 33) =      0.19987  eV     1   --> A              
     e( 34 - 34) =      0.27488  eV     1   --> A              
     e( 35 - 35) =      0.44734  eV     1   --> A              
     e( 36 - 36) =      0.76562  eV     1   --> A              
     e( 37 - 37) =      0.95879  eV     1   --> A              
     e( 38 - 38) =      1.06226  eV     1   --> A              
     e( 39 - 39) =      1.38579  eV     1   --> A              
     e( 40 - 40) =      2.42546  eV     1   --> A              
     e( 41 - 41) =      2.68567  eV     1   --> A              
     e( 42 - 42) =      2.85979  eV     1   --> A              
     e( 43 - 43) =      3.81574  eV     1   --> A              
     e( 44 - 44) =      3.86524  eV     1   --> A              
     e( 45 - 45) =      3.93108  eV     1   --> A              
     e( 46 - 46) =      6.23396  eV     1   --> A              
     e( 47 - 47) =      6.41108  eV     1   --> A              
     e( 48 - 48) =      6.98377  eV     1   --> A              
     e( 49 - 49) =      7.45969  eV     1   --> A              
     e( 50 - 50) =      7.61480  eV     1   --> A              
     e( 51 - 51) =      7.83089  eV     1   --> A              
     e( 52 - 52) =      8.46183  eV     1   --> A              
     e( 53 - 53) =      8.58317  eV     1   --> A              
     e( 54 - 54) =      8.70996  eV     1   --> A              
     e( 55 - 55) =      8.89300  eV     1   --> A              
     e( 56 - 56) =      9.12426  eV     1   --> A              
     e( 57 - 57) =      9.70073  eV     1   --> A              
     e( 58 - 58) =      9.74696  eV     1   --> A              
     e( 59 - 59) =     10.00454  eV     1   --> A              
     e( 60 - 60) =     10.18757  eV     1   --> A              
     e( 61 - 61) =     10.59096  eV     1   --> A              
     e( 62 - 62) =     11.01205  eV     1   --> A              
     e( 63 - 63) =     11.23020  eV     1   --> A              
     e( 64 - 64) =     11.29570  eV     1   --> A              
     e( 65 - 65) =     11.80797  eV     1   --> A              
     e( 66 - 66) =     11.83240  eV     1   --> A              
     e( 67 - 67) =     12.79716  eV     1   --> A              
     e( 68 - 68) =     12.90060  eV     1   --> A              
     e( 69 - 69) =     13.67440  eV     1   --> A              
     e( 70 - 70) =     13.93906  eV     1   --> A              
     e( 71 - 71) =     14.23909  eV     1   --> A              
     e( 72 - 72) =     14.41685  eV     1   --> A              
     e( 73 - 73) =     14.52359  eV     1   --> A              
     e( 74 - 74) =     15.07566  eV     1   --> A              
     e( 75 - 75) =     15.52361  eV     1   --> A              
     e( 76 - 76) =     15.81782  eV     1   --> A              
     e( 77 - 77) =     15.94786  eV     1   --> A              
     e( 78 - 78) =     16.29160  eV     1   --> A              
     e( 79 - 79) =     16.36081  eV     1   --> A              
     e( 80 - 80) =     16.47332  eV     1   --> A              
     e( 81 - 81) =     16.55196  eV     1   --> A              
     e( 82 - 82) =     16.72371  eV     1   --> A              
     e( 83 - 83) =     16.84141  eV     1   --> A              
     e( 84 - 84) =     17.07341  eV     1   --> A              
     e( 85 - 85) =     17.18959  eV     1   --> A              
     e( 86 - 86) =     17.29949  eV     1   --> A              
     e( 87 - 87) =     17.38898  eV     1   --> A              
     e( 88 - 88) =     17.66489  eV     1   --> A              
     e( 89 - 89) =     17.68522  eV     1   --> A              
     e( 90 - 90) =     17.83542  eV     1   --> A              
     e( 91 - 91) =     18.02026  eV     1   --> A              
     e( 92 - 92) =     18.12211  eV     1   --> A              
     e( 93 - 93) =     18.16022  eV     1   --> A              
     e( 94 - 94) =     18.33430  eV     1   --> A              
     e( 95 - 95) =     18.54690  eV     1   --> A              
     e( 96 - 96) =     18.61800  eV     1   --> A              
     e( 97 - 97) =     18.95617  eV     1   --> A              
     e( 98 - 98) =     19.19421  eV     1   --> A              
     e( 99 - 99) =     19.28658  eV     1   --> A              
     e(100 -100) =     19.35420  eV     1   --> A              

 **************************************************************************

 **************************************************************************

                    xk=(   0.04286,   0.02474,   0.00000  )

     Band symmetry, C_1 (1)     point group:

     e(  1 -  1) =    -34.70360  eV     1   --> A              
     e(  2 -  2) =    -34.70336  eV     1   --> A              
     e(  3 -  3) =    -34.69820  eV     1   --> A              
     e(  4 -  4) =    -34.69797  eV     1   --> A              
     e(  5 -  5) =    -34.67385  eV     1   --> A              
     e(  6 -  6) =    -34.67023  eV     1   --> A              
     e(  7 -  7) =    -34.66838  eV     1   --> A              
     e(  8 -  8) =    -34.66489  eV     1   --> A              
     e(  9 -  9) =    -34.66077  eV     1   --> A              
     e( 10 - 10) =    -34.65537  eV     1   --> A              
     e( 11 - 11) =    -34.59539  eV     1   --> A              
     e( 12 - 12) =    -34.58740  eV     1   --> A              
     e( 13 - 13) =    -34.58049  eV     1   --> A              
     e( 14 - 14) =    -34.54844  eV     1   --> A              
     e( 15 - 15) =    -34.54804  eV     1   --> A              
     e( 16 - 16) =    -27.47004  eV     1   --> A              
     e( 17 - 17) =    -27.46988  eV     1   --> A              
     e( 18 - 18) =    -27.46618  eV     1   --> A              
     e( 19 - 19) =    -27.46600  eV     1   --> A              
     e( 20 - 20) =    -27.46195  eV     1   --> A              
     e( 21 - 21) =    -27.45866  eV     1   --> A              
     e( 22 - 22) =    -27.45814  eV     1   --> A              
     e( 23 - 23) =    -27.45730  eV     1   --> A              
     e( 24 - 24) =    -27.45484  eV     1   --> A              
     e( 25 - 25) =    -27.45347  eV     1   --> A              
     e( 26 - 26) =    -10.64719  eV     1   --> A              
     e( 27 - 27) =    -10.11486  eV     1   --> A              
     e( 28 - 28) =     -9.03961  eV     1   --> A              
     e( 29 - 29) =     -6.30073  eV     1   --> A              
     e( 30 - 30) =     -4.93729  eV     1   --> A              
     e( 31 - 31) =     -0.22968  eV     1   --> A              
     e( 32 - 32) =     -0.05633  eV     1   --> A              
     e( 33 - 33) =      0.17545  eV     1   --> A              
     e( 34 - 34) =      0.25005  eV     1   --> A              
     e( 35 - 35) =      0.44135  eV     1   --> A              
     e( 36 - 36) =      0.73110  eV     1   --> A              
     e( 37 - 37) =      0.98531  eV     1   --> A              
     e( 38 - 38) =      1.06932  eV     1   --> A              
     e( 39 - 39) =      1.42579  eV     1   --> A              
     e( 40 - 40) =      2.47663  eV     1   --> A              
     e( 41 - 41) =      2.65692  eV     1   --> A              
     e( 42 - 42) =      2.86864  eV     1   --> A              
     e( 43 - 43) =      3.82471  eV     1   --> A              
     e( 44 - 44) =      3.87408  eV     1   --> A              
     e( 45 - 45) =      3.95190  eV     1   --> A              
     e( 46 - 46) =      6.24248  eV     1   --> A              
     e( 47 - 47) =      6.41261  eV     1   --> A              
     e( 48 - 48) =      6.98418  eV     1   --> A              
     e( 49 - 49) =      7.43249  eV     1   --> A              
     e( 50 - 50) =      7.61601  eV     1   --> A              
     e( 51 - 51) =      7.83855  eV     1   --> A              
     e( 52 - 52) =      8.48383  eV     1   --> A              
     e( 53 - 53) =      8.56100  eV     1   --> A              
     e( 54 - 54) =      8.69892  eV     1   --> A              
     e( 55 - 55) =      8.91361  eV     1   --> A              
     e( 56 - 56) =      9.11948  eV     1   --> A              
     e( 57 - 57) =      9.72810  eV     1   --> A              
     e( 58 - 58) =      9.76659  eV     1   --> A              
     e( 59 - 59) =     10.00662  eV     1   --> A              
     e( 60 - 60) =     10.21433  eV     1   --> A              
     e( 61 - 61) =     10.61915  eV     1   --> A              
     e( 62 - 62) =     10.98537  eV     1   --> A              
     e( 63 - 63) =     11.20096  eV     1   --> A              
     e( 64 - 64) =     11.28344  eV     1   --> A              
     e( 65 - 65) =     11.85414  eV     1   --> A              
     e( 66 - 66) =     11.89476  eV     1   --> A              
     e( 67 - 67) =     12.79136  eV     1   --> A              
     e( 68 - 68) =     12.91273  eV     1   --> A              
     e( 69 - 69) =     13.62140  eV     1   --> A              
     e( 70 - 70) =     13.89617  eV     1   --> A              
     e( 71 - 71) =     14.24791  eV     1   --> A              
     e( 72 - 72) =     14.46143  eV     1   --> A              
     e( 73 - 73) =     14.56940  eV     1   --> A              
     e( 74 - 74) =     15.02968  eV     1   --> A              
     e( 75 - 75) =     15.51908  eV     1   --> A              
     e( 76 - 76) =     15.77628  eV     1   --> A              
     e( 77 - 77) =     15.91247  eV     1   --> A              
     e( 78 - 78) =     16.25786  eV     1   --> A              
     e( 79 - 79) =     16.37026  eV     1   --> A              
     e( 80 - 80) =     16.48192  eV     1   --> A              
     e( 81 - 81) =     16.52765  eV     1   --> A              
     e( 82 - 82) =     16.63645  eV     1   --> A              
     e( 83 - 83) =     16.88451  eV     1   --> A              
     e( 84 - 84) =     17.02964  eV     1   --> A              
     e( 85 - 85) =     17.15429  eV     1   --> A              
     e( 86 - 86) =     17.25887  eV     1   --> A              
     e( 87 - 87) =     17.34917  eV     1   --> A              
     e( 88 - 88) =     17.67520  eV     1   --> A              
     e( 89 - 89) =     17.77108  eV     1   --> A              
     e( 90 - 90) =     17.92626  eV     1   --> A              
     e( 91 - 91) =     18.08857  eV     1   --> A              
     e( 92 - 92) =     18.16975  eV     1   --> A              
     e( 93 - 93) =     18.27091  eV     1   --> A              
     e( 94 - 94) =     18.35809  eV     1   --> A              
     e( 95 - 95) =     18.49911  eV     1   --> A              
     e( 96 - 96) =     18.54547  eV     1   --> A              
     e( 97 - 97) =     18.89305  eV     1   --> A              
     e( 98 - 98) =     19.14324  eV     1   --> A              
     e( 99 - 99) =     19.24337  eV     1   --> A              
     e(100 -100) =     19.30572  eV     1   --> A              

 **************************************************************************

 **************************************************************************

                    xk=(   0.05000,   0.02887,   0.00000  )

     Band symmetry, C_1 (1)     point group:

     e(  1 -  1) =    -34.70359  eV     1   --> A              
     e(  2 -  2) =    -34.70336  eV     1   --> A              
     e(  3 -  3) =    -34.69820  eV     1   --> A              
     e(  4 -  4) =    -34.69796  eV     1   --> A              
     e(  5 -  5) =    -34.67385  eV     1   --> A              
     e(  6 -  6) =    -34.67023  eV     1   --> A              
     e(  7 -  7) =    -34.66839  eV     1   --> A              
     e(  8 -  8) =    -34.66489  eV     1   --> A              
     e(  9 -  9) =    -34.66077  eV     1   --> A              
     e( 10 - 10) =    -34.65537  eV     1   --> A              
     e( 11 - 11) =    -34.59538  eV     1   --> A              
     e( 12 - 12) =    -34.58740  eV     1   --> A              
     e( 13 - 13) =    -34.58049  eV     1   --> A              
     e( 14 - 14) =    -34.54844  eV     1   --> A              
     e( 15 - 15) =    -34.54803  eV     1   --> A              
     e( 16 - 16) =    -27.47002  eV     1   --> A              
     e( 17 - 17) =    -27.46988  eV     1   --> A              
     e( 18 - 18) =    -27.46616  eV     1   --> A              
     e( 19 - 19) =    -27.46600  eV     1   --> A              
     e( 20 - 20) =    -27.46194  eV     1   --> A              
     e( 21 - 21) =    -27.45868  eV     1   --> A              
     e( 22 - 22) =    -27.45813  eV     1   --> A              
     e( 23 - 23) =    -27.45730  eV     1   --> A              
     e( 24 - 24) =    -27.45486  eV     1   --> A              
     e( 25 - 25) =    -27.45348  eV     1   --> A              
     e( 26 - 26) =    -10.64160  eV     1   --> A              
     e( 27 - 27) =    -10.10975  eV     1   --> A              
     e( 28 - 28) =     -9.03652  eV     1   --> A              
     e( 29 - 29) =     -6.30169  eV     1   --> A              
     e( 30 - 30) =     -4.94738  eV     1   --> A              
     e( 31 - 31) =     -0.25802  eV     1   --> A              
     e( 32 - 32) =     -0.10026  eV     1   --> A              
     e( 33 - 33) =      0.15043  eV     1   --> A              
     e( 34 - 34) =      0.22368  eV     1   --> A              
     e( 35 - 35) =      0.43410  eV     1   --> A              
     e( 36 - 36) =      0.68735  eV     1   --> A              
     e( 37 - 37) =      1.01830  eV     1   --> A              
     e( 38 - 38) =      1.07751  eV     1   --> A              
     e( 39 - 39) =      1.46717  eV     1   --> A              
     e( 40 - 40) =      2.52649  eV     1   --> A              
     e( 41 - 41) =      2.63423  eV     1   --> A              
     e( 42 - 42) =      2.87936  eV     1   --> A              
     e( 43 - 43) =      3.81975  eV     1   --> A              
     e( 44 - 44) =      3.89046  eV     1   --> A              
     e( 45 - 45) =      3.98262  eV     1   --> A              
     e( 46 - 46) =      6.25241  eV     1   --> A              
     e( 47 - 47) =      6.41432  eV     1   --> A              
     e( 48 - 48) =      6.98382  eV     1   --> A              
     e( 49 - 49) =      7.40344  eV     1   --> A              
     e( 50 - 50) =      7.61748  eV     1   --> A              
     e( 51 - 51) =      7.84825  eV     1   --> A              
     e( 52 - 52) =      8.50152  eV     1   --> A              
     e( 53 - 53) =      8.53890  eV     1   --> A              
     e( 54 - 54) =      8.69285  eV     1   --> A              
     e( 55 - 55) =      8.93681  eV     1   --> A              
     e( 56 - 56) =      9.11563  eV     1   --> A              
     e( 57 - 57) =      9.74567  eV     1   --> A              
     e( 58 - 58) =      9.78868  eV     1   --> A              
     e( 59 - 59) =     10.01893  eV     1   --> A              
     e( 60 - 60) =     10.24555  eV     1   --> A              
     e( 61 - 61) =     10.65296  eV     1   --> A              
     e( 62 - 62) =     10.95254  eV     1   --> A              
     e( 63 - 63) =     11.17546  eV     1   --> A              
     e( 64 - 64) =     11.27820  eV     1   --> A              
     e( 65 - 65) =     11.90159  eV     1   --> A              
     e( 66 - 66) =     11.95663  eV     1   --> A              
     e( 67 - 67) =     12.78505  eV     1   --> A              
     e( 68 - 68) =     12.92653  eV     1   --> A              
     e( 69 - 69) =     13.57048  eV     1   --> A              
     e( 70 - 70) =     13.85460  eV     1   --> A              
     e( 71 - 71) =     14.25595  eV     1   --> A              
     e( 72 - 72) =     14.50550  eV     1   --> A              
     e( 73 - 73) =     14.61233  eV     1   --> A              
     e( 74 - 74) =     14.96809  eV     1   --> A              
     e( 75 - 75) =     15.53515  eV     1   --> A              
     e( 76 - 76) =     15.73802  eV     1   --> A              
     e( 77 - 77) =     15.87005  eV     1   --> A              
     e( 78 - 78) =     16.19480  eV     1   --> A              
     e( 79 - 79) =     16.37026  eV     1   --> A              
     e( 80 - 80) =     16.41218  eV     1   --> A              
     e( 81 - 81) =     16.56532  eV     1   --> A              
     e( 82 - 82) =     16.59338  eV     1   --> A              
     e( 83 - 83) =     16.91242  eV     1   --> A              
     e( 84 - 84) =     17.01949  eV     1   --> A              
     e( 85 - 85) =     17.11249  eV     1   --> A              
     e( 86 - 86) =     17.22038  eV     1   --> A              
     e( 87 - 87) =     17.31014  eV     1   --> A              
     e( 88 - 88) =     17.70031  eV     1   --> A              
     e( 89 - 89) =     17.84996  eV     1   --> A              
     e( 90 - 90) =     18.01473  eV     1   --> A              
     e( 91 - 91) =     18.09479  eV     1   --> A              
     e( 92 - 92) =     18.20941  eV     1   --> A              
     e( 93 - 93) =     18.36475  eV     1   --> A              
     e( 94 - 94) =     18.39211  eV     1   --> A              
     e( 95 - 95) =     18.41802  eV     1   --> A              
     e( 96 - 96) =     18.60427  eV     1   --> A              
     e( 97 - 97) =     18.83188  eV     1   --> A              
     e( 98 - 98) =     19.09349  eV     1   --> A              
     e( 99 - 99) =     19.20058  eV     1   --> A              
     e(100 -100) =     19.25516  eV     1   --> A              

 **************************************************************************

 **************************************************************************

                    xk=(   0.05714,   0.03299,   0.00000  )

     Band symmetry, C_1 (1)     point group:

     e(  1 -  1) =    -34.70359  eV     1   --> A              
     e(  2 -  2) =    -34.70335  eV     1   --> A              
     e(  3 -  3) =    -34.69819  eV     1   --> A              
     e(  4 -  4) =    -34.69796  eV     1   --> A              
     e(  5 -  5) =    -34.67385  eV     1   --> A              
     e(  6 -  6) =    -34.67023  eV     1   --> A              
     e(  7 -  7) =    -34.66839  eV     1   --> A              
     e(  8 -  8) =    -34.66489  eV     1   --> A              
     e(  9 -  9) =    -34.66077  eV     1   --> A              
     e( 10 - 10) =    -34.65536  eV     1   --> A              
     e( 11 - 11) =    -34.59538  eV     1   --> A              
     e( 12 - 12) =    -34.58740  eV     1   --> A              
     e( 13 - 13) =    -34.58049  eV     1   --> A              
     e( 14 - 14) =    -34.54843  eV     1   --> A              
     e( 15 - 15) =    -34.54803  eV     1   --> A              
     e( 16 - 16) =    -27.47000  eV     1   --> A              
     e( 17 - 17) =    -27.46987  eV     1   --> A              
     e( 18 - 18) =    -27.46614  eV     1   --> A              
     e( 19 - 19) =    -27.46599  eV     1   --> A              
     e( 20 - 20) =    -27.46194  eV     1   --> A              
     e( 21 - 21) =    -27.45869  eV     1   --> A              
     e( 22 - 22) =    -27.45812  eV     1   --> A              
     e( 23 - 23) =    -27.45730  eV     1   --> A              
     e( 24 - 24) =    -27.45487  eV     1   --> A              
     e( 25 - 25) =    -27.45348  eV     1   --> A              
     e( 26 - 26) =    -10.63516  eV     1   --> A              
     e( 27 - 27) =    -10.10385  eV     1   --> A              
     e( 28 - 28) =     -9.03295  eV     1   --> A              
     e( 29 - 29) =     -6.30284  eV     1   --> A              
     e( 30 - 30) =     -4.95902  eV     1   --> A              
     e( 31 - 31) =     -0.29645  eV     1   --> A              
     e( 32 - 32) =     -0.14145  eV     1   --> A              
     e( 33 - 33) =      0.12532  eV     1   --> A              
     e( 34 - 34) =      0.19648  eV     1   --> A              
     e( 35 - 35) =      0.42544  eV     1   --> A              
     e( 36 - 36) =      0.63765  eV     1   --> A              
     e( 37 - 37) =      1.05389  eV     1   --> A              
     e( 38 - 38) =      1.08787  eV     1   --> A              
     e( 39 - 39) =      1.50744  eV     1   --> A              
     e( 40 - 40) =      2.55212  eV     1   --> A              
     e( 41 - 41) =      2.64122  eV     1   --> A              
     e( 42 - 42) =      2.89187  eV     1   --> A              
     e( 43 - 43) =      3.80890  eV     1   --> A              
     e( 44 - 44) =      3.90745  eV     1   --> A              
     e( 45 - 45) =      4.02146  eV     1   --> A              
     e( 46 - 46) =      6.26370  eV     1   --> A              
     e( 47 - 47) =      6.41616  eV     1   --> A              
     e( 48 - 48) =      6.98215  eV     1   --> A              
     e( 49 - 49) =      7.37393  eV     1   --> A              
     e( 50 - 50) =      7.61912  eV     1   --> A              
     e( 51 - 51) =      7.85995  eV     1   --> A              
     e( 52 - 52) =      8.48976  eV     1   --> A              
     e( 53 - 53) =      8.54351  eV     1   --> A              
     e( 54 - 54) =      8.69061  eV     1   --> A              
     e( 55 - 55) =      8.96207  eV     1   --> A              
     e( 56 - 56) =      9.11331  eV     1   --> A              
     e( 57 - 57) =      9.74968  eV     1   --> A              
     e( 58 - 58) =      9.81392  eV     1   --> A              
     e( 59 - 59) =     10.04373  eV     1   --> A              
     e( 60 - 60) =     10.28054  eV     1   --> A              
     e( 61 - 61) =     10.69239  eV     1   --> A              
     e( 62 - 62) =     10.91642  eV     1   --> A              
     e( 63 - 63) =     11.15328  eV     1   --> A              
     e( 64 - 64) =     11.27859  eV     1   --> A              
     e( 65 - 65) =     11.95027  eV     1   --> A              
     e( 66 - 66) =     12.01646  eV     1   --> A              
     e( 67 - 67) =     12.77844  eV     1   --> A              
     e( 68 - 68) =     12.94180  eV     1   --> A              
     e( 69 - 69) =     13.52321  eV     1   --> A              
     e( 70 - 70) =     13.81468  eV     1   --> A              
     e( 71 - 71) =     14.26510  eV     1   --> A              
     e( 72 - 72) =     14.54665  eV     1   --> A              
     e( 73 - 73) =     14.64147  eV     1   --> A              
     e( 74 - 74) =     14.90986  eV     1   --> A              
     e( 75 - 75) =     15.55679  eV     1   --> A              
     e( 76 - 76) =     15.70520  eV     1   --> A              
     e( 77 - 77) =     15.82055  eV     1   --> A              
     e( 78 - 78) =     16.12239  eV     1   --> A              
     e( 79 - 79) =     16.30958  eV     1   --> A              
     e( 80 - 80) =     16.37889  eV     1   --> A              
     e( 81 - 81) =     16.56066  eV     1   --> A              
     e( 82 - 82) =     16.62553  eV     1   --> A              
     e( 83 - 83) =     16.89947  eV     1   --> A              
     e( 84 - 84) =     17.04589  eV     1   --> A              
     e( 85 - 85) =     17.07451  eV     1   --> A              
     e( 86 - 86) =     17.19278  eV     1   --> A              
     e( 87 - 87) =     17.27423  eV     1   --> A              
     e( 88 - 88) =     17.73143  eV     1   --> A              
     e( 89 - 89) =     17.91694  eV     1   --> A              
     e( 90 - 90) =     18.03581  eV     1   --> A              
     e( 91 - 91) =     18.09759  eV     1   --> A              
     e( 92 - 92) =     18.26723  eV     1   --> A              
     e( 93 - 93) =     18.28757  eV     1   --> A              
     e( 94 - 94) =     18.48260  eV     1   --> A              
     e( 95 - 95) =     18.50001  eV     1   --> A              
     e( 96 - 96) =     18.68782  eV     1   --> A              
     e( 97 - 97) =     18.77583  eV     1   --> A              
     e( 98 - 98) =     19.04647  eV     1   --> A              
     e( 99 - 99) =     19.16262  eV     1   --> A              
     e(100 -100) =     19.20609  eV     1   --> A              

 **************************************************************************

 **************************************************************************

                    xk=(   0.06429,   0.03712,   0.00000  )

     Band symmetry, C_1 (1)     point group:

     e(  1 -  1) =    -34.70358  eV     1   --> A              
     e(  2 -  2) =    -34.70335  eV     1   --> A              
     e(  3 -  3) =    -34.69818  eV     1   --> A              
     e(  4 -  4) =    -34.69795  eV     1   --> A              
     e(  5 -  5) =    -34.67385  eV     1   --> A              
     e(  6 -  6) =    -34.67023  eV     1   --> A              
     e(  7 -  7) =    -34.66839  eV     1   --> A              
     e(  8 -  8) =    -34.66490  eV     1   --> A              
     e(  9 -  9) =    -34.66076  eV     1   --> A              
     e( 10 - 10) =    -34.65536  eV     1   --> A              
     e( 11 - 11) =    -34.59537  eV     1   --> A              
     e( 12 - 12) =    -34.58740  eV     1   --> A              
     e( 13 - 13) =    -34.58049  eV     1   --> A              
     e( 14 - 14) =    -34.54843  eV     1   --> A              
     e( 15 - 15) =    -34.54802  eV     1   --> A              
     e( 16 - 16) =    -27.46999  eV     1   --> A              
     e( 17 - 17) =    -27.46987  eV     1   --> A              
     e( 18 - 18) =    -27.46613  eV     1   --> A              
     e( 19 - 19) =    -27.46598  eV     1   --> A              
     e( 20 - 20) =    -27.46192  eV     1   --> A              
     e( 21 - 21) =    -27.45871  eV     1   --> A              
     e( 22 - 22) =    -27.45811  eV     1   --> A              
     e( 23 - 23) =    -27.45731  eV     1   --> A              
     e( 24 - 24) =    -27.45489  eV     1   --> A              
     e( 25 - 25) =    -27.45348  eV     1   --> A              
     e( 26 - 26) =    -10.62787  eV     1   --> A              
     e( 27 - 27) =    -10.09719  eV     1   --> A              
     e( 28 - 28) =     -9.02895  eV     1   --> A              
     e( 29 - 29) =     -6.30419  eV     1   --> A              
     e( 30 - 30) =     -4.97220  eV     1   --> A              
     e( 31 - 31) =     -0.34535  eV     1   --> A              
     e( 32 - 32) =     -0.17858  eV     1   --> A              
     e( 33 - 33) =      0.10036  eV     1   --> A              
     e( 34 - 34) =      0.16886  eV     1   --> A              
     e( 35 - 35) =      0.41532  eV     1   --> A              
     e( 36 - 36) =      0.58436  eV     1   --> A              
     e( 37 - 37) =      1.08244  eV     1   --> A              
     e( 38 - 38) =      1.10821  eV     1   --> A              
     e( 39 - 39) =      1.54415  eV     1   --> A              
     e( 40 - 40) =      2.54218  eV     1   --> A              
     e( 41 - 41) =      2.69002  eV     1   --> A              
     e( 42 - 42) =      2.90617  eV     1   --> A              
     e( 43 - 43) =      3.79582  eV     1   --> A              
     e( 44 - 44) =      3.92400  eV     1   --> A              
     e( 45 - 45) =      4.06537  eV     1   --> A              
     e( 46 - 46) =      6.27628  eV     1   --> A              
     e( 47 - 47) =      6.41804  eV     1   --> A              
     e( 48 - 48) =      6.97854  eV     1   --> A              
     e( 49 - 49) =      7.34544  eV     1   --> A              
     e( 50 - 50) =      7.62088  eV     1   --> A              
     e( 51 - 51) =      7.87361  eV     1   --> A              
     e( 52 - 52) =      8.45991  eV     1   --> A              
     e( 53 - 53) =      8.56501  eV     1   --> A              
     e( 54 - 54) =      8.69077  eV     1   --> A              
     e( 55 - 55) =      8.98880  eV     1   --> A              
     e( 56 - 56) =      9.11323  eV     1   --> A              
     e( 57 - 57) =      9.74215  eV     1   --> A              
     e( 58 - 58) =      9.84107  eV     1   --> A              
     e( 59 - 59) =     10.07986  eV     1   --> A              
     e( 60 - 60) =     10.31828  eV     1   --> A              
     e( 61 - 61) =     10.73703  eV     1   --> A              
     e( 62 - 62) =     10.88020  eV     1   --> A              
     e( 63 - 63) =     11.13434  eV     1   --> A              
     e( 64 - 64) =     11.28294  eV     1   --> A              
     e( 65 - 65) =     11.99965  eV     1   --> A              
     e( 66 - 66) =     12.07327  eV     1   --> A              
     e( 67 - 67) =     12.77185  eV     1   --> A              
     e( 68 - 68) =     12.95814  eV     1   --> A              
     e( 69 - 69) =     13.48112  eV     1   --> A              
     e( 70 - 70) =     13.77674  eV     1   --> A              
     e( 71 - 71) =     14.27581  eV     1   --> A              
     e( 72 - 72) =     14.58006  eV     1   --> A              
     e( 73 - 73) =     14.63788  eV     1   --> A              
     e( 74 - 74) =     14.88374  eV     1   --> A              
     e( 75 - 75) =     15.56342  eV     1   --> A              
     e( 76 - 76) =     15.68201  eV     1   --> A              
     e( 77 - 77) =     15.76636  eV     1   --> A              
     e( 78 - 78) =     16.05991  eV     1   --> A              
     e( 79 - 79) =     16.20509  eV     1   --> A              
     e( 80 - 80) =     16.38196  eV     1   --> A              
     e( 81 - 81) =     16.56439  eV     1   --> A              
     e( 82 - 82) =     16.64855  eV     1   --> A              
     e( 83 - 83) =     16.88503  eV     1   --> A              
     e( 84 - 84) =     17.01633  eV     1   --> A              
     e( 85 - 85) =     17.07593  eV     1   --> A              
     e( 86 - 86) =     17.18020  eV     1   --> A              
     e( 87 - 87) =     17.26394  eV     1   --> A              
     e( 88 - 88) =     17.74257  eV     1   --> A              
     e( 89 - 89) =     17.94184  eV     1   --> A              
     e( 90 - 90) =     18.02826  eV     1   --> A              
     e( 91 - 91) =     18.10003  eV     1   --> A              
     e( 92 - 92) =     18.25412  eV     1   --> A              
     e( 93 - 93) =     18.35198  eV     1   --> A              
     e( 94 - 94) =     18.56861  eV     1   --> A              
     e( 95 - 95) =     18.59986  eV     1   --> A              
     e( 96 - 96) =     18.70967  eV     1   --> A              
     e( 97 - 97) =     18.79354  eV     1   --> A              
     e( 98 - 98) =     19.00411  eV     1   --> A              
     e( 99 - 99) =     19.13321  eV     1   --> A              
     e(100 -100) =     19.16642  eV     1   --> A              

 **************************************************************************

 **************************************************************************

                    xk=(   0.07143,   0.04124,   0.00000  )

     Band symmetry, C_1 (1)     point group:

     e(  1 -  1) =    -34.70357  eV     1   --> A              
     e(  2 -  2) =    -34.70334  eV     1   --> A              
     e(  3 -  3) =    -34.69817  eV     1   --> A              
     e(  4 -  4) =    -34.69795  eV     1   --> A              
     e(  5 -  5) =    -34.67386  eV     1   --> A              
     e(  6 -  6) =    -34.67023  eV     1   --> A              
     e(  7 -  7) =    -34.66839  eV     1   --> A              
     e(  8 -  8) =    -34.66490  eV     1   --> A              
     e(  9 -  9) =    -34.66076  eV     1   --> A              
     e( 10 - 10) =    -34.65535  eV     1   --> A              
     e( 11 - 11) =    -34.59537  eV     1   --> A              
     e( 12 - 12) =    -34.58741  eV     1   --> A              
     e( 13 - 13) =    -34.58049  eV     1   --> A              
     e( 14 - 14) =    -34.54842  eV     1   --> A              
     e( 15 - 15) =    -34.54802  eV     1   --> A              
     e( 16 - 16) =    -27.46997  eV     1   --> A              
     e( 17 - 17) =    -27.46986  eV     1   --> A              
     e( 18 - 18) =    -27.46611  eV     1   --> A              
     e( 19 - 19) =    -27.46597  eV     1   --> A              
     e( 20 - 20) =    -27.46191  eV     1   --> A              
     e( 21 - 21) =    -27.45873  eV     1   --> A              
     e( 22 - 22) =    -27.45810  eV     1   --> A              
     e( 23 - 23) =    -27.45731  eV     1   --> A              
     e( 24 - 24) =    -27.45491  eV     1   --> A              
     e( 25 - 25) =    -27.45348  eV     1   --> A              
     e( 26 - 26) =    -10.61972  eV     1   --> A              
     e( 27 - 27) =    -10.08975  eV     1   --> A              
     e( 28 - 28) =     -9.02448  eV     1   --> A              
     e( 29 - 29) =     -6.30575  eV     1   --> A              
     e( 30 - 30) =     -4.98692  eV     1   --> A              
     e( 31 - 31) =     -0.40295  eV     1   --> A              
     e( 32 - 32) =     -0.21255  eV     1   --> A              
     e( 33 - 33) =      0.07548  eV     1   --> A              
     e( 34 - 34) =      0.14106  eV     1   --> A              
     e( 35 - 35) =      0.40372  eV     1   --> A              
     e( 36 - 36) =      0.52935  eV     1   --> A              
     e( 37 - 37) =      1.09603  eV     1   --> A              
     e( 38 - 38) =      1.14519  eV     1   --> A              
     e( 39 - 39) =      1.57487  eV     1   --> A              
     e( 40 - 40) =      2.52600  eV     1   --> A              
     e( 41 - 41) =      2.75211  eV     1   --> A              
     e( 42 - 42) =      2.92236  eV     1   --> A              
     e( 43 - 43) =      3.78208  eV     1   --> A              
     e( 44 - 44) =      3.94072  eV     1   --> A              
     e( 45 - 45) =      4.11200  eV     1   --> A              
     e( 46 - 46) =      6.29005  eV     1   --> A              
     e( 47 - 47) =      6.41986  eV     1   --> A              
     e( 48 - 48) =      6.97223  eV     1   --> A              
     e( 49 - 49) =      7.31947  eV     1   --> A              
     e( 50 - 50) =      7.62275  eV     1   --> A              
     e( 51 - 51) =      7.88914  eV     1   --> A              
     e( 52 - 52) =      8.42851  eV     1   --> A              
     e( 53 - 53) =      8.58804  eV     1   --> A              
     e( 54 - 54) =      8.69204  eV     1   --> A              
     e( 55 - 55) =      9.01612  eV     1   --> A              
     e( 56 - 56) =      9.11647  eV     1   --> A              
     e( 57 - 57) =      9.72712  eV     1   --> A              
     e( 58 - 58) =      9.86894  eV     1   --> A              
     e( 59 - 59) =     10.12437  eV     1   --> A              
     e( 60 - 60) =     10.35737  eV     1   --> A              
     e( 61 - 61) =     10.78406  eV     1   --> A              
     e( 62 - 62) =     10.84902  eV     1   --> A              
     e( 63 - 63) =     11.11895  eV     1   --> A              
     e( 64 - 64) =     11.28979  eV     1   --> A              
     e( 65 - 65) =     12.04914  eV     1   --> A              
     e( 66 - 66) =     12.12612  eV     1   --> A              
     e( 67 - 67) =     12.76575  eV     1   --> A              
     e( 68 - 68) =     12.97494  eV     1   --> A              
     e( 69 - 69) =     13.44585  eV     1   --> A              
     e( 70 - 70) =     13.74113  eV     1   --> A              
     e( 71 - 71) =     14.28632  eV     1   --> A              
     e( 72 - 72) =     14.56816  eV     1   --> A              
     e( 73 - 73) =     14.63108  eV     1   --> A              
     e( 74 - 74) =     14.90225  eV     1   --> A              
     e( 75 - 75) =     15.53470  eV     1   --> A              
     e( 76 - 76) =     15.66930  eV     1   --> A              
     e( 77 - 77) =     15.71279  eV     1   --> A              
     e( 78 - 78) =     16.01895  eV     1   --> A              
     e( 79 - 79) =     16.10486  eV     1   --> A              
     e( 80 - 80) =     16.38532  eV     1   --> A              
     e( 81 - 81) =     16.57337  eV     1   --> A              
     e( 82 - 82) =     16.64671  eV     1   --> A              
     e( 83 - 83) =     16.88361  eV     1   --> A              
     e( 84 - 84) =     16.97638  eV     1   --> A              
     e( 85 - 85) =     17.06579  eV     1   --> A              
     e( 86 - 86) =     17.15249  eV     1   --> A              
     e( 87 - 87) =     17.30745  eV     1   --> A              
     e( 88 - 88) =     17.69993  eV     1   --> A              
     e( 89 - 89) =     17.96416  eV     1   --> A              
     e( 90 - 90) =     17.97818  eV     1   --> A              
     e( 91 - 91) =     18.11645  eV     1   --> A              
     e( 92 - 92) =     18.32088  eV     1   --> A              
     e( 93 - 93) =     18.42380  eV     1   --> A              
     e( 94 - 94) =     18.62508  eV     1   --> A              
     e( 95 - 95) =     18.65810  eV     1   --> A              
     e( 96 - 96) =     18.72114  eV     1   --> A              
     e( 97 - 97) =     18.86940  eV     1   --> A              
     e( 98 - 98) =     18.97057  eV     1   --> A              
     e( 99 - 99) =     19.10133  eV     1   --> A              
     e(100 -100) =     19.16923  eV     1   --> A              

 **************************************************************************

 **************************************************************************

                    xk=(   0.07857,   0.04536,   0.00000  )

     Band symmetry, C_1 (1)     point group:

     e(  1 -  1) =    -34.70356  eV     1   --> A              
     e(  2 -  2) =    -34.70334  eV     1   --> A              
     e(  3 -  3) =    -34.69817  eV     1   --> A              
     e(  4 -  4) =    -34.69794  eV     1   --> A              
     e(  5 -  5) =    -34.67386  eV     1   --> A              
     e(  6 -  6) =    -34.67024  eV     1   --> A              
     e(  7 -  7) =    -34.66839  eV     1   --> A              
     e(  8 -  8) =    -34.66490  eV     1   --> A              
     e(  9 -  9) =    -34.66075  eV     1   --> A              
     e( 10 - 10) =    -34.65535  eV     1   --> A              
     e( 11 - 11) =    -34.59536  eV     1   --> A              
     e( 12 - 12) =    -34.58741  eV     1   --> A              
     e( 13 - 13) =    -34.58049  eV     1   --> A              
     e( 14 - 14) =    -34.54842  eV     1   --> A              
     e( 15 - 15) =    -34.54801  eV     1   --> A              
     e( 16 - 16) =    -27.46995  eV     1   --> A              
     e( 17 - 17) =    -27.46984  eV     1   --> A              
     e( 18 - 18) =    -27.46610  eV     1   --> A              
     e( 19 - 19) =    -27.46596  eV     1   --> A              
     e( 20 - 20) =    -27.46190  eV     1   --> A              
     e( 21 - 21) =    -27.45876  eV     1   --> A              
     e( 22 - 22) =    -27.45808  eV     1   --> A              
     e( 23 - 23) =    -27.45732  eV     1   --> A              
     e( 24 - 24) =    -27.45493  eV     1   --> A              
     e( 25 - 25) =    -27.45349  eV     1   --> A              
     e( 26 - 26) =    -10.61073  eV     1   --> A              
     e( 27 - 27) =    -10.08155  eV     1   --> A              
     e( 28 - 28) =     -9.01958  eV     1   --> A              
     e( 29 - 29) =     -6.30755  eV     1   --> A              
     e( 30 - 30) =     -5.00317  eV     1   --> A              
     e( 31 - 31) =     -0.46669  eV     1   --> A              
     e( 32 - 32) =     -0.24501  eV     1   --> A              
     e( 33 - 33) =      0.05030  eV     1   --> A              
     e( 34 - 34) =      0.11304  eV     1   --> A              
     e( 35 - 35) =      0.39070  eV     1   --> A              
     e( 36 - 36) =      0.47429  eV     1   --> A              
     e( 37 - 37) =      1.10559  eV     1   --> A              
     e( 38 - 38) =      1.18700  eV     1   --> A              
     e( 39 - 39) =      1.59736  eV     1   --> A              
     e( 40 - 40) =      2.51485  eV     1   --> A              
     e( 41 - 41) =      2.81654  eV     1   --> A              
     e( 42 - 42) =      2.94084  eV     1   --> A              
     e( 43 - 43) =      3.76885  eV     1   --> A              
     e( 44 - 44) =      3.95809  eV     1   --> A              
     e( 45 - 45) =      4.15983  eV     1   --> A              
     e( 46 - 46) =      6.30493  eV     1   --> A              
     e( 47 - 47) =      6.42149  eV     1   --> A              
     e( 48 - 48) =      6.96254  eV     1   --> A              
     e( 49 - 49) =      7.29739  eV     1   --> A              
     e( 50 - 50) =      7.62473  eV     1   --> A              
     e( 51 - 51) =      7.90648  eV     1   --> A              
     e( 52 - 52) =      8.39843  eV     1   --> A              
     e( 53 - 53) =      8.61062  eV     1   --> A              
     e( 54 - 54) =      8.69325  eV     1   --> A              
     e( 55 - 55) =      9.04246  eV     1   --> A              
     e( 56 - 56) =      9.12486  eV     1   --> A              
     e( 57 - 57) =      9.70810  eV     1   --> A              
     e( 58 - 58) =      9.89685  eV     1   --> A              
     e( 59 - 59) =     10.17449  eV     1   --> A              
     e( 60 - 60) =     10.39599  eV     1   --> A              
     e( 61 - 61) =     10.80059  eV     1   --> A              
     e( 62 - 62) =     10.85776  eV     1   --> A              
     e( 63 - 63) =     11.10766  eV     1   --> A              
     e( 64 - 64) =     11.29809  eV     1   --> A              
[...]
     e(  3 -  3) =    -34.69822  eV     1   --> A              
     e(  4 -  4) =    -34.69797  eV     1   --> A              
     e(  5 -  5) =    -34.67384  eV     1   --> A              
     e(  6 -  6) =    -34.67023  eV     1   --> A              
     e(  7 -  7) =    -34.66838  eV     1   --> A              
     e(  8 -  8) =    -34.66489  eV     1   --> A              
     e(  9 -  9) =    -34.66078  eV     1   --> A              
     e( 10 - 10) =    -34.65538  eV     1   --> A              
     e( 11 - 11) =    -34.59540  eV     1   --> A              
     e( 12 - 12) =    -34.58739  eV     1   --> A              
     e( 13 - 13) =    -34.58049  eV     1   --> A              
     e( 14 - 14) =    -34.54845  eV     1   --> A              
     e( 15 - 15) =    -34.54804  eV     1   --> A              
     e( 16 - 16) =    -27.47009  eV     1   --> A              
     e( 17 - 17) =    -27.46988  eV     1   --> A              
     e( 18 - 18) =    -27.46622  eV     1   --> A              
     e( 19 - 19) =    -27.46600  eV     1   --> A              
     e( 20 - 20) =    -27.46197  eV     1   --> A              
     e( 21 - 21) =    -27.45862  eV     1   --> A              
     e( 22 - 22) =    -27.45816  eV     1   --> A              
     e( 23 - 23) =    -27.45729  eV     1   --> A              
     e( 24 - 24) =    -27.45481  eV     1   --> A              
     e( 25 - 25) =    -27.45347  eV     1   --> A              
     e( 26 - 26) =    -10.66030  eV     1   --> A              
     e( 27 - 27) =    -10.12689  eV     1   --> A              
     e( 28 - 28) =     -9.04693  eV     1   --> A              
     e( 29 - 29) =     -6.29851  eV     1   --> A              
     e( 30 - 30) =     -4.91329  eV     1   --> A              
     e( 31 - 31) =     -0.17985  eV     1   --> A              
     e( 32 - 32) =      0.08653  eV     1   --> A              
     e( 33 - 33) =      0.25710  eV     1   --> A              
     e( 34 - 34) =      0.32429  eV     1   --> A              
     e( 35 - 35) =      0.44910  eV     1   --> A              
     e( 36 - 36) =      0.79585  eV     1   --> A              
     e( 37 - 37) =      0.94320  eV     1   --> A              
     e( 38 - 38) =      1.03783  eV     1   --> A              
     e( 39 - 39) =      1.30787  eV     1   --> A              
     e( 40 - 40) =      2.31558  eV     1   --> A              
     e( 41 - 41) =      2.76256  eV     1   --> A              
     e( 42 - 42) =      2.83835  eV     1   --> A              
     e( 43 - 43) =      3.74884  eV     1   --> A              
     e( 44 - 44) =      3.86911  eV     1   --> A              
     e( 45 - 45) =      3.91580  eV     1   --> A              
     e( 46 - 46) =      6.21857  eV     1   --> A              
     e( 47 - 47) =      6.40830  eV     1   --> A              
     e( 48 - 48) =      6.98152  eV     1   --> A              
     e( 49 - 49) =      7.52327  eV     1   --> A              
     e( 50 - 50) =      7.61348  eV     1   --> A              
     e( 51 - 51) =      7.80562  eV     1   --> A              
     e( 52 - 52) =      8.41648  eV     1   --> A              
     e( 53 - 53) =      8.61788  eV     1   --> A              
     e( 54 - 54) =      8.75560  eV     1   --> A              
     e( 55 - 55) =      8.84997  eV     1   --> A              
     e( 56 - 56) =      9.13936  eV     1   --> A              
     e( 57 - 57) =      9.61287  eV     1   --> A              
     e( 58 - 58) =      9.70927  eV     1   --> A              
     e( 59 - 59) =     10.02233  eV     1   --> A              
     e( 60 - 60) =     10.14226  eV     1   --> A              
     e( 61 - 61) =     10.54482  eV     1   --> A              
     e( 62 - 62) =     11.03890  eV     1   --> A              
     e( 63 - 63) =     11.30044  eV     1   --> A              
     e( 64 - 64) =     11.40876  eV     1   --> A              
     e( 65 - 65) =     11.61243  eV     1   --> A              
     e( 66 - 66) =     11.73837  eV     1   --> A              
     e( 67 - 67) =     12.81054  eV     1   --> A              
     e( 68 - 68) =     12.87897  eV     1   --> A              
     e( 69 - 69) =     13.81489  eV     1   --> A              
     e( 70 - 70) =     14.06817  eV     1   --> A              
     e( 71 - 71) =     14.17589  eV     1   --> A              
     e( 72 - 72) =     14.27310  eV     1   --> A              
     e( 73 - 73) =     14.45319  eV     1   --> A              
     e( 74 - 74) =     15.10348  eV     1   --> A              
     e( 75 - 75) =     15.66843  eV     1   --> A              
     e( 76 - 76) =     15.95617  eV     1   --> A              
     e( 77 - 77) =     16.00096  eV     1   --> A              
     e( 78 - 78) =     16.18605  eV     1   --> A              
     e( 79 - 79) =     16.26299  eV     1   --> A              
     e( 80 - 80) =     16.38912  eV     1   --> A              
     e( 81 - 81) =     16.71743  eV     1   --> A              
     e( 82 - 82) =     16.88524  eV     1   --> A              
     e( 83 - 83) =     17.05226  eV     1   --> A              
     e( 84 - 84) =     17.22190  eV     1   --> A              
     e( 85 - 85) =     17.26277  eV     1   --> A              
     e( 86 - 86) =     17.33709  eV     1   --> A              
     e( 87 - 87) =     17.39451  eV     1   --> A              
     e( 88 - 88) =     17.54192  eV     1   --> A              
     e( 89 - 89) =     17.60817  eV     1   --> A              
     e( 90 - 90) =     17.65890  eV     1   --> A              
     e( 91 - 91) =     17.67278  eV     1   --> A              
     e( 92 - 92) =     17.93801  eV     1   --> A              
     e( 93 - 93) =     17.99886  eV     1   --> A              
     e( 94 - 94) =     18.26614  eV     1   --> A              
     e( 95 - 95) =     18.82928  eV     1   --> A              
     e( 96 - 96) =     18.96184  eV     1   --> A              
     e( 97 - 97) =     19.14457  eV     1   --> A              
     e( 98 - 98) =     19.24548  eV     1   --> A              
     e( 99 - 99) =     19.30088  eV     1   --> A              
     e(100 -100) =     19.40936  eV     1   --> A              

 **************************************************************************

 **************************************************************************

                    xk=(   0.00476,   0.00836,   0.00000  )

     Band symmetry, C_1 (1)     point group:

     e(  1 -  1) =    -34.70362  eV     1   --> A              
     e(  2 -  2) =    -34.70337  eV     1   --> A              
     e(  3 -  3) =    -34.69822  eV     1   --> A              
     e(  4 -  4) =    -34.69797  eV     1   --> A              
     e(  5 -  5) =    -34.67384  eV     1   --> A              
     e(  6 -  6) =    -34.67023  eV     1   --> A              
     e(  7 -  7) =    -34.66838  eV     1   --> A              
     e(  8 -  8) =    -34.66489  eV     1   --> A              
     e(  9 -  9) =    -34.66079  eV     1   --> A              
     e( 10 - 10) =    -34.65538  eV     1   --> A              
     e( 11 - 11) =    -34.59540  eV     1   --> A              
     e( 12 - 12) =    -34.58739  eV     1   --> A              
     e( 13 - 13) =    -34.58049  eV     1   --> A              
     e( 14 - 14) =    -34.54846  eV     1   --> A              
     e( 15 - 15) =    -34.54805  eV     1   --> A              
     e( 16 - 16) =    -27.47009  eV     1   --> A              
     e( 17 - 17) =    -27.46988  eV     1   --> A              
     e( 18 - 18) =    -27.46622  eV     1   --> A              
     e( 19 - 19) =    -27.46601  eV     1   --> A              
     e( 20 - 20) =    -27.46197  eV     1   --> A              
     e( 21 - 21) =    -27.45862  eV     1   --> A              
     e( 22 - 22) =    -27.45816  eV     1   --> A              
     e( 23 - 23) =    -27.45729  eV     1   --> A              
     e( 24 - 24) =    -27.45481  eV     1   --> A              
     e( 25 - 25) =    -27.45347  eV     1   --> A              
     e( 26 - 26) =    -10.66206  eV     1   --> A              
     e( 27 - 27) =    -10.12852  eV     1   --> A              
     e( 28 - 28) =     -9.04793  eV     1   --> A              
     e( 29 - 29) =     -6.29829  eV     1   --> A              
     e( 30 - 30) =     -4.91031  eV     1   --> A              
     e( 31 - 31) =     -0.17518  eV     1   --> A              
     e( 32 - 32) =      0.10261  eV     1   --> A              
     e( 33 - 33) =      0.27239  eV     1   --> A              
     e( 34 - 34) =      0.33448  eV     1   --> A              
     e( 35 - 35) =      0.45965  eV     1   --> A              
     e( 36 - 36) =      0.78724  eV     1   --> A              
     e( 37 - 37) =      0.94532  eV     1   --> A              
     e( 38 - 38) =      1.04244  eV     1   --> A              
     e( 39 - 39) =      1.28666  eV     1   --> A              
     e( 40 - 40) =      2.29403  eV     1   --> A              
     e( 41 - 41) =      2.76946  eV     1   --> A              
     e( 42 - 42) =      2.84228  eV     1   --> A              
     e( 43 - 43) =      3.73672  eV     1   --> A              
     e( 44 - 44) =      3.86681  eV     1   --> A              
     e( 45 - 45) =      3.91212  eV     1   --> A              
     e( 46 - 46) =      6.21531  eV     1   --> A              
     e( 47 - 47) =      6.40759  eV     1   --> A              
     e( 48 - 48) =      6.98092  eV     1   --> A              
     e( 49 - 49) =      7.52824  eV     1   --> A              
     e( 50 - 50) =      7.61329  eV     1   --> A              
     e( 51 - 51) =      7.81422  eV     1   --> A              
     e( 52 - 52) =      8.40227  eV     1   --> A              
     e( 53 - 53) =      8.62063  eV     1   --> A              
     e( 54 - 54) =      8.76696  eV     1   --> A              
     e( 55 - 55) =      8.84714  eV     1   --> A              
     e( 56 - 56) =      9.14160  eV     1   --> A              
     e( 57 - 57) =      9.59743  eV     1   --> A              
     e( 58 - 58) =      9.69824  eV     1   --> A              
     e( 59 - 59) =     10.02488  eV     1   --> A              
     e( 60 - 60) =     10.13083  eV     1   --> A              
     e( 61 - 61) =     10.53312  eV     1   --> A              
     e( 62 - 62) =     11.04882  eV     1   --> A              
     e( 63 - 63) =     11.32962  eV     1   --> A              
     e( 64 - 64) =     11.44204  eV     1   --> A              
     e( 65 - 65) =     11.56898  eV     1   --> A              
     e( 66 - 66) =     11.69521  eV     1   --> A              
     e( 67 - 67) =     12.81246  eV     1   --> A              
     e( 68 - 68) =     12.87249  eV     1   --> A              
     e( 69 - 69) =     13.85500  eV     1   --> A              
     e( 70 - 70) =     14.11664  eV     1   --> A              
     e( 71 - 71) =     14.14684  eV     1   --> A              
     e( 72 - 72) =     14.25738  eV     1   --> A              
     e( 73 - 73) =     14.41695  eV     1   --> A              
     e( 74 - 74) =     15.08804  eV     1   --> A              
     e( 75 - 75) =     15.72370  eV     1   --> A              
     e( 76 - 76) =     16.00392  eV     1   --> A              
     e( 77 - 77) =     16.02074  eV     1   --> A              
     e( 78 - 78) =     16.12342  eV     1   --> A              
     e( 79 - 79) =     16.25588  eV     1   --> A              
     e( 80 - 80) =     16.36410  eV     1   --> A              
     e( 81 - 81) =     16.69842  eV     1   --> A              
     e( 82 - 82) =     16.99876  eV     1   --> A              
     e( 83 - 83) =     17.09388  eV     1   --> A              
     e( 84 - 84) =     17.21548  eV     1   --> A              
     e( 85 - 85) =     17.31599  eV     1   --> A              
     e( 86 - 86) =     17.35053  eV     1   --> A              
     e( 87 - 87) =     17.39198  eV     1   --> A              
     e( 88 - 88) =     17.55743  eV     1   --> A              
     e( 89 - 89) =     17.57500  eV     1   --> A              
     e( 90 - 90) =     17.64030  eV     1   --> A              
     e( 91 - 91) =     17.65546  eV     1   --> A              
     e( 92 - 92) =     17.86869  eV     1   --> A              
     e( 93 - 93) =     17.91914  eV     1   --> A              
     e( 94 - 94) =     18.18804  eV     1   --> A              
     e( 95 - 95) =     18.93929  eV     1   --> A              
     e( 96 - 96) =     19.05063  eV     1   --> A              
     e( 97 - 97) =     19.19462  eV     1   --> A              
     e( 98 - 98) =     19.21947  eV     1   --> A              
     e( 99 - 99) =     19.30435  eV     1   --> A              
     e(100 -100) =     19.40698  eV     1   --> A              

 **************************************************************************

 **************************************************************************

                    xk=(   0.00000,   0.00000,   0.00000  )

     Band symmetry, C_1 (1)     point group:

     e(  1 -  1) =    -34.70362  eV     1   --> A              
     e(  2 -  2) =    -34.70337  eV     1   --> A              
     e(  3 -  3) =    -34.69822  eV     1   --> A              
     e(  4 -  4) =    -34.69797  eV     1   --> A              
     e(  5 -  5) =    -34.67384  eV     1   --> A              
     e(  6 -  6) =    -34.67023  eV     1   --> A              
     e(  7 -  7) =    -34.66838  eV     1   --> A              
     e(  8 -  8) =    -34.66489  eV     1   --> A              
     e(  9 -  9) =    -34.66079  eV     1   --> A              
     e( 10 - 10) =    -34.65538  eV     1   --> A              
     e( 11 - 11) =    -34.59540  eV     1   --> A              
     e( 12 - 12) =    -34.58739  eV     1   --> A              
     e( 13 - 13) =    -34.58049  eV     1   --> A              
     e( 14 - 14) =    -34.54846  eV     1   --> A              
     e( 15 - 15) =    -34.54805  eV     1   --> A              
     e( 16 - 16) =    -27.47009  eV     1   --> A              
     e( 17 - 17) =    -27.46989  eV     1   --> A              
     e( 18 - 18) =    -27.46622  eV     1   --> A              
     e( 19 - 19) =    -27.46601  eV     1   --> A              
     e( 20 - 20) =    -27.46198  eV     1   --> A              
     e( 21 - 21) =    -27.45862  eV     1   --> A              
     e( 22 - 22) =    -27.45816  eV     1   --> A              
     e( 23 - 23) =    -27.45729  eV     1   --> A              
     e( 24 - 24) =    -27.45481  eV     1   --> A              
     e( 25 - 25) =    -27.45347  eV     1   --> A              
     e( 26 - 26) =    -10.66266  eV     1   --> A              
     e( 27 - 27) =    -10.12907  eV     1   --> A              
     e( 28 - 28) =     -9.04824  eV     1   --> A              
     e( 29 - 29) =     -6.29821  eV     1   --> A              
     e( 30 - 30) =     -4.90932  eV     1   --> A              
     e( 31 - 31) =     -0.17367  eV     1   --> A              
     e( 32 - 32) =      0.10798  eV     1   --> A              
     e( 33 - 33) =      0.27790  eV     1   --> A              
     e( 34 - 34) =      0.33774  eV     1   --> A              
     e( 35 - 35) =      0.46357  eV     1   --> A              
     e( 36 - 36) =      0.78350  eV     1   --> A              
     e( 37 - 37) =      0.94621  eV     1   --> A              
     e( 38 - 38) =      1.04436  eV     1   --> A              
     e( 39 - 39) =      1.27942  eV     1   --> A              
     e( 40 - 40) =      2.28656  eV     1   --> A              
     e( 41 - 41) =      2.77139  eV     1   --> A              
     e( 42 - 42) =      2.84427  eV     1   --> A              
     e( 43 - 43) =      3.73220  eV     1   --> A              
     e( 44 - 44) =      3.86600  eV     1   --> A              
     e( 45 - 45) =      3.91122  eV     1   --> A              
     e( 46 - 46) =      6.21422  eV     1   --> A              
     e( 47 - 47) =      6.40735  eV     1   --> A              
     e( 48 - 48) =      6.98070  eV     1   --> A              
     e( 49 - 49) =      7.52977  eV     1   --> A              
     e( 50 - 50) =      7.61325  eV     1   --> A              
     e( 51 - 51) =      7.81743  eV     1   --> A              
     e( 52 - 52) =      8.39729  eV     1   --> A              
     e( 53 - 53) =      8.62147  eV     1   --> A              
     e( 54 - 54) =      8.77075  eV     1   --> A              
     e( 55 - 55) =      8.84646  eV     1   --> A              
     e( 56 - 56) =      9.14253  eV     1   --> A              
     e( 57 - 57) =      9.59193  eV     1   --> A              
     e( 58 - 58) =      9.69438  eV     1   --> A              
     e( 59 - 59) =     10.02591  eV     1   --> A              
     e( 60 - 60) =     10.12701  eV     1   --> A              
     e( 61 - 61) =     10.52924  eV     1   --> A              
     e( 62 - 62) =     11.05212  eV     1   --> A              
     e( 63 - 63) =     11.33908  eV     1   --> A              
     e( 64 - 64) =     11.46632  eV     1   --> A              
     e( 65 - 65) =     11.54336  eV     1   --> A              
     e( 66 - 66) =     11.67899  eV     1   --> A              
     e( 67 - 67) =     12.81317  eV     1   --> A              
     e( 68 - 68) =     12.87027  eV     1   --> A              
     e( 69 - 69) =     13.87106  eV     1   --> A              
     e( 70 - 70) =     14.13398  eV     1   --> A              
     e( 71 - 71) =     14.13778  eV     1   --> A              
     e( 72 - 72) =     14.24932  eV     1   --> A              
     e( 73 - 73) =     14.40355  eV     1   --> A              
     e( 74 - 74) =     15.08198  eV     1   --> A              
     e( 75 - 75) =     15.74666  eV     1   --> A              
     e( 76 - 76) =     16.01425  eV     1   --> A              
     e( 77 - 77) =     16.04665  eV     1   --> A              
     e( 78 - 78) =     16.08908  eV     1   --> A              
     e( 79 - 79) =     16.25038  eV     1   --> A              
     e( 80 - 80) =     16.35448  eV     1   --> A              
     e( 81 - 81) =     16.69138  eV     1   --> A              
     e( 82 - 82) =     17.08724  eV     1   --> A              
     e( 83 - 83) =     17.10626  eV     1   --> A              
     e( 84 - 84) =     17.14231  eV     1   --> A              
     e( 85 - 85) =     17.35292  eV     1   --> A              
     e( 86 - 86) =     17.35743  eV     1   --> A              
     e( 87 - 87) =     17.45048  eV     1   --> A              
     e( 88 - 88) =     17.48194  eV     1   --> A              
     e( 89 - 89) =     17.55139  eV     1   --> A              
     e( 90 - 90) =     17.64244  eV     1   --> A              
     e( 91 - 91) =     17.70447  eV     1   --> A              
     e( 92 - 92) =     17.82226  eV     1   --> A              
     e( 93 - 93) =     17.89126  eV     1   --> A              
     e( 94 - 94) =     18.15823  eV     1   --> A              
     e( 95 - 95) =     19.00975  eV     1   --> A              
     e( 96 - 96) =     19.07824  eV     1   --> A              
     e( 97 - 97) =     19.14469  eV     1   --> A              
     e( 98 - 98) =     19.25804  eV     1   --> A              
     e( 99 - 99) =     19.31353  eV     1   --> A              
     e(100 -100) =     19.41266  eV     1   --> A              

 **************************************************************************

     BANDS        :   1m12.27s CPU   2m16.74s WALL


   This run was terminated on:  20:34: 4  14Aug2025            

=------------------------------------------------------------------------------=
   JOB DONE.
=------------------------------------------------------------------------------=
