
     Program BANDS v.7.4.1 starts on 14Aug2025 at 20:15:36 

     This program is part of the open-source Quantum ESPRESSO suite
     for quantum simulation of materials; please cite
         "P. Giannozzi et al., J. Phys.:Condens. Matter 21 395502 (2009);
         "P. Giannozzi et al., J. Phys.:Condens. Matter 29 465901 (2017);
         "P. Giannozzi et al., J. Chem. Phys. 152 154105 (2020);
          URL http://www.quantum-espresso.org", 
     in publications or presentations arising from this work. More details at
     http://www.quantum-espresso.org/quote

     Parallel version (MPI & OpenMP), running on      48 processor cores
     Number of MPI processes:                24
     Threads/MPI process:                     2

     MPI processes distributed on     2 nodes
     R & G space division:  proc/nbgrp/npool/nimage =      24
     111717 MiB available memory on the printing compute node when the environment starts


     Reading xml data from directory:

     tmp/Sb2Te3-uatsx-c3-1.0.save/

     IMPORTANT: XC functional enforced from input :
     Exchange-correlation= PBE
                           (   1   4   3   4   0   0   0)
     Any further DFT definition will be discarded
     Please, verify this is what you really want


     Parallelization info
     --------------------
     sticks:   dense  smooth     PW     G-vecs:    dense   smooth      PW
     Min          96      38     10                19112     4832     726
     Max          97      39     11                19125     4855     757
     Sum        2311     925    261               458817   116185   17833

     Using Slab Decomposition

     Reading collected, re-writing distributed wavefunctions
     high-symmetry point:  0.0000 0.0000 0.0000   x coordinate   0.0000
     high-symmetry point:  0.5000 0.2887 0.0000   x coordinate   0.5774
     high-symmetry point:  0.3333 0.5812 0.0000   x coordinate   0.9140
     high-symmetry point:  0.0000 0.0000 0.0000   x coordinate   1.5840

     Plottable bands (eV) written to file ./bands/Sb2Te3-uatsx-c3-1.0.bands.gnu
     Bands written to file ./bands/Sb2Te3-uatsx-c3-1.0.bands

 **************************************************************************

                    xk=(   0.00000,   0.00000,   0.00000  )

     point group C_1 (1)    
     there are  1 classes
     the character table:

       E    
A      1.00

     the symmetry operations in each class and the name of the first element:

     E        1
                                                                 

     Band symmetry, C_1 (1)     point group:

     e(  1 -  1) =    -34.63364  eV     1   --> A              
     e(  2 -  2) =    -34.63352  eV     1   --> A              
     e(  3 -  3) =    -34.62793  eV     1   --> A              
     e(  4 -  4) =    -34.62778  eV     1   --> A              
     e(  5 -  5) =    -34.60589  eV     1   --> A              
     e(  6 -  6) =    -34.60375  eV     1   --> A              
     e(  7 -  7) =    -34.59992  eV     1   --> A              
     e(  8 -  8) =    -34.59829  eV     1   --> A              
     e(  9 -  9) =    -34.59441  eV     1   --> A              
     e( 10 - 10) =    -34.58872  eV     1   --> A              
     e( 11 - 11) =    -34.52122  eV     1   --> A              
     e( 12 - 12) =    -34.51089  eV     1   --> A              
     e( 13 - 13) =    -34.50749  eV     1   --> A              
     e( 14 - 14) =    -34.47126  eV     1   --> A              
     e( 15 - 15) =    -34.47111  eV     1   --> A              
     e( 16 - 17) =    -27.39147  eV     2   -->   2 A              
     e( 18 - 19) =    -27.38745  eV     2   -->   2 A              
     e( 20 - 20) =    -27.38284  eV     1   --> A              
     e( 21 - 21) =    -27.37964  eV     1   --> A              
     e( 22 - 22) =    -27.37898  eV     1   --> A              
     e( 23 - 23) =    -27.37886  eV     1   --> A              
     e( 24 - 24) =    -27.37564  eV     1   --> A              
     e( 25 - 25) =    -27.37500  eV     1   --> A              
     e( 26 - 26) =    -10.61748  eV     1   --> A              
     e( 27 - 27) =    -10.09009  eV     1   --> A              
     e( 28 - 28) =     -9.00420  eV     1   --> A              
     e( 29 - 29) =     -6.24757  eV     1   --> A              
     e( 30 - 30) =     -4.83667  eV     1   --> A              
     e( 31 - 31) =     -0.14667  eV     1   --> A              
     e( 32 - 32) =      0.25552  eV     1   --> A              
     e( 33 - 33) =      0.34185  eV     1   --> A              
     e( 34 - 34) =      0.47628  eV     1   --> A              
     e( 35 - 35) =      0.54062  eV     1   --> A              
     e( 36 - 36) =      0.85466  eV     1   --> A              
     e( 37 - 37) =      1.08364  eV     1   --> A              
     e( 38 - 38) =      1.13472  eV     1   --> A              
     e( 39 - 39) =      1.38993  eV     1   --> A              
     e( 40 - 40) =      2.43678  eV     1   --> A              
     e( 41 - 41) =      2.88524  eV     1   --> A              
     e( 42 - 42) =      2.92359  eV     1   --> A              
     e( 43 - 43) =      3.88837  eV     1   --> A              
     e( 44 - 44) =      3.95453  eV     1   --> A              
     e( 45 - 45) =      3.98004  eV     1   --> A              
     e( 46 - 46) =      6.26913  eV     1   --> A              
     e( 47 - 47) =      6.46793  eV     1   --> A              
     e( 48 - 48) =      7.01682  eV     1   --> A              
     e( 49 - 49) =      7.68868  eV     1   --> A              
     e( 50 - 50) =      7.70791  eV     1   --> A              
     e( 51 - 51) =      7.85399  eV     1   --> A              
     e( 52 - 52) =      8.46345  eV     1   --> A              
     e( 53 - 53) =      8.71245  eV     1   --> A              
     e( 54 - 54) =      8.86797  eV     1   --> A              
     e( 55 - 55) =      9.00904  eV     1   --> A              
     e( 56 - 56) =      9.16017  eV     1   --> A              
     e( 57 - 57) =      9.70614  eV     1   --> A              
     e( 58 - 58) =      9.76007  eV     1   --> A              
     e( 59 - 59) =     10.08167  eV     1   --> A              
     e( 60 - 60) =     10.20467  eV     1   --> A              
     e( 61 - 61) =     10.59259  eV     1   --> A              
     e( 62 - 62) =     11.19954  eV     1   --> A              
     e( 63 - 63) =     11.34709  eV     1   --> A              
     e( 64 - 64) =     11.54891  eV     1   --> A              
     e( 65 - 65) =     11.65555  eV     1   --> A              
     e( 66 - 66) =     11.72580  eV     1   --> A              
     e( 67 - 67) =     12.84912  eV     1   --> A              
     e( 68 - 68) =     12.94087  eV     1   --> A              
     e( 69 - 69) =     14.02058  eV     1   --> A              
     e( 70 - 70) =     14.15581  eV     1   --> A              
     e( 71 - 71) =     14.26289  eV     1   --> A              
     e( 72 - 72) =     14.32408  eV     1   --> A              
     e( 73 - 73) =     14.45164  eV     1   --> A              
     e( 74 - 74) =     15.16465  eV     1   --> A              
     e( 75 - 75) =     15.92495  eV     1   --> A              
     e( 76 - 76) =     16.06525  eV     1   --> A              
     e( 77 - 77) =     16.11457  eV     1   --> A              
     e( 78 - 78) =     16.25855  eV     1   --> A              
     e( 79 - 79) =     16.34275  eV     1   --> A              
     e( 80 - 80) =     16.41758  eV     1   --> A              
     e( 81 - 81) =     16.78098  eV     1   --> A              
     e( 82 - 82) =     17.22807  eV     1   --> A              
     e( 83 - 83) =     17.29968  eV     1   --> A              
     e( 84 - 84) =     17.36195  eV     1   --> A              
     e( 85 - 85) =     17.43049  eV     1   --> A              
     e( 86 - 86) =     17.49808  eV     1   --> A              
     e( 87 - 87) =     17.60036  eV     1   --> A              
     e( 88 - 88) =     17.68236  eV     1   --> A              
     e( 89 - 89) =     17.68470  eV     1   --> A              
     e( 90 - 90) =     17.78222  eV     1   --> A              
     e( 91 - 91) =     17.79905  eV     1   --> A              
     e( 92 - 92) =     17.87710  eV     1   --> A              
     e( 93 - 93) =     18.00478  eV     1   --> A              
     e( 94 - 94) =     18.27122  eV     1   --> A              
     e( 95 - 95) =     19.20622  eV     1   --> A              
     e( 96 - 96) =     19.28302  eV     1   --> A              
     e( 97 - 97) =     19.31362  eV     1   --> A              
     e( 98 - 98) =     19.33714  eV     1   --> A              
     e( 99 - 99) =     19.40578  eV     1   --> A              
     e(100 -100) =     19.55195  eV     1   --> A              

 **************************************************************************

 **************************************************************************

                    xk=(   0.00714,   0.00412,   0.00000  )

     Band symmetry, C_1 (1)     point group:

     e(  1 -  1) =    -34.63364  eV     1   --> A              
     e(  2 -  2) =    -34.63352  eV     1   --> A              
     e(  3 -  3) =    -34.62793  eV     1   --> A              
     e(  4 -  4) =    -34.62778  eV     1   --> A              
     e(  5 -  5) =    -34.60589  eV     1   --> A              
     e(  6 -  6) =    -34.60375  eV     1   --> A              
     e(  7 -  7) =    -34.59992  eV     1   --> A              
     e(  8 -  8) =    -34.59829  eV     1   --> A              
     e(  9 -  9) =    -34.59441  eV     1   --> A              
     e( 10 - 10) =    -34.58871  eV     1   --> A              
     e( 11 - 11) =    -34.52122  eV     1   --> A              
     e( 12 - 12) =    -34.51089  eV     1   --> A              
     e( 13 - 13) =    -34.50749  eV     1   --> A              
     e( 14 - 14) =    -34.47126  eV     1   --> A              
     e( 15 - 15) =    -34.47111  eV     1   --> A              
     e( 16 - 17) =    -27.39147  eV     2   -->   2 A              
     e( 18 - 19) =    -27.38745  eV     2   -->   2 A              
     e( 20 - 20) =    -27.38284  eV     1   --> A              
     e( 21 - 21) =    -27.37964  eV     1   --> A              
     e( 22 - 22) =    -27.37898  eV     1   --> A              
     e( 23 - 23) =    -27.37886  eV     1   --> A              
     e( 24 - 24) =    -27.37564  eV     1   --> A              
     e( 25 - 25) =    -27.37500  eV     1   --> A              
     e( 26 - 26) =    -10.61703  eV     1   --> A              
     e( 27 - 27) =    -10.08968  eV     1   --> A              
     e( 28 - 28) =     -9.00395  eV     1   --> A              
     e( 29 - 29) =     -6.24762  eV     1   --> A              
     e( 30 - 30) =     -4.83740  eV     1   --> A              
     e( 31 - 31) =     -0.14759  eV     1   --> A              
     e( 32 - 32) =      0.24970  eV     1   --> A              
     e( 33 - 33) =      0.33909  eV     1   --> A              
     e( 34 - 34) =      0.47157  eV     1   --> A              
     e( 35 - 35) =      0.53974  eV     1   --> A              
     e( 36 - 36) =      0.85777  eV     1   --> A              
     e( 37 - 37) =      1.08110  eV     1   --> A              
     e( 38 - 38) =      1.13531  eV     1   --> A              
     e( 39 - 39) =      1.39525  eV     1   --> A              
     e( 40 - 40) =      2.44287  eV     1   --> A              
     e( 41 - 41) =      2.88156  eV     1   --> A              
     e( 42 - 42) =      2.92395  eV     1   --> A              
     e( 43 - 43) =      3.89274  eV     1   --> A              
     e( 44 - 44) =      3.95462  eV     1   --> A              
     e( 45 - 45) =      3.98012  eV     1   --> A              
     e( 46 - 46) =      6.26996  eV     1   --> A              
     e( 47 - 47) =      6.46812  eV     1   --> A              
     e( 48 - 48) =      7.01704  eV     1   --> A              
     e( 49 - 49) =      7.68885  eV     1   --> A              
     e( 50 - 50) =      7.70415  eV     1   --> A              
     e( 51 - 51) =      7.85448  eV     1   --> A              
     e( 52 - 52) =      8.46676  eV     1   --> A              
     e( 53 - 53) =      8.71177  eV     1   --> A              
     e( 54 - 54) =      8.86494  eV     1   --> A              
     e( 55 - 55) =      9.00943  eV     1   --> A              
     e( 56 - 56) =      9.15940  eV     1   --> A              
     e( 57 - 57) =      9.71144  eV     1   --> A              
     e( 58 - 58) =      9.76249  eV     1   --> A              
     e( 59 - 59) =     10.08077  eV     1   --> A              
     e( 60 - 60) =     10.20741  eV     1   --> A              
     e( 61 - 61) =     10.59545  eV     1   --> A              
     e( 62 - 62) =     11.19756  eV     1   --> A              
     e( 63 - 63) =     11.34192  eV     1   --> A              
     e( 64 - 64) =     11.52489  eV     1   --> A              
     e( 65 - 65) =     11.68290  eV     1   --> A              
     e( 66 - 66) =     11.73321  eV     1   --> A              
     e( 67 - 67) =     12.84887  eV     1   --> A              
     e( 68 - 68) =     12.94216  eV     1   --> A              
     e( 69 - 69) =     14.00621  eV     1   --> A              
     e( 70 - 70) =     14.13987  eV     1   --> A              
     e( 71 - 71) =     14.27374  eV     1   --> A              
     e( 72 - 72) =     14.33719  eV     1   --> A              
     e( 73 - 73) =     14.45677  eV     1   --> A              
     e( 74 - 74) =     15.16846  eV     1   --> A              
     e( 75 - 75) =     15.90478  eV     1   --> A              
     e( 76 - 76) =     16.05007  eV     1   --> A              
     e( 77 - 77) =     16.10644  eV     1   --> A              
     e( 78 - 78) =     16.28235  eV     1   --> A              
     e( 79 - 79) =     16.35570  eV     1   --> A              
     e( 80 - 80) =     16.41889  eV     1   --> A              
     e( 81 - 81) =     16.78634  eV     1   --> A              
     e( 82 - 82) =     17.18850  eV     1   --> A              
     e( 83 - 83) =     17.24517  eV     1   --> A              
     e( 84 - 84) =     17.39500  eV     1   --> A              
     e( 85 - 85) =     17.45018  eV     1   --> A              
     e( 86 - 86) =     17.49690  eV     1   --> A              
     e( 87 - 87) =     17.57841  eV     1   --> A              
     e( 88 - 88) =     17.61380  eV     1   --> A              
     e( 89 - 89) =     17.73183  eV     1   --> A              
     e( 90 - 90) =     17.80012  eV     1   --> A              
     e( 91 - 91) =     17.82089  eV     1   --> A              
     e( 92 - 92) =     17.91046  eV     1   --> A              
     e( 93 - 93) =     18.01956  eV     1   --> A              
     e( 94 - 94) =     18.28393  eV     1   --> A              
     e( 95 - 95) =     19.14422  eV     1   --> A              
     e( 96 - 96) =     19.22363  eV     1   --> A              
     e( 97 - 97) =     19.30319  eV     1   --> A              
     e( 98 - 98) =     19.39660  eV     1   --> A              
     e( 99 - 99) =     19.42286  eV     1   --> A              
     e(100 -100) =     19.52312  eV     1   --> A              

 **************************************************************************

 **************************************************************************

                    xk=(   0.01429,   0.00825,   0.00000  )

     Band symmetry, C_1 (1)     point group:

     e(  1 -  1) =    -34.63364  eV     1   --> A              
     e(  2 -  2) =    -34.63352  eV     1   --> A              
     e(  3 -  3) =    -34.62793  eV     1   --> A              
     e(  4 -  4) =    -34.62778  eV     1   --> A              
     e(  5 -  5) =    -34.60589  eV     1   --> A              
     e(  6 -  6) =    -34.60375  eV     1   --> A              
     e(  7 -  7) =    -34.59992  eV     1   --> A              
     e(  8 -  8) =    -34.59829  eV     1   --> A              
     e(  9 -  9) =    -34.59441  eV     1   --> A              
     e( 10 - 10) =    -34.58871  eV     1   --> A              
     e( 11 - 11) =    -34.52121  eV     1   --> A              
     e( 12 - 12) =    -34.51089  eV     1   --> A              
     e( 13 - 13) =    -34.50749  eV     1   --> A              
     e( 14 - 14) =    -34.47126  eV     1   --> A              
     e( 15 - 15) =    -34.47111  eV     1   --> A              
     e( 16 - 17) =    -27.39146  eV     2   -->   2 A              
     e( 18 - 19) =    -27.38745  eV     2   -->   2 A              
     e( 20 - 20) =    -27.38284  eV     1   --> A              
     e( 21 - 21) =    -27.37965  eV     1   --> A              
     e( 22 - 22) =    -27.37898  eV     1   --> A              
     e( 23 - 23) =    -27.37886  eV     1   --> A              
     e( 24 - 24) =    -27.37565  eV     1   --> A              
     e( 25 - 25) =    -27.37500  eV     1   --> A              
     e( 26 - 26) =    -10.61573  eV     1   --> A              
     e( 27 - 27) =    -10.08847  eV     1   --> A              
     e( 28 - 28) =     -9.00319  eV     1   --> A              
     e( 29 - 29) =     -6.24776  eV     1   --> A              
     e( 30 - 30) =     -4.83965  eV     1   --> A              
     e( 31 - 31) =     -0.15044  eV     1   --> A              
     e( 32 - 32) =      0.23258  eV     1   --> A              
     e( 33 - 33) =      0.33124  eV     1   --> A              
     e( 34 - 34) =      0.45753  eV     1   --> A              
     e( 35 - 35) =      0.53747  eV     1   --> A              
     e( 36 - 36) =      0.86583  eV     1   --> A              
     e( 37 - 37) =      1.07404  eV     1   --> A              
     e( 38 - 38) =      1.13710  eV     1   --> A              
     e( 39 - 39) =      1.41102  eV     1   --> A              
     e( 40 - 40) =      2.46073  eV     1   --> A              
     e( 41 - 41) =      2.87045  eV     1   --> A              
     e( 42 - 42) =      2.92556  eV     1   --> A              
     e( 43 - 43) =      3.90504  eV     1   --> A              
     e( 44 - 44) =      3.95448  eV     1   --> A              
     e( 45 - 45) =      3.98127  eV     1   --> A              
     e( 46 - 46) =      6.27244  eV     1   --> A              
     e( 47 - 47) =      6.46871  eV     1   --> A              
     e( 48 - 48) =      7.01769  eV     1   --> A              
     e( 49 - 49) =      7.68885  eV     1   --> A              
     e( 50 - 50) =      7.69348  eV     1   --> A              
     e( 51 - 51) =      7.85612  eV     1   --> A              
     e( 52 - 52) =      8.47637  eV     1   --> A              
     e( 53 - 53) =      8.70954  eV     1   --> A              
     e( 54 - 54) =      8.85585  eV     1   --> A              
     e( 55 - 55) =      9.01134  eV     1   --> A              
     e( 56 - 56) =      9.15723  eV     1   --> A              
     e( 57 - 57) =      9.72643  eV     1   --> A              
     e( 58 - 58) =      9.76970  eV     1   --> A              
     e( 59 - 59) =     10.07838  eV     1   --> A              
     e( 60 - 60) =     10.21566  eV     1   --> A              
     e( 61 - 61) =     10.60404  eV     1   --> A              
     e( 62 - 62) =     11.19107  eV     1   --> A              
     e( 63 - 63) =     11.32733  eV     1   --> A              
     e( 64 - 64) =     11.48309  eV     1   --> A              
     e( 65 - 65) =     11.73279  eV     1   --> A              
     e( 66 - 66) =     11.75688  eV     1   --> A              
     e( 67 - 67) =     12.84816  eV     1   --> A              
     e( 68 - 68) =     12.94603  eV     1   --> A              
     e( 69 - 69) =     13.96911  eV     1   --> A              
     e( 70 - 70) =     14.10436  eV     1   --> A              
     e( 71 - 71) =     14.29412  eV     1   --> A              
     e( 72 - 72) =     14.36915  eV     1   --> A              
     e( 73 - 73) =     14.47378  eV     1   --> A              
     e( 74 - 74) =     15.17851  eV     1   --> A              
     e( 75 - 75) =     15.85270  eV     1   --> A              
     e( 76 - 76) =     16.01508  eV     1   --> A              
     e( 77 - 77) =     16.09205  eV     1   --> A              
     e( 78 - 78) =     16.32811  eV     1   --> A              
     e( 79 - 79) =     16.38904  eV     1   --> A              
     e( 80 - 80) =     16.42493  eV     1   --> A              
     e( 81 - 81) =     16.80292  eV     1   --> A              
     e( 82 - 82) =     17.07592  eV     1   --> A              
     e( 83 - 83) =     17.21995  eV     1   --> A              
     e( 84 - 84) =     17.34137  eV     1   --> A              
     e( 85 - 85) =     17.44051  eV     1   --> A              
     e( 86 - 86) =     17.49264  eV     1   --> A              
     e( 87 - 87) =     17.57676  eV     1   --> A              
     e( 88 - 88) =     17.63163  eV     1   --> A              
     e( 89 - 89) =     17.71051  eV     1   --> A              
     e( 90 - 90) =     17.79851  eV     1   --> A              
     e( 91 - 91) =     17.92397  eV     1   --> A              
     e( 92 - 92) =     17.98517  eV     1   --> A              
     e( 93 - 93) =     18.06204  eV     1   --> A              
     e( 94 - 94) =     18.31992  eV     1   --> A              
     e( 95 - 95) =     19.03239  eV     1   --> A              
     e( 96 - 96) =     19.14459  eV     1   --> A              
     e( 97 - 97) =     19.24111  eV     1   --> A              
     e( 98 - 98) =     19.42133  eV     1   --> A              
     e( 99 - 99) =     19.47392  eV     1   --> A              
     e(100 -100) =     19.49517  eV     1   --> A              

 **************************************************************************

 **************************************************************************

                    xk=(   0.02143,   0.01237,   0.00000  )

     Band symmetry, C_1 (1)     point group:

     e(  1 -  1) =    -34.63364  eV     1   --> A              
     e(  2 -  2) =    -34.63351  eV     1   --> A              
     e(  3 -  3) =    -34.62793  eV     1   --> A              
     e(  4 -  4) =    -34.62778  eV     1   --> A              
     e(  5 -  5) =    -34.60589  eV     1   --> A              
     e(  6 -  6) =    -34.60375  eV     1   --> A              
     e(  7 -  7) =    -34.59992  eV     1   --> A              
     e(  8 -  8) =    -34.59829  eV     1   --> A              
     e(  9 -  9) =    -34.59440  eV     1   --> A              
     e( 10 - 10) =    -34.58871  eV     1   --> A              
     e( 11 - 11) =    -34.52121  eV     1   --> A              
     e( 12 - 12) =    -34.51089  eV     1   --> A              
     e( 13 - 13) =    -34.50750  eV     1   --> A              
     e( 14 - 14) =    -34.47125  eV     1   --> A              
     e( 15 - 15) =    -34.47111  eV     1   --> A              
     e( 16 - 17) =    -27.39146  eV     2   -->   2 A              
     e( 18 - 19) =    -27.38744  eV     2   -->   2 A              
     e( 20 - 20) =    -27.38284  eV     1   --> A              
     e( 21 - 21) =    -27.37965  eV     1   --> A              
     e( 22 - 22) =    -27.37899  eV     1   --> A              
     e( 23 - 23) =    -27.37885  eV     1   --> A              
     e( 24 - 24) =    -27.37565  eV     1   --> A              
     e( 25 - 25) =    -27.37500  eV     1   --> A              
     e( 26 - 26) =    -10.61352  eV     1   --> A              
     e( 27 - 27) =    -10.08644  eV     1   --> A              
     e( 28 - 28) =     -9.00193  eV     1   --> A              
     e( 29 - 29) =     -6.24797  eV     1   --> A              
     e( 30 - 30) =     -4.84334  eV     1   --> A              
     e( 31 - 31) =     -0.15545  eV     1   --> A              
     e( 32 - 32) =      0.20524  eV     1   --> A              
     e( 33 - 33) =      0.31918  eV     1   --> A              
     e( 34 - 34) =      0.43500  eV     1   --> A              
     e( 35 - 35) =      0.53432  eV     1   --> A              
     e( 36 - 36) =      0.87472  eV     1   --> A              
     e( 37 - 37) =      1.06508  eV     1   --> A              
     e( 38 - 38) =      1.14015  eV     1   --> A              
     e( 39 - 39) =      1.43639  eV     1   --> A              
     e( 40 - 40) =      2.48916  eV     1   --> A              
     e( 41 - 41) =      2.85251  eV     1   --> A              
     e( 42 - 42) =      2.92906  eV     1   --> A              
     e( 43 - 43) =      3.92193  eV     1   --> A              
     e( 44 - 44) =      3.95384  eV     1   --> A              
     e( 45 - 45) =      3.98627  eV     1   --> A              
     e( 46 - 46) =      6.27656  eV     1   --> A              
     e( 47 - 47) =      6.46968  eV     1   --> A              
     e( 48 - 48) =      7.01870  eV     1   --> A              
     e( 49 - 49) =      7.67424  eV     1   --> A              
     e( 50 - 50) =      7.69085  eV     1   --> A              
     e( 51 - 51) =      7.85933  eV     1   --> A              
     e( 52 - 52) =      8.49143  eV     1   --> A              
     e( 53 - 53) =      8.70507  eV     1   --> A              
     e( 54 - 54) =      8.84142  eV     1   --> A              
     e( 55 - 55) =      9.01627  eV     1   --> A              
     e( 56 - 56) =      9.15404  eV     1   --> A              
     e( 57 - 57) =      9.74848  eV     1   --> A              
     e( 58 - 58) =      9.78149  eV     1   --> A              
     e( 59 - 59) =     10.07545  eV     1   --> A              
     e( 60 - 60) =     10.22940  eV     1   --> A              
     e( 61 - 61) =     10.61847  eV     1   --> A              
     e( 62 - 62) =     11.17853  eV     1   --> A              
     e( 63 - 63) =     11.30549  eV     1   --> A              
     e( 64 - 64) =     11.44474  eV     1   --> A              
     e( 65 - 65) =     11.77427  eV     1   --> A              
     e( 66 - 66) =     11.80569  eV     1   --> A              
     e( 67 - 67) =     12.84706  eV     1   --> A              
     e( 68 - 68) =     12.95240  eV     1   --> A              
     e( 69 - 69) =     13.91922  eV     1   --> A              
     e( 70 - 70) =     14.06201  eV     1   --> A              
     e( 71 - 71) =     14.31064  eV     1   --> A              
     e( 72 - 72) =     14.40976  eV     1   --> A              
     e( 73 - 73) =     14.50473  eV     1   --> A              
     e( 74 - 74) =     15.19052  eV     1   --> A              
     e( 75 - 75) =     15.78689  eV     1   --> A              
     e( 76 - 76) =     15.97290  eV     1   --> A              
     e( 77 - 77) =     16.07602  eV     1   --> A              
     e( 78 - 78) =     16.36432  eV     1   --> A              
     e( 79 - 79) =     16.42853  eV     1   --> A              
     e( 80 - 80) =     16.44683  eV     1   --> A              
     e( 81 - 81) =     16.83026  eV     1   --> A              
     e( 82 - 82) =     16.95760  eV     1   --> A              
     e( 83 - 83) =     17.16761  eV     1   --> A              
     e( 84 - 84) =     17.28103  eV     1   --> A              
     e( 85 - 85) =     17.37597  eV     1   --> A              
     e( 86 - 86) =     17.45985  eV     1   --> A              
     e( 87 - 87) =     17.57825  eV     1   --> A              
     e( 88 - 88) =     17.68351  eV     1   --> A              
     e( 89 - 89) =     17.75985  eV     1   --> A              
     e( 90 - 90) =     17.78681  eV     1   --> A              
     e( 91 - 91) =     18.01514  eV     1   --> A              
     e( 92 - 92) =     18.08682  eV     1   --> A              
     e( 93 - 93) =     18.12646  eV     1   --> A              
     e( 94 - 94) =     18.37487  eV     1   --> A              
     e( 95 - 95) =     18.91564  eV     1   --> A              
     e( 96 - 96) =     19.04407  eV     1   --> A              
     e( 97 - 97) =     19.17453  eV     1   --> A              
     e( 98 - 98) =     19.38991  eV     1   --> A              
     e( 99 - 99) =     19.45217  eV     1   --> A              
     e(100 -100) =     19.50361  eV     1   --> A              

 **************************************************************************

 **************************************************************************

                    xk=(   0.02857,   0.01650,   0.00000  )

     Band symmetry, C_1 (1)     point group:

     e(  1 -  1) =    -34.63363  eV     1   --> A              
     e(  2 -  2) =    -34.63351  eV     1   --> A              
     e(  3 -  3) =    -34.62793  eV     1   --> A              
     e(  4 -  4) =    -34.62778  eV     1   --> A              
     e(  5 -  5) =    -34.60589  eV     1   --> A              
     e(  6 -  6) =    -34.60375  eV     1   --> A              
     e(  7 -  7) =    -34.59992  eV     1   --> A              
     e(  8 -  8) =    -34.59829  eV     1   --> A              
     e(  9 -  9) =    -34.59440  eV     1   --> A              
     e( 10 - 10) =    -34.58871  eV     1   --> A              
     e( 11 - 11) =    -34.52121  eV     1   --> A              
     e( 12 - 12) =    -34.51089  eV     1   --> A              
     e( 13 - 13) =    -34.50750  eV     1   --> A              
     e( 14 - 14) =    -34.47125  eV     1   --> A              
     e( 15 - 15) =    -34.47110  eV     1   --> A              
     e( 16 - 17) =    -27.39145  eV     2   -->   2 A              
     e( 18 - 19) =    -27.38744  eV     2   -->   2 A              
     e( 20 - 20) =    -27.38283  eV     1   --> A              
     e( 21 - 21) =    -27.37966  eV     1   --> A              
     e( 22 - 22) =    -27.37899  eV     1   --> A              
     e( 23 - 23) =    -27.37885  eV     1   --> A              
     e( 24 - 24) =    -27.37566  eV     1   --> A              
     e( 25 - 25) =    -27.37500  eV     1   --> A              
     e( 26 - 26) =    -10.61046  eV     1   --> A              
     e( 27 - 27) =    -10.08362  eV     1   --> A              
     e( 28 - 28) =     -9.00017  eV     1   --> A              
     e( 29 - 29) =     -6.24832  eV     1   --> A              
     e( 30 - 30) =     -4.84854  eV     1   --> A              
     e( 31 - 31) =     -0.16306  eV     1   --> A              
     e( 32 - 32) =      0.16946  eV     1   --> A              
     e( 33 - 33) =      0.30366  eV     1   --> A              
     e( 34 - 34) =      0.40583  eV     1   --> A              
     e( 35 - 35) =      0.53035  eV     1   --> A              
     e( 36 - 36) =      0.87710  eV     1   --> A              
     e( 37 - 37) =      1.06029  eV     1   --> A              
     e( 38 - 38) =      1.14442  eV     1   --> A              
     e( 39 - 39) =      1.46969  eV     1   --> A              
     e( 40 - 40) =      2.52625  eV     1   --> A              
     e( 41 - 41) =      2.82967  eV     1   --> A              
     e( 42 - 42) =      2.93457  eV     1   --> A              
     e( 43 - 43) =      3.93258  eV     1   --> A              
     e( 44 - 44) =      3.95796  eV     1   --> A              
     e( 45 - 45) =      3.99954  eV     1   --> A              
     e( 46 - 46) =      6.28228  eV     1   --> A              
     e( 47 - 47) =      6.47102  eV     1   --> A              
     e( 48 - 48) =      7.01996  eV     1   --> A              
     e( 49 - 49) =      7.65008  eV     1   --> A              
     e( 50 - 50) =      7.69204  eV     1   --> A              
     e( 51 - 51) =      7.86442  eV     1   --> A              
     e( 52 - 52) =      8.51077  eV     1   --> A              
     e( 53 - 53) =      8.69687  eV     1   --> A              
     e( 54 - 54) =      8.82404  eV     1   --> A              
     e( 55 - 55) =      9.02514  eV     1   --> A              
     e( 56 - 56) =      9.15031  eV     1   --> A              
     e( 57 - 57) =      9.77387  eV     1   --> A              
     e( 58 - 58) =      9.79738  eV     1   --> A              
     e( 59 - 59) =     10.07385  eV     1   --> A              
     e( 60 - 60) =     10.24861  eV     1   --> A              
     e( 61 - 61) =     10.63883  eV     1   --> A              
     e( 62 - 62) =     11.15814  eV     1   --> A              
     e( 63 - 63) =     11.27910  eV     1   --> A              
     e( 64 - 64) =     11.41587  eV     1   --> A              
     e( 65 - 65) =     11.81292  eV     1   --> A              
     e( 66 - 66) =     11.86676  eV     1   --> A              
     e( 67 - 67) =     12.84565  eV     1   --> A              
     e( 68 - 68) =     12.96120  eV     1   --> A              
     e( 69 - 69) =     13.86316  eV     1   --> A              
     e( 70 - 70) =     14.01756  eV     1   --> A              
     e( 71 - 71) =     14.32025  eV     1   --> A              
     e( 72 - 72) =     14.45400  eV     1   --> A              
     e( 73 - 73) =     14.54776  eV     1   --> A              
     e( 74 - 74) =     15.19689  eV     1   --> A              
     e( 75 - 75) =     15.72418  eV     1   --> A              
     e( 76 - 76) =     15.92851  eV     1   --> A              
     e( 77 - 77) =     16.05738  eV     1   --> A              
     e( 78 - 78) =     16.37943  eV     1   --> A              
     e( 79 - 79) =     16.45815  eV     1   --> A              
     e( 80 - 80) =     16.49487  eV     1   --> A              
     e( 81 - 81) =     16.82564  eV     1   --> A              
     e( 82 - 82) =     16.88076  eV     1   --> A              
     e( 83 - 83) =     17.08433  eV     1   --> A              
     e( 84 - 84) =     17.22012  eV     1   --> A              
     e( 85 - 85) =     17.33721  eV     1   --> A              
     e( 86 - 86) =     17.42331  eV     1   --> A              
     e( 87 - 87) =     17.52241  eV     1   --> A              
     e( 88 - 88) =     17.76485  eV     1   --> A              
     e( 89 - 89) =     17.77934  eV     1   --> A              
     e( 90 - 90) =     17.84556  eV     1   --> A              
     e( 91 - 91) =     18.09468  eV     1   --> A              
     e( 92 - 92) =     18.19659  eV     1   --> A              
     e( 93 - 93) =     18.20626  eV     1   --> A              
     e( 94 - 94) =     18.44463  eV     1   --> A              
     e( 95 - 95) =     18.80388  eV     1   --> A              
     e( 96 - 96) =     18.93188  eV     1   --> A              
     e( 97 - 97) =     19.10815  eV     1   --> A              
     e( 98 - 98) =     19.34321  eV     1   --> A              
     e( 99 - 99) =     19.41202  eV     1   --> A              
     e(100 -100) =     19.47205  eV     1   --> A              

 **************************************************************************

 **************************************************************************

                    xk=(   0.03571,   0.02062,   0.00000  )

     Band symmetry, C_1 (1)     point group:

     e(  1 -  1) =    -34.63363  eV     1   --> A              
     e(  2 -  2) =    -34.63351  eV     1   --> A              
     e(  3 -  3) =    -34.62792  eV     1   --> A              
     e(  4 -  4) =    -34.62777  eV     1   --> A              
     e(  5 -  5) =    -34.60589  eV     1   --> A              
     e(  6 -  6) =    -34.60375  eV     1   --> A              
     e(  7 -  7) =    -34.59992  eV     1   --> A              
     e(  8 -  8) =    -34.59829  eV     1   --> A              
     e(  9 -  9) =    -34.59440  eV     1   --> A              
     e( 10 - 10) =    -34.58871  eV     1   --> A              
     e( 11 - 11) =    -34.52121  eV     1   --> A              
     e( 12 - 12) =    -34.51089  eV     1   --> A              
     e( 13 - 13) =    -34.50750  eV     1   --> A              
     e( 14 - 14) =    -34.47125  eV     1   --> A              
     e( 15 - 15) =    -34.47110  eV     1   --> A              
     e( 16 - 17) =    -27.39145  eV     2   -->   2 A              
     e( 18 - 19) =    -27.38743  eV     2   -->   2 A              
     e( 20 - 20) =    -27.38282  eV     1   --> A              
     e( 21 - 21) =    -27.37968  eV     1   --> A              
     e( 22 - 22) =    -27.37899  eV     1   --> A              
     e( 23 - 23) =    -27.37884  eV     1   --> A              
     e( 24 - 24) =    -27.37567  eV     1   --> A              
     e( 25 - 25) =    -27.37500  eV     1   --> A              
     e( 26 - 26) =    -10.60650  eV     1   --> A              
     e( 27 - 27) =    -10.07996  eV     1   --> A              
     e( 28 - 28) =     -8.99791  eV     1   --> A              
     e( 29 - 29) =     -6.24876  eV     1   --> A              
     e( 30 - 30) =     -4.85518  eV     1   --> A              
     e( 31 - 31) =     -0.17396  eV     1   --> A              
     e( 32 - 32) =      0.12739  eV     1   --> A              
     e( 33 - 33) =      0.28513  eV     1   --> A              
     e( 34 - 34) =      0.37232  eV     1   --> A              
     e( 35 - 35) =      0.52532  eV     1   --> A              
     e( 36 - 36) =      0.86493  eV     1   --> A              
     e( 37 - 37) =      1.06715  eV     1   --> A              
     e( 38 - 38) =      1.14979  eV     1   --> A              
     e( 39 - 39) =      1.50863  eV     1   --> A              
     e( 40 - 40) =      2.56909  eV     1   --> A              
     e( 41 - 41) =      2.80517  eV     1   --> A              
     e( 42 - 42) =      2.94195  eV     1   --> A              
     e( 43 - 43) =      3.92841  eV     1   --> A              
     e( 44 - 44) =      3.97007  eV     1   --> A              
     e( 45 - 45) =      4.02523  eV     1   --> A              
     e( 46 - 46) =      6.28957  eV     1   --> A              
     e( 47 - 47) =      6.47271  eV     1   --> A              
     e( 48 - 48) =      7.02131  eV     1   --> A              
     e( 49 - 49) =      7.62107  eV     1   --> A              
     e( 50 - 50) =      7.69356  eV     1   --> A              
     e( 51 - 51) =      7.87158  eV     1   --> A              
     e( 52 - 52) =      8.53308  eV     1   --> A              
     e( 53 - 53) =      8.68287  eV     1   --> A              
     e( 54 - 54) =      8.80773  eV     1   --> A              
     e( 55 - 55) =      9.03793  eV     1   --> A              
     e( 56 - 56) =      9.14660  eV     1   --> A              
     e( 57 - 57) =      9.79873  eV     1   --> A              
     e( 58 - 58) =      9.81596  eV     1   --> A              
     e( 59 - 59) =     10.07660  eV     1   --> A              
     e( 60 - 60) =     10.27309  eV     1   --> A              
     e( 61 - 61) =     10.66523  eV     1   --> A              
     e( 62 - 62) =     11.12922  eV     1   --> A              
     e( 63 - 63) =     11.25109  eV     1   --> A              
     e( 64 - 64) =     11.39772  eV     1   --> A              
     e( 65 - 65) =     11.85539  eV     1   --> A              
     e( 66 - 66) =     11.92951  eV     1   --> A              
     e( 67 - 67) =     12.84405  eV     1   --> A              
     e( 68 - 68) =     12.97233  eV     1   --> A              
     e( 69 - 69) =     13.80468  eV     1   --> A              
     e( 70 - 70) =     13.97286  eV     1   --> A              
     e( 71 - 71) =     14.32580  eV     1   --> A              
     e( 72 - 72) =     14.49945  eV     1   --> A              
     e( 73 - 73) =     14.59818  eV     1   --> A              
     e( 74 - 74) =     15.18746  eV     1   --> A              
     e( 75 - 75) =     15.67824  eV     1   --> A              
     e( 76 - 76) =     15.88439  eV     1   --> A              
     e( 77 - 77) =     16.03524  eV     1   --> A              
     e( 78 - 78) =     16.38152  eV     1   --> A              
     e( 79 - 79) =     16.47941  eV     1   --> A              
     e( 80 - 80) =     16.55011  eV     1   --> A              
     e( 81 - 81) =     16.72185  eV     1   --> A              
     e( 82 - 82) =     16.88334  eV     1   --> A              
     e( 83 - 83) =     17.02159  eV     1   --> A              
     e( 84 - 84) =     17.16207  eV     1   --> A              
     e( 85 - 85) =     17.30341  eV     1   --> A              
     e( 86 - 86) =     17.38924  eV     1   --> A              
     e( 87 - 87) =     17.46579  eV     1   --> A              
     e( 88 - 88) =     17.77417  eV     1   --> A              
     e( 89 - 89) =     17.85416  eV     1   --> A              
     e( 90 - 90) =     17.93546  eV     1   --> A              
     e( 91 - 91) =     18.17162  eV     1   --> A              
     e( 92 - 92) =     18.28229  eV     1   --> A              
     e( 93 - 93) =     18.30912  eV     1   --> A              
     e( 94 - 94) =     18.51942  eV     1   --> A              
     e( 95 - 95) =     18.71364  eV     1   --> A              
     e( 96 - 96) =     18.81477  eV     1   --> A              
     e( 97 - 97) =     19.04254  eV     1   --> A              
     e( 98 - 98) =     19.29137  eV     1   --> A              
     e( 99 - 99) =     19.36800  eV     1   --> A              
     e(100 -100) =     19.42451  eV     1   --> A              

 **************************************************************************

 **************************************************************************

                    xk=(   0.04286,   0.02474,   0.00000  )

     Band symmetry, C_1 (1)     point group:

     e(  1 -  1) =    -34.63362  eV     1   --> A              
     e(  2 -  2) =    -34.63351  eV     1   --> A              
     e(  3 -  3) =    -34.62791  eV     1   --> A              
     e(  4 -  4) =    -34.62777  eV     1   --> A              
     e(  5 -  5) =    -34.60589  eV     1   --> A              
     e(  6 -  6) =    -34.60375  eV     1   --> A              
     e(  7 -  7) =    -34.59992  eV     1   --> A              
     e(  8 -  8) =    -34.59829  eV     1   --> A              
     e(  9 -  9) =    -34.59439  eV     1   --> A              
     e( 10 - 10) =    -34.58870  eV     1   --> A              
     e( 11 - 11) =    -34.52120  eV     1   --> A              
     e( 12 - 12) =    -34.51090  eV     1   --> A              
     e( 13 - 13) =    -34.50750  eV     1   --> A              
     e( 14 - 14) =    -34.47125  eV     1   --> A              
     e( 15 - 15) =    -34.47109  eV     1   --> A              
     e( 16 - 17) =    -27.39145  eV     2   -->   2 A              
     e( 18 - 19) =    -27.38743  eV     2   -->   2 A              
     e( 20 - 20) =    -27.38281  eV     1   --> A              
     e( 21 - 21) =    -27.37969  eV     1   --> A              
     e( 22 - 22) =    -27.37900  eV     1   --> A              
     e( 23 - 23) =    -27.37883  eV     1   --> A              
     e( 24 - 24) =    -27.37569  eV     1   --> A              
     e( 25 - 25) =    -27.37501  eV     1   --> A              
     e( 26 - 26) =    -10.60165  eV     1   --> A              
     e( 27 - 27) =    -10.07550  eV     1   --> A              
     e( 28 - 28) =     -8.99512  eV     1   --> A              
     e( 29 - 29) =     -6.24929  eV     1   --> A              
     e( 30 - 30) =     -4.86331  eV     1   --> A              
     e( 31 - 31) =     -0.18919  eV     1   --> A              
     e( 32 - 32) =      0.08134  eV     1   --> A              
     e( 33 - 33) =      0.26390  eV     1   --> A              
     e( 34 - 34) =      0.33662  eV     1   --> A              
     e( 35 - 35) =      0.51900  eV     1   --> A              
     e( 36 - 36) =      0.83617  eV     1   --> A              
     e( 37 - 37) =      1.08770  eV     1   --> A              
     e( 38 - 38) =      1.15612  eV     1   --> A              
     e( 39 - 39) =      1.55069  eV     1   --> A              
     e( 40 - 40) =      2.61232  eV     1   --> A              
     e( 41 - 41) =      2.78479  eV     1   --> A              
     e( 42 - 42) =      2.95111  eV     1   --> A              
     e( 43 - 43) =      3.91804  eV     1   --> A              
     e( 44 - 44) =      3.98221  eV     1   --> A              
     e( 45 - 45) =      4.06155  eV     1   --> A              
     e( 46 - 46) =      6.29838  eV     1   --> A              
     e( 47 - 47) =      6.47473  eV     1   --> A              
     e( 48 - 48) =      7.02251  eV     1   --> A              
     e( 49 - 49) =      7.58870  eV     1   --> A              
     e( 50 - 50) =      7.69529  eV     1   --> A              
     e( 51 - 51) =      7.88080  eV     1   --> A              
     e( 52 - 52) =      8.55705  eV     1   --> A              
     e( 53 - 53) =      8.66167  eV     1   --> A              
     e( 54 - 54) =      8.79609  eV     1   --> A              
     e( 55 - 55) =      9.05399  eV     1   --> A              
     e( 56 - 56) =      9.14359  eV     1   --> A              
     e( 57 - 57) =      9.81930  eV     1   --> A              
     e( 58 - 58) =      9.83536  eV     1   --> A              
     e( 59 - 59) =     10.08757  eV     1   --> A              
     e( 60 - 60) =     10.30248  eV     1   --> A              
     e( 61 - 61) =     10.69771  eV     1   --> A              
     e( 62 - 62) =     11.09331  eV     1   --> A              
     e( 63 - 63) =     11.22380  eV     1   --> A              
     e( 64 - 64) =     11.38868  eV     1   --> A              
     e( 65 - 65) =     11.90124  eV     1   --> A              
     e( 66 - 66) =     11.99168  eV     1   --> A              
     e( 67 - 67) =     12.84239  eV     1   --> A              
     e( 68 - 68) =     12.98564  eV     1   --> A              
     e( 69 - 69) =     13.74616  eV     1   --> A              
     e( 70 - 70) =     13.92880  eV     1   --> A              
     e( 71 - 71) =     14.33078  eV     1   --> A              
     e( 72 - 72) =     14.54447  eV     1   --> A              
     e( 73 - 73) =     14.65149  eV     1   --> A              
     e( 74 - 74) =     15.15456  eV     1   --> A              
     e( 75 - 75) =     15.65715  eV     1   --> A              
     e( 76 - 76) =     15.84228  eV     1   --> A              
     e( 77 - 77) =     16.00964  eV     1   --> A              
     e( 78 - 78) =     16.37290  eV     1   --> A              
     e( 79 - 79) =     16.48492  eV     1   --> A              
     e( 80 - 80) =     16.60557  eV     1   --> A              
     e( 81 - 81) =     16.62823  eV     1   --> A              
     e( 82 - 82) =     16.81140  eV     1   --> A              
     e( 83 - 83) =     17.03860  eV     1   --> A              
     e( 84 - 84) =     17.11325  eV     1   --> A              
     e( 85 - 85) =     17.26667  eV     1   --> A              
     e( 86 - 86) =     17.35433  eV     1   --> A              
     e( 87 - 87) =     17.41363  eV     1   --> A              
     e( 88 - 88) =     17.79433  eV     1   --> A              
     e( 89 - 89) =     17.93099  eV     1   --> A              
     e( 90 - 90) =     18.02538  eV     1   --> A              
     e( 91 - 91) =     18.24648  eV     1   --> A              
     e( 92 - 92) =     18.33729  eV     1   --> A              
     e( 93 - 93) =     18.41439  eV     1   --> A              
     e( 94 - 94) =     18.55651  eV     1   --> A              
     e( 95 - 95) =     18.69775  eV     1   --> A              
     e( 96 - 96) =     18.70736  eV     1   --> A              
     e( 97 - 97) =     18.97795  eV     1   --> A              
     e( 98 - 98) =     19.23802  eV     1   --> A              
     e( 99 - 99) =     19.32462  eV     1   --> A              
     e(100 -100) =     19.37289  eV     1   --> A              

 **************************************************************************

 **************************************************************************

                    xk=(   0.05000,   0.02887,   0.00000  )

     Band symmetry, C_1 (1)     point group:

     e(  1 -  1) =    -34.63361  eV     1   --> A              
     e(  2 -  2) =    -34.63351  eV     1   --> A              
     e(  3 -  3) =    -34.62791  eV     1   --> A              
     e(  4 -  4) =    -34.62777  eV     1   --> A              
     e(  5 -  5) =    -34.60589  eV     1   --> A              
     e(  6 -  6) =    -34.60375  eV     1   --> A              
     e(  7 -  7) =    -34.59993  eV     1   --> A              
     e(  8 -  8) =    -34.59829  eV     1   --> A              
     e(  9 -  9) =    -34.59439  eV     1   --> A              
     e( 10 - 10) =    -34.58870  eV     1   --> A              
     e( 11 - 11) =    -34.52120  eV     1   --> A              
     e( 12 - 12) =    -34.51090  eV     1   --> A              
     e( 13 - 13) =    -34.50750  eV     1   --> A              
     e( 14 - 14) =    -34.47125  eV     1   --> A              
     e( 15 - 15) =    -34.47109  eV     1   --> A              
     e( 16 - 17) =    -27.39145  eV     2   -->   2 A              
     e( 18 - 19) =    -27.38743  eV     2   -->   2 A              
     e( 20 - 20) =    -27.38280  eV     1   --> A              
     e( 21 - 21) =    -27.37971  eV     1   --> A              
     e( 22 - 22) =    -27.37900  eV     1   --> A              
     e( 23 - 23) =    -27.37882  eV     1   --> A              
     e( 24 - 24) =    -27.37571  eV     1   --> A              
     e( 25 - 25) =    -27.37501  eV     1   --> A              
     e( 26 - 26) =    -10.59594  eV     1   --> A              
     e( 27 - 27) =    -10.07026  eV     1   --> A              
     e( 28 - 28) =     -8.99187  eV     1   --> A              
     e( 29 - 29) =     -6.24997  eV     1   --> A              
     e( 30 - 30) =     -4.87295  eV     1   --> A              
     e( 31 - 31) =     -0.21020  eV     1   --> A              
     e( 32 - 32) =      0.03373  eV     1   --> A              
     e( 33 - 33) =      0.24027  eV     1   --> A              
     e( 34 - 34) =      0.30043  eV     1   --> A              
     e( 35 - 35) =      0.51121  eV     1   --> A              
     e( 36 - 36) =      0.79483  eV     1   --> A              
     e( 37 - 37) =      1.11811  eV     1   --> A              
     e( 38 - 38) =      1.16339  eV     1   --> A              
     e( 39 - 39) =      1.59330  eV     1   --> A              
     e( 40 - 40) =      2.64374  eV     1   --> A              
     e( 41 - 41) =      2.78129  eV     1   --> A              
     e( 42 - 42) =      2.96194  eV     1   --> A              
     e( 43 - 43) =      3.90507  eV     1   --> A              
     e( 44 - 44) =      3.99421  eV     1   --> A              
     e( 45 - 45) =      4.10416  eV     1   --> A              
     e( 46 - 46) =      6.30864  eV     1   --> A              
     e( 47 - 47) =      6.47705  eV     1   --> A              
     e( 48 - 48) =      7.02324  eV     1   --> A              
     e( 49 - 49) =      7.55440  eV     1   --> A              
     e( 50 - 50) =      7.69713  eV     1   --> A              
     e( 51 - 51) =      7.89203  eV     1   --> A              
     e( 52 - 52) =      8.58090  eV     1   --> A              
     e( 53 - 53) =      8.63478  eV     1   --> A              
     e( 54 - 54) =      8.79009  eV     1   --> A              
     e( 55 - 55) =      9.07228  eV     1   --> A              
     e( 56 - 56) =      9.14222  eV     1   --> A              
     e( 57 - 57) =      9.82900  eV     1   --> A              
     e( 58 - 58) =      9.85777  eV     1   --> A              
     e( 59 - 59) =     10.10986  eV     1   --> A              
     e( 60 - 60) =     10.33613  eV     1   --> A              
     e( 61 - 61) =     10.73613  eV     1   --> A              
     e( 62 - 62) =     11.05347  eV     1   --> A              
     e( 63 - 63) =     11.19846  eV     1   --> A              
     e( 64 - 64) =     11.38613  eV     1   --> A              
     e( 65 - 65) =     11.94955  eV     1   --> A              
     e( 66 - 66) =     12.05211  eV     1   --> A              
     e( 67 - 67) =     12.84084  eV     1   --> A              
     e( 68 - 68) =     13.00088  eV     1   --> A              
     e( 69 - 69) =     13.68946  eV     1   --> A              
     e( 70 - 70) =     13.88593  eV     1   --> A              
     e( 71 - 71) =     14.33762  eV     1   --> A              
     e( 72 - 72) =     14.58772  eV     1   --> A              
     e( 73 - 73) =     14.70299  eV     1   --> A              
     e( 74 - 74) =     15.10075  eV     1   --> A              
     e( 75 - 75) =     15.65758  eV     1   --> A              
     e( 76 - 76) =     15.80362  eV     1   --> A              
     e( 77 - 77) =     15.98160  eV     1   --> A              
     e( 78 - 78) =     16.34165  eV     1   --> A              
     e( 79 - 79) =     16.47156  eV     1   --> A              
     e( 80 - 80) =     16.55939  eV     1   --> A              
     e( 81 - 81) =     16.65645  eV     1   --> A              
     e( 82 - 82) =     16.72542  eV     1   --> A              
     e( 83 - 83) =     17.03794  eV     1   --> A              
     e( 84 - 84) =     17.11086  eV     1   --> A              
     e( 85 - 85) =     17.23403  eV     1   --> A              
     e( 86 - 86) =     17.31756  eV     1   --> A              
     e( 87 - 87) =     17.36889  eV     1   --> A              
     e( 88 - 88) =     17.82987  eV     1   --> A              
     e( 89 - 89) =     18.00619  eV     1   --> A              
     e( 90 - 90) =     18.10819  eV     1   --> A              
     e( 91 - 91) =     18.29473  eV     1   --> A              
     e( 92 - 92) =     18.35107  eV     1   --> A              
     e( 93 - 93) =     18.50337  eV     1   --> A              
     e( 94 - 94) =     18.56318  eV     1   --> A              
     e( 95 - 95) =     18.61705  eV     1   --> A              
     e( 96 - 96) =     18.79468  eV     1   --> A              
     e( 97 - 97) =     18.91509  eV     1   --> A              
     e( 98 - 98) =     19.18500  eV     1   --> A              
     e( 99 - 99) =     19.28657  eV     1   --> A              
     e(100 -100) =     19.32106  eV     1   --> A              

 **************************************************************************

 **************************************************************************

                    xk=(   0.05714,   0.03299,   0.00000  )

     Band symmetry, C_1 (1)     point group:

     e(  1 -  2) =    -34.63360  eV     2   -->   2 A              
     e(  3 -  3) =    -34.62790  eV     1   --> A              
     e(  4 -  4) =    -34.62777  eV     1   --> A              
     e(  5 -  5) =    -34.60590  eV     1   --> A              
     e(  6 -  6) =    -34.60375  eV     1   --> A              
     e(  7 -  7) =    -34.59993  eV     1   --> A              
     e(  8 -  8) =    -34.59829  eV     1   --> A              
     e(  9 -  9) =    -34.59439  eV     1   --> A              
     e( 10 - 10) =    -34.58869  eV     1   --> A              
     e( 11 - 11) =    -34.52119  eV     1   --> A              
     e( 12 - 12) =    -34.51090  eV     1   --> A              
     e( 13 - 13) =    -34.50750  eV     1   --> A              
     e( 14 - 14) =    -34.47124  eV     1   --> A              
     e( 15 - 15) =    -34.47108  eV     1   --> A              
     e( 16 - 16) =    -27.39145  eV     1   --> A              
     e( 17 - 17) =    -27.39135  eV     1   --> A              
     e( 18 - 18) =    -27.38743  eV     1   --> A              
     e( 19 - 19) =    -27.38731  eV     1   --> A              
     e( 20 - 20) =    -27.38279  eV     1   --> A              
     e( 21 - 21) =    -27.37973  eV     1   --> A              
     e( 22 - 22) =    -27.37900  eV     1   --> A              
     e( 23 - 23) =    -27.37881  eV     1   --> A              
     e( 24 - 24) =    -27.37572  eV     1   --> A              
     e( 25 - 25) =    -27.37501  eV     1   --> A              
     e( 26 - 26) =    -10.58935  eV     1   --> A              
     e( 27 - 27) =    -10.06420  eV     1   --> A              
     e( 28 - 28) =     -8.98811  eV     1   --> A              
     e( 29 - 29) =     -6.25078  eV     1   --> A              
     e( 30 - 30) =     -4.88407  eV     1   --> A              
     e( 31 - 31) =     -0.23873  eV     1   --> A              
     e( 32 - 32) =     -0.01298  eV     1   --> A              
     e( 33 - 33) =      0.21461  eV     1   --> A              
     e( 34 - 34) =      0.26491  eV     1   --> A              
     e( 35 - 35) =      0.50188  eV     1   --> A              
     e( 36 - 36) =      0.74549  eV     1   --> A              
     e( 37 - 37) =      1.15304  eV     1   --> A              
     e( 38 - 38) =      1.17269  eV     1   --> A              
     e( 39 - 39) =      1.63395  eV     1   --> A              
     e( 40 - 40) =      2.64929  eV     1   --> A              
     e( 41 - 41) =      2.80945  eV     1   --> A              
     e( 42 - 42) =      2.97439  eV     1   --> A              
     e( 43 - 43) =      3.89068  eV     1   --> A              
     e( 44 - 44) =      4.00695  eV     1   --> A              
     e( 45 - 45) =      4.15037  eV     1   --> A              
     e( 46 - 46) =      6.32029  eV     1   --> A              
     e( 47 - 47) =      6.47962  eV     1   --> A              
     e( 48 - 48) =      7.02310  eV     1   --> A              
     e( 49 - 49) =      7.51957  eV     1   --> A              
     e( 50 - 50) =      7.69902  eV     1   --> A              
     e( 51 - 51) =      7.90521  eV     1   --> A              
     e( 52 - 52) =      8.59142  eV     1   --> A              
     e( 53 - 53) =      8.61721  eV     1   --> A              
     e( 54 - 54) =      8.78845  eV     1   --> A              
     e( 55 - 55) =      9.09101  eV     1   --> A              
     e( 56 - 56) =      9.14432  eV     1   --> A              
     e( 57 - 57) =      9.82655  eV     1   --> A              
     e( 58 - 58) =      9.88344  eV     1   --> A              
     e( 59 - 59) =     10.14384  eV     1   --> A              
     e( 60 - 60) =     10.37312  eV     1   --> A              
     e( 61 - 61) =     10.77994  eV     1   --> A              
     e( 62 - 62) =     11.01317  eV     1   --> A              
     e( 63 - 63) =     11.17569  eV     1   --> A              
     e( 64 - 64) =     11.38778  eV     1   --> A              
     e( 65 - 65) =     11.99955  eV     1   --> A              
     e( 66 - 66) =     12.10986  eV     1   --> A              
     e( 67 - 67) =     12.83967  eV     1   --> A              
     e( 68 - 68) =     13.01764  eV     1   --> A              
     e( 69 - 69) =     13.63632  eV     1   --> A              
     e( 70 - 70) =     13.84469  eV     1   --> A              
     e( 71 - 71) =     14.34771  eV     1   --> A              
     e( 72 - 72) =     14.62799  eV     1   --> A              
     e( 73 - 73) =     14.74426  eV     1   --> A              
     e( 74 - 74) =     15.04053  eV     1   --> A              
     e( 75 - 75) =     15.66587  eV     1   --> A              
     e( 76 - 76) =     15.76998  eV     1   --> A              
     e( 77 - 77) =     15.95319  eV     1   --> A              
     e( 78 - 78) =     16.27896  eV     1   --> A              
     e( 79 - 79) =     16.45960  eV     1   --> A              
     e( 80 - 80) =     16.48528  eV     1   --> A              
     e( 81 - 81) =     16.67166  eV     1   --> A              
     e( 82 - 82) =     16.70257  eV     1   --> A              
     e( 83 - 83) =     17.00504  eV     1   --> A              
     e( 84 - 84) =     17.12062  eV     1   --> A              
     e( 85 - 85) =     17.21345  eV     1   --> A              
     e( 86 - 86) =     17.28726  eV     1   --> A              
     e( 87 - 87) =     17.34416  eV     1   --> A              
     e( 88 - 88) =     17.87298  eV     1   --> A              
     e( 89 - 89) =     18.07796  eV     1   --> A              
     e( 90 - 90) =     18.16294  eV     1   --> A              
     e( 91 - 91) =     18.26274  eV     1   --> A              
     e( 92 - 92) =     18.41357  eV     1   --> A              
     e( 93 - 93) =     18.45478  eV     1   --> A              
     e( 94 - 94) =     18.59413  eV     1   --> A              
     e( 95 - 95) =     18.69620  eV     1   --> A              
     e( 96 - 96) =     18.84896  eV     1   --> A              
     e( 97 - 97) =     18.90479  eV     1   --> A              
     e( 98 - 98) =     19.13368  eV     1   --> A              
     e( 99 - 99) =     19.26017  eV     1   --> A              
     e(100 -100) =     19.27356  eV     1   --> A              

 **************************************************************************

 **************************************************************************

                    xk=(   0.06429,   0.03712,   0.00000  )

     Band symmetry, C_1 (1)     point group:

     e(  1 -  2) =    -34.63359  eV     2   -->   2 A              
     e(  3 -  3) =    -34.62789  eV     1   --> A              
     e(  4 -  4) =    -34.62776  eV     1   --> A              
     e(  5 -  5) =    -34.60590  eV     1   --> A              
     e(  6 -  6) =    -34.60375  eV     1   --> A              
     e(  7 -  7) =    -34.59993  eV     1   --> A              
     e(  8 -  8) =    -34.59829  eV     1   --> A              
     e(  9 -  9) =    -34.59438  eV     1   --> A              
     e( 10 - 10) =    -34.58869  eV     1   --> A              
     e( 11 - 11) =    -34.52119  eV     1   --> A              
     e( 12 - 12) =    -34.51091  eV     1   --> A              
     e( 13 - 13) =    -34.50750  eV     1   --> A              
     e( 14 - 14) =    -34.47124  eV     1   --> A              
     e( 15 - 15) =    -34.47107  eV     1   --> A              
     e( 16 - 16) =    -27.39146  eV     1   --> A              
     e( 17 - 17) =    -27.39132  eV     1   --> A              
     e( 18 - 18) =    -27.38743  eV     1   --> A              
     e( 19 - 19) =    -27.38728  eV     1   --> A              
     e( 20 - 20) =    -27.38278  eV     1   --> A              
     e( 21 - 21) =    -27.37975  eV     1   --> A              
     e( 22 - 22) =    -27.37901  eV     1   --> A              
     e( 23 - 23) =    -27.37879  eV     1   --> A              
     e( 24 - 24) =    -27.37575  eV     1   --> A              
     e( 25 - 25) =    -27.37502  eV     1   --> A              
     e( 26 - 26) =    -10.58189  eV     1   --> A              
     e( 27 - 27) =    -10.05734  eV     1   --> A              
     e( 28 - 28) =     -8.98391  eV     1   --> A              
     e( 29 - 29) =     -6.25178  eV     1   --> A              
     e( 30 - 30) =     -4.89669  eV     1   --> A              
     e( 31 - 31) =     -0.27630  eV     1   --> A              
     e( 32 - 32) =     -0.05671  eV     1   --> A              
     e( 33 - 33) =      0.18742  eV     1   --> A              
     e( 34 - 34) =      0.23068  eV     1   --> A              
     e( 35 - 35) =      0.49099  eV     1   --> A              
     e( 36 - 36) =      0.69133  eV     1   --> A              
     e( 37 - 37) =      1.17466  eV     1   --> A              
     e( 38 - 38) =      1.19904  eV     1   --> A              
     e( 39 - 39) =      1.67012  eV     1   --> A              
     e( 40 - 40) =      2.63810  eV     1   --> A              
     e( 41 - 41) =      2.86091  eV     1   --> A              
     e( 42 - 42) =      2.98850  eV     1   --> A              
     e( 43 - 43) =      3.87567  eV     1   --> A              
     e( 44 - 44) =      4.02081  eV     1   --> A              
     e( 45 - 45) =      4.19858  eV     1   --> A              
     e( 46 - 46) =      6.33324  eV     1   --> A              
     e( 47 - 47) =      6.48238  eV     1   --> A              
     e( 48 - 48) =      7.02156  eV     1   --> A              
     e( 49 - 49) =      7.48557  eV     1   --> A              
     e( 50 - 50) =      7.70092  eV     1   --> A              
     e( 51 - 51) =      7.92025  eV     1   --> A              
     e( 52 - 52) =      8.56356  eV     1   --> A              
     e( 53 - 53) =      8.63597  eV     1   --> A              
     e( 54 - 54) =      8.78934  eV     1   --> A              
     e( 55 - 55) =      9.10668  eV     1   --> A              
     e( 56 - 56) =      9.15351  eV     1   --> A              
     e( 57 - 57) =      9.81536  eV     1   --> A              
     e( 58 - 58) =      9.91067  eV     1   --> A              
     e( 59 - 59) =     10.18745  eV     1   --> A              
     e( 60 - 60) =     10.41230  eV     1   --> A              
     e( 61 - 61) =     10.82713  eV     1   --> A              
     e( 62 - 62) =     10.97669  eV     1   --> A              
     e( 63 - 63) =     11.15600  eV     1   --> A              
     e( 64 - 64) =     11.39194  eV     1   --> A              
     e( 65 - 65) =     12.05054  eV     1   --> A              
     e( 66 - 66) =     12.16402  eV     1   --> A              
     e( 67 - 67) =     12.83919  eV     1   --> A              
     e( 68 - 68) =     13.03519  eV     1   --> A              
     e( 69 - 69) =     13.58859  eV     1   --> A              
     e( 70 - 70) =     13.80546  eV     1   --> A              
     e( 71 - 71) =     14.36158  eV     1   --> A              
     e( 72 - 72) =     14.66397  eV     1   --> A              
     e( 73 - 73) =     14.75521  eV     1   --> A              
     e( 74 - 74) =     15.00113  eV     1   --> A              
     e( 75 - 75) =     15.66445  eV     1   --> A              
     e( 76 - 76) =     15.74308  eV     1   --> A              
     e( 77 - 77) =     15.92553  eV     1   --> A              
     e( 78 - 78) =     16.20765  eV     1   --> A              
     e( 79 - 79) =     16.38431  eV     1   --> A              
     e( 80 - 80) =     16.45886  eV     1   --> A              
     e( 81 - 81) =     16.66527  eV     1   --> A              
     e( 82 - 82) =     16.72200  eV     1   --> A              
     e( 83 - 83) =     16.98456  eV     1   --> A              
     e( 84 - 84) =     17.09856  eV     1   --> A              
     e( 85 - 85) =     17.18711  eV     1   --> A              
     e( 86 - 86) =     17.25258  eV     1   --> A              
     e( 87 - 87) =     17.37444  eV     1   --> A              
     e( 88 - 88) =     17.90211  eV     1   --> A              
     e( 89 - 89) =     18.11733  eV     1   --> A              
     e( 90 - 90) =     18.17517  eV     1   --> A              
     e( 91 - 91) =     18.25130  eV     1   --> A              
     e( 92 - 92) =     18.39170  eV     1   --> A              
     e( 93 - 93) =     18.49222  eV     1   --> A              
     e( 94 - 94) =     18.66040  eV     1   --> A              
     e( 95 - 95) =     18.78263  eV     1   --> A              
     e( 96 - 96) =     18.81369  eV     1   --> A              
     e( 97 - 97) =     18.99286  eV     1   --> A              
     e( 98 - 98) =     19.08619  eV     1   --> A              
     e( 99 - 99) =     19.22245  eV     1   --> A              
     e(100 -100) =     19.27517  eV     1   --> A              

 **************************************************************************

 **************************************************************************

                    xk=(   0.07143,   0.04124,   0.00000  )

     Band symmetry, C_1 (1)     point group:

     e(  1 -  2) =    -34.63358  eV     2   -->   2 A              
     e(  3 -  3) =    -34.62788  eV     1   --> A              
     e(  4 -  4) =    -34.62776  eV     1   --> A              
     e(  5 -  5) =    -34.60590  eV     1   --> A              
     e(  6 -  6) =    -34.60375  eV     1   --> A              
     e(  7 -  7) =    -34.59993  eV     1   --> A              
     e(  8 -  8) =    -34.59829  eV     1   --> A              
     e(  9 -  9) =    -34.59437  eV     1   --> A              
     e( 10 - 10) =    -34.58868  eV     1   --> A              
     e( 11 - 11) =    -34.52118  eV     1   --> A              
     e( 12 - 12) =    -34.51091  eV     1   --> A              
     e( 13 - 13) =    -34.50750  eV     1   --> A              
     e( 14 - 14) =    -34.47124  eV     1   --> A              
     e( 15 - 15) =    -34.47106  eV     1   --> A              
     e( 16 - 16) =    -27.39146  eV     1   --> A              
     e( 17 - 17) =    -27.39129  eV     1   --> A              
     e( 18 - 18) =    -27.38743  eV     1   --> A              
     e( 19 - 19) =    -27.38725  eV     1   --> A              
     e( 20 - 20) =    -27.38276  eV     1   --> A              
     e( 21 - 21) =    -27.37978  eV     1   --> A              
     e( 22 - 22) =    -27.37901  eV     1   --> A              
     e( 23 - 23) =    -27.37878  eV     1   --> A              
     e( 24 - 24) =    -27.37577  eV     1   --> A              
     e( 25 - 25) =    -27.37502  eV     1   --> A              
     e( 26 - 26) =    -10.57354  eV     1   --> A              
     e( 27 - 27) =    -10.04969  eV     1   --> A              
     e( 28 - 28) =     -8.97921  eV     1   --> A              
     e( 29 - 29) =     -6.25293  eV     1   --> A              
     e( 30 - 30) =     -4.91077  eV     1   --> A              
     e( 31 - 31) =     -0.32333  eV     1   --> A              
     e( 32 - 32) =     -0.09660  eV     1   --> A              
     e( 33 - 33) =      0.15928  eV     1   --> A              
     e( 34 - 34) =      0.19782  eV     1   --> A              
     e( 35 - 35) =      0.47856  eV     1   --> A              
     e( 36 - 36) =      0.63456  eV     1   --> A              
     e( 37 - 37) =      1.18370  eV     1   --> A              
     e( 38 - 38) =      1.23997  eV     1   --> A              
     e( 39 - 39) =      1.69938  eV     1   --> A              
     e( 40 - 40) =      2.62508  eV     1   --> A              
     e( 41 - 41) =      2.92137  eV     1   --> A              
     e( 42 - 42) =      3.00454  eV     1   --> A              
     e( 43 - 43) =      3.86088  eV     1   --> A              
     e( 44 - 44) =      4.03593  eV     1   --> A              
     e( 45 - 45) =      4.24775  eV     1   --> A              
     e( 46 - 46) =      6.34740  eV     1   --> A              
     e( 47 - 47) =      6.48524  eV     1   --> A              
     e( 48 - 48) =      7.01802  eV     1   --> A              
     e( 49 - 49) =      7.45375  eV     1   --> A              
     e( 50 - 50) =      7.70281  eV     1   --> A              
     e( 51 - 51) =      7.93708  eV     1   --> A              
     e( 52 - 52) =      8.53092  eV     1   --> A              
     e( 53 - 53) =      8.65906  eV     1   --> A              
     e( 54 - 54) =      8.79114  eV     1   --> A              
     e( 55 - 55) =      9.11656  eV     1   --> A              
     e( 56 - 56) =      9.17278  eV     1   --> A              
     e( 57 - 57) =      9.79874  eV     1   --> A              
     e( 58 - 58) =      9.93857  eV     1   --> A              
     e( 59 - 59) =     10.23810  eV     1   --> A              
     e( 60 - 60) =     10.45227  eV     1   --> A              
     e( 61 - 61) =     10.86779  eV     1   --> A              
     e( 62 - 62) =     10.95566  eV     1   --> A              
     e( 63 - 63) =     11.13994  eV     1   --> A              
     e( 64 - 64) =     11.39748  eV     1   --> A              
     e( 65 - 65) =     12.10192  eV     1   --> A              
     e( 66 - 66) =     12.21370  eV     1   --> A              
     e( 67 - 67) =     12.83982  eV     1   --> A              
     e( 68 - 68) =     13.05246  eV     1   --> A              
     e( 69 - 69) =     13.54840  eV     1   --> A              
     e( 70 - 70) =     13.76866  eV     1   --> A              
     e( 71 - 71) =     14.37867  eV     1   --> A              
     e( 72 - 72) =     14.69306  eV     1   --> A              
     e( 73 - 73) =     14.71687  eV     1   --> A              
     e( 74 - 74) =     15.00857  eV     1   --> A              
     e( 75 - 75) =     15.64040  eV     1   --> A              
     e( 76 - 76) =     15.72311  eV     1   --> A              
     e( 77 - 77) =     15.89210  eV     1   --> A              
     e( 78 - 78) =     16.15677  eV     1   --> A              
     e( 79 - 79) =     16.27404  eV     1   --> A              
     e( 80 - 80) =     16.46186  eV     1   --> A              
     e( 81 - 81) =     16.67465  eV     1   --> A              
     e( 82 - 82) =     16.71635  eV     1   --> A              
     e( 83 - 83) =     16.98057  eV     1   --> A              
     e( 84 - 84) =     17.06728  eV     1   --> A              
     e( 85 - 85) =     17.15882  eV     1   --> A              
     e( 86 - 86) =     17.21313  eV     1   --> A              
     e( 87 - 87) =     17.43719  eV     1   --> A              
     e( 88 - 88) =     17.87587  eV     1   --> A              
     e( 89 - 89) =     18.12513  eV     1   --> A              
     e( 90 - 90) =     18.16645  eV     1   --> A              
     e( 91 - 91) =     18.24460  eV     1   --> A              
     e( 92 - 92) =     18.43431  eV     1   --> A              
     e( 93 - 93) =     18.56620  eV     1   --> A              
     e( 94 - 94) =     18.71716  eV     1   --> A              
     e( 95 - 95) =     18.73652  eV     1   --> A              
     e( 96 - 96) =     18.90257  eV     1   --> A              
     e( 97 - 97) =     19.02843  eV     1   --> A              
     e( 98 - 98) =     19.06957  eV     1   --> A              
     e( 99 - 99) =     19.18804  eV     1   --> A              
     e(100 -100) =     19.34051  eV     1   --> A              

 **************************************************************************

 **************************************************************************

                    xk=(   0.07857,   0.04536,   0.00000  )

     Band symmetry, C_1 (1)     point group:

     e(  1 -  2) =    -34.63357  eV     2   -->   2 A              
     e(  3 -  3) =    -34.62787  eV     1   --> A              
     e(  4 -  4) =    -34.62775  eV     1   --> A              
     e(  5 -  5) =    -34.60591  eV     1   --> A              
     e(  6 -  6) =    -34.60375  eV     1   --> A              
     e(  7 -  7) =    -34.59994  eV     1   --> A              
     e(  8 -  8) =    -34.59829  eV     1   --> A              
     e(  9 -  9) =    -34.59437  eV     1   --> A              
     e( 10 - 10) =    -34.58867  eV     1   --> A              
     e( 11 - 11) =    -34.52117  eV     1   --> A              
     e( 12 - 12) =    -34.51091  eV     1   --> A              
     e( 13 - 13) =    -34.50750  eV     1   --> A              
     e( 14 - 14) =    -34.47124  eV     1   --> A              
     e( 15 - 15) =    -34.47105  eV     1   --> A              
     e( 16 - 16) =    -27.39146  eV     1   --> A              
     e( 17 - 17) =    -27.39125  eV     1   --> A              
     e( 18 - 18) =    -27.38743  eV     1   --> A              
     e( 19 - 19) =    -27.38722  eV     1   --> A              
     e( 20 - 20) =    -27.38274  eV     1   --> A              
     e( 21 - 21) =    -27.37981  eV     1   --> A              
     e( 22 - 22) =    -27.37902  eV     1   --> A              
     e( 23 - 23) =    -27.37876  eV     1   --> A              
     e( 24 - 24) =    -27.37580  eV     1   --> A              
     e( 25 - 25) =    -27.37502  eV     1   --> A              
     e( 26 - 26) =    -10.56438  eV     1   --> A              
     e( 27 - 27) =    -10.04127  eV     1   --> A              
     e( 28 - 28) =     -8.97407  eV     1   --> A              
     e( 29 - 29) =     -6.25430  eV     1   --> A              
     e( 30 - 30) =     -4.92636  eV     1   --> A              
     e( 31 - 31) =     -0.37878  eV     1   --> A              
     e( 32 - 32) =     -0.13319  eV     1   --> A              
     e( 33 - 33) =      0.13065  eV     1   --> A              
     e( 34 - 34) =      0.16608  eV     1   --> A              
     e( 35 - 35) =      0.46465  eV     1   --> A              
     e( 36 - 36) =      0.57689  eV     1   --> A              
     e( 37 - 37) =      1.19156  eV     1   --> A              
     e( 38 - 38) =      1.28294  eV     1   --> A              
     e( 39 - 39) =      1.71949  eV     1   --> A              
     e( 40 - 40) =      2.61729  eV     1   --> A              
     e( 41 - 41) =      2.98241  eV     1   --> A              
     e( 42 - 42) =      3.02449  eV     1   --> A              
     e( 43 - 43) =      3.84730  eV     1   --> A              
     e( 44 - 44) =      4.05233  eV     1   --> A              
     e( 45 - 45) =      4.29708  eV     1   --> A              
     e( 46 - 46) =      6.36264  eV     1   --> A              
     e( 47 - 47) =      6.48812  eV     1   --> A              
     e( 48 - 48) =      7.01184  eV     1   --> A              
     e( 49 - 49) =      7.42541  eV     1   --> A              
     e( 50 - 50) =      7.70471  eV     1   --> A              
     e( 51 - 51) =      7.95563  eV     1   --> A              
     e( 52 - 52) =      8.49944  eV     1   --> A              
     e( 53 - 53) =      8.68170  eV     1   --> A              
     e( 54 - 54) =      8.79249  eV     1   --> A              
     e( 55 - 55) =      9.12313  eV     1   --> A              
     e( 56 - 56) =      9.19989  eV     1   --> A              
     e( 57 - 57) =      9.77929  eV     1   --> A              
     e( 58 - 58) =      9.96652  eV     1   --> A              
     e( 59 - 59) =     10.29361  eV     1   --> A              
     e( 60 - 60) =     10.49134  eV     1   --> A              
     e( 61 - 61) =     10.87267  eV     1   --> A              
     e( 62 - 62) =     10.98092  eV     1   --> A              
     e( 63 - 63) =     11.12813  eV     1   --> A              
     e( 64 - 64) =     11.40374  eV     1   --> A              
     e( 65 - 65) =     12.15306  eV     1   --> A              
     e( 66 - 66) =     12.25804  eV     1   --> A              
     e( 67 - 67) =     12.84198  eV     1   --> A              
     e( 68 - 68) =     13.06807  eV     1   --> A              
     e( 69 - 69) =     13.51810  eV     1   --> A              
     e( 70 - 70) =     13.73472  eV     1   --> A              
     e( 71 - 71) =     14.39587  eV     1   --> A              
     e( 72 - 72) =     14.64234  eV     1   --> A              
     e( 73 - 73) =     14.72003  eV     1   --> A              
     e( 74 - 74) =     15.04978  eV     1   --> A              
     e( 75 - 75) =     15.59148  eV     1   --> A              
     e( 76 - 76) =     15.70943  eV     1   --> A              
     e( 77 - 77) =     15.83979  eV     1   --> A              
     e( 78 - 78) =     16.13982  eV     1   --> A              
     e( 79 - 79) =     16.16866  eV     1   --> A              
     e( 80 - 80) =     16.46428  eV     1   --> A              
     e( 81 - 81) =     16.67674  eV     1   --> A              
     e( 82 - 82) =     16.70368  eV     1   --> A              
     e( 83 - 83) =     16.97262  eV     1   --> A              
[...]

 **************************************************************************

 **************************************************************************

                    xk=(   0.00952,   0.01661,   0.00000  )

     Band symmetry, C_1 (1)     point group:

     e(  1 -  1) =    -34.63364  eV     1   --> A              
     e(  2 -  2) =    -34.63351  eV     1   --> A              
     e(  3 -  3) =    -34.62793  eV     1   --> A              
     e(  4 -  4) =    -34.62778  eV     1   --> A              
     e(  5 -  5) =    -34.60589  eV     1   --> A              
     e(  6 -  6) =    -34.60375  eV     1   --> A              
     e(  7 -  7) =    -34.59992  eV     1   --> A              
     e(  8 -  8) =    -34.59829  eV     1   --> A              
     e(  9 -  9) =    -34.59441  eV     1   --> A              
     e( 10 - 10) =    -34.58871  eV     1   --> A              
     e( 11 - 11) =    -34.52121  eV     1   --> A              
     e( 12 - 12) =    -34.51089  eV     1   --> A              
     e( 13 - 13) =    -34.50750  eV     1   --> A              
     e( 14 - 14) =    -34.47125  eV     1   --> A              
     e( 15 - 15) =    -34.47111  eV     1   --> A              
     e( 16 - 17) =    -27.39146  eV     2   -->   2 A              
     e( 18 - 19) =    -27.38745  eV     2   -->   2 A              
     e( 20 - 20) =    -27.38284  eV     1   --> A              
     e( 21 - 21) =    -27.37965  eV     1   --> A              
     e( 22 - 22) =    -27.37899  eV     1   --> A              
     e( 23 - 23) =    -27.37886  eV     1   --> A              
     e( 24 - 24) =    -27.37565  eV     1   --> A              
     e( 25 - 25) =    -27.37500  eV     1   --> A              
     e( 26 - 26) =    -10.61511  eV     1   --> A              
     e( 27 - 27) =    -10.08790  eV     1   --> A              
     e( 28 - 28) =     -9.00285  eV     1   --> A              
     e( 29 - 29) =     -6.24779  eV     1   --> A              
     e( 30 - 30) =     -4.84054  eV     1   --> A              
     e( 31 - 31) =     -0.15152  eV     1   --> A              
     e( 32 - 32) =      0.23272  eV     1   --> A              
     e( 33 - 33) =      0.32067  eV     1   --> A              
     e( 34 - 34) =      0.45892  eV     1   --> A              
     e( 35 - 35) =      0.52686  eV     1   --> A              
     e( 36 - 36) =      0.87059  eV     1   --> A              
     e( 37 - 37) =      1.07685  eV     1   --> A              
     e( 38 - 38) =      1.12890  eV     1   --> A              
     e( 39 - 39) =      1.42033  eV     1   --> A              
     e( 40 - 40) =      2.46639  eV     1   --> A              
     e( 41 - 41) =      2.87464  eV     1   --> A              
     e( 42 - 42) =      2.91937  eV     1   --> A              
     e( 43 - 43) =      3.90262  eV     1   --> A              
     e( 44 - 44) =      3.95718  eV     1   --> A              
     e( 45 - 45) =      3.98682  eV     1   --> A              
     e( 46 - 46) =      6.27358  eV     1   --> A              
     e( 47 - 47) =      6.46903  eV     1   --> A              
     e( 48 - 48) =      7.01793  eV     1   --> A              
     e( 49 - 49) =      7.68925  eV     1   --> A              
     e( 50 - 50) =      7.69864  eV     1   --> A              
     e( 51 - 51) =      7.84431  eV     1   --> A              
     e( 52 - 52) =      8.48237  eV     1   --> A              
     e( 53 - 53) =      8.70974  eV     1   --> A              
     e( 54 - 54) =      8.85293  eV     1   --> A              
     e( 55 - 55) =      9.00954  eV     1   --> A              
     e( 56 - 56) =      9.15753  eV     1   --> A              
     e( 57 - 57) =      9.72538  eV     1   --> A              
     e( 58 - 58) =      9.77711  eV     1   --> A              
     e( 59 - 59) =     10.07936  eV     1   --> A              
     e( 60 - 60) =     10.22071  eV     1   --> A              
     e( 61 - 61) =     10.60924  eV     1   --> A              
     e( 62 - 62) =     11.18240  eV     1   --> A              
     e( 63 - 63) =     11.32116  eV     1   --> A              
     e( 64 - 64) =     11.48366  eV     1   --> A              
     e( 65 - 65) =     11.71231  eV     1   --> A              
     e( 66 - 66) =     11.79496  eV     1   --> A              
     e( 67 - 67) =     12.84864  eV     1   --> A              
     e( 68 - 68) =     12.94849  eV     1   --> A              
     e( 69 - 69) =     13.96032  eV     1   --> A              
     e( 70 - 70) =     14.08903  eV     1   --> A              
     e( 71 - 71) =     14.30218  eV     1   --> A              
     e( 72 - 72) =     14.35322  eV     1   --> A              
     e( 73 - 73) =     14.50068  eV     1   --> A              
     e( 74 - 74) =     15.18642  eV     1   --> A              
     e( 75 - 75) =     15.84811  eV     1   --> A              
     e( 76 - 76) =     15.99423  eV     1   --> A              
     e( 77 - 77) =     16.09088  eV     1   --> A              
     e( 78 - 78) =     16.33003  eV     1   --> A              
     e( 79 - 79) =     16.37008  eV     1   --> A              
     e( 80 - 80) =     16.44947  eV     1   --> A              
     e( 81 - 81) =     16.81836  eV     1   --> A              
     e( 82 - 82) =     17.07494  eV     1   --> A              
     e( 83 - 83) =     17.22337  eV     1   --> A              
     e( 84 - 84) =     17.29329  eV     1   --> A              
     e( 85 - 85) =     17.43403  eV     1   --> A              
     e( 86 - 86) =     17.48430  eV     1   --> A              
     e( 87 - 87) =     17.55642  eV     1   --> A              
     e( 88 - 88) =     17.61827  eV     1   --> A              
     e( 89 - 89) =     17.72816  eV     1   --> A              
     e( 90 - 90) =     17.79166  eV     1   --> A              
     e( 91 - 91) =     17.87330  eV     1   --> A              
     e( 92 - 92) =     18.06100  eV     1   --> A              
     e( 93 - 93) =     18.10242  eV     1   --> A              
     e( 94 - 94) =     18.36215  eV     1   --> A              
     e( 95 - 95) =     19.02774  eV     1   --> A              
     e( 96 - 96) =     19.13021  eV     1   --> A              
     e( 97 - 97) =     19.23159  eV     1   --> A              
     e( 98 - 98) =     19.33859  eV     1   --> A              
     e( 99 - 99) =     19.48252  eV     1   --> A              
     e(100 -100) =     19.52934  eV     1   --> A              

 **************************************************************************

 **************************************************************************

                    xk=(   0.00476,   0.00830,   0.00000  )

     Band symmetry, C_1 (1)     point group:

     e(  1 -  1) =    -34.63364  eV     1   --> A              
     e(  2 -  2) =    -34.63352  eV     1   --> A              
     e(  3 -  3) =    -34.62793  eV     1   --> A              
     e(  4 -  4) =    -34.62778  eV     1   --> A              
     e(  5 -  5) =    -34.60589  eV     1   --> A              
     e(  6 -  6) =    -34.60375  eV     1   --> A              
     e(  7 -  7) =    -34.59992  eV     1   --> A              
     e(  8 -  8) =    -34.59829  eV     1   --> A              
     e(  9 -  9) =    -34.59441  eV     1   --> A              
     e( 10 - 10) =    -34.58871  eV     1   --> A              
     e( 11 - 11) =    -34.52122  eV     1   --> A              
     e( 12 - 12) =    -34.51089  eV     1   --> A              
     e( 13 - 13) =    -34.50749  eV     1   --> A              
     e( 14 - 14) =    -34.47126  eV     1   --> A              
     e( 15 - 15) =    -34.47111  eV     1   --> A              
     e( 16 - 17) =    -27.39147  eV     2   -->   2 A              
     e( 18 - 19) =    -27.38745  eV     2   -->   2 A              
     e( 20 - 20) =    -27.38284  eV     1   --> A              
     e( 21 - 21) =    -27.37964  eV     1   --> A              
     e( 22 - 22) =    -27.37898  eV     1   --> A              
     e( 23 - 23) =    -27.37886  eV     1   --> A              
     e( 24 - 24) =    -27.37564  eV     1   --> A              
     e( 25 - 25) =    -27.37500  eV     1   --> A              
     e( 26 - 26) =    -10.61688  eV     1   --> A              
     e( 27 - 27) =    -10.08954  eV     1   --> A              
     e( 28 - 28) =     -9.00386  eV     1   --> A              
     e( 29 - 29) =     -6.24763  eV     1   --> A              
     e( 30 - 30) =     -4.83767  eV     1   --> A              
     e( 31 - 31) =     -0.14785  eV     1   --> A              
     e( 32 - 32) =      0.24989  eV     1   --> A              
     e( 33 - 33) =      0.33617  eV     1   --> A              
     e( 34 - 34) =      0.47218  eV     1   --> A              
     e( 35 - 35) =      0.53668  eV     1   --> A              
     e( 36 - 36) =      0.85921  eV     1   --> A              
     e( 37 - 37) =      1.08203  eV     1   --> A              
     e( 38 - 38) =      1.13283  eV     1   --> A              
     e( 39 - 39) =      1.39772  eV     1   --> A              
     e( 40 - 40) =      2.44440  eV     1   --> A              
     e( 41 - 41) =      2.88315  eV     1   --> A              
     e( 42 - 42) =      2.92175  eV     1   --> A              
     e( 43 - 43) =      3.89254  eV     1   --> A              
     e( 44 - 44) =      3.95527  eV     1   --> A              
     e( 45 - 45) =      3.98119  eV     1   --> A              
     e( 46 - 46) =      6.27024  eV     1   --> A              
     e( 47 - 47) =      6.46820  eV     1   --> A              
     e( 48 - 48) =      7.01710  eV     1   --> A              
     e( 49 - 49) =      7.68890  eV     1   --> A              
     e( 50 - 50) =      7.70572  eV     1   --> A              
     e( 51 - 51) =      7.85118  eV     1   --> A              
     e( 52 - 52) =      8.46836  eV     1   --> A              
     e( 53 - 53) =      8.71183  eV     1   --> A              
     e( 54 - 54) =      8.86421  eV     1   --> A              
     e( 55 - 55) =      9.00897  eV     1   --> A              
     e( 56 - 56) =      9.15934  eV     1   --> A              
     e( 57 - 57) =      9.71130  eV     1   --> A              
     e( 58 - 58) =      9.76441  eV     1   --> A              
     e( 59 - 59) =     10.08094  eV     1   --> A              
     e( 60 - 60) =     10.20869  eV     1   --> A              
     e( 61 - 61) =     10.59674  eV     1   --> A              
     e( 62 - 62) =     11.19527  eV     1   --> A              
     e( 63 - 63) =     11.34062  eV     1   --> A              
     e( 64 - 64) =     11.52433  eV     1   --> A              
     e( 65 - 65) =     11.67638  eV     1   --> A              
     e( 66 - 66) =     11.74471  eV     1   --> A              
     e( 67 - 67) =     12.84899  eV     1   --> A              
     e( 68 - 68) =     12.94278  eV     1   --> A              
     e( 69 - 69) =     14.00320  eV     1   --> A              
     e( 70 - 70) =     14.13607  eV     1   --> A              
     e( 71 - 71) =     14.27539  eV     1   --> A              
     e( 72 - 72) =     14.33353  eV     1   --> A              
     e( 73 - 73) =     14.46418  eV     1   --> A              
     e( 74 - 74) =     15.17071  eV     1   --> A              
     e( 75 - 75) =     15.90299  eV     1   --> A              
     e( 76 - 76) =     16.04739  eV     1   --> A              
     e( 77 - 77) =     16.10216  eV     1   --> A              
     e( 78 - 78) =     16.28272  eV     1   --> A              
     e( 79 - 79) =     16.35285  eV     1   --> A              
     e( 80 - 80) =     16.42511  eV     1   --> A              
     e( 81 - 81) =     16.79039  eV     1   --> A              
     e( 82 - 82) =     17.19156  eV     1   --> A              
     e( 83 - 83) =     17.24572  eV     1   --> A              
     e( 84 - 84) =     17.37035  eV     1   --> A              
     e( 85 - 85) =     17.44711  eV     1   --> A              
     e( 86 - 86) =     17.49790  eV     1   --> A              
     e( 87 - 87) =     17.57900  eV     1   --> A              
     e( 88 - 88) =     17.62742  eV     1   --> A              
     e( 89 - 89) =     17.72895  eV     1   --> A              
     e( 90 - 90) =     17.78499  eV     1   --> A              
     e( 91 - 91) =     17.79123  eV     1   --> A              
     e( 92 - 92) =     17.95020  eV     1   --> A              
     e( 93 - 93) =     18.03114  eV     1   --> A              
     e( 94 - 94) =     18.29527  eV     1   --> A              
     e( 95 - 95) =     19.14093  eV     1   --> A              
     e( 96 - 96) =     19.23136  eV     1   --> A              
     e( 97 - 97) =     19.29168  eV     1   --> A              
     e( 98 - 98) =     19.36191  eV     1   --> A              
     e( 99 - 99) =     19.43441  eV     1   --> A              
     e(100 -100) =     19.53541  eV     1   --> A              

 **************************************************************************

 **************************************************************************

                    xk=(   0.00000,   0.00000,   0.00000  )

     Band symmetry, C_1 (1)     point group:

     e(  1 -  1) =    -34.63364  eV     1   --> A              
     e(  2 -  2) =    -34.63352  eV     1   --> A              
     e(  3 -  3) =    -34.62793  eV     1   --> A              
     e(  4 -  4) =    -34.62778  eV     1   --> A              
     e(  5 -  5) =    -34.60589  eV     1   --> A              
     e(  6 -  6) =    -34.60375  eV     1   --> A              
     e(  7 -  7) =    -34.59992  eV     1   --> A              
     e(  8 -  8) =    -34.59829  eV     1   --> A              
     e(  9 -  9) =    -34.59441  eV     1   --> A              
     e( 10 - 10) =    -34.58872  eV     1   --> A              
     e( 11 - 11) =    -34.52122  eV     1   --> A              
     e( 12 - 12) =    -34.51089  eV     1   --> A              
     e( 13 - 13) =    -34.50749  eV     1   --> A              
     e( 14 - 14) =    -34.47126  eV     1   --> A              
     e( 15 - 15) =    -34.47111  eV     1   --> A              
     e( 16 - 17) =    -27.39147  eV     2   -->   2 A              
     e( 18 - 19) =    -27.38745  eV     2   -->   2 A              
     e( 20 - 20) =    -27.38284  eV     1   --> A              
     e( 21 - 21) =    -27.37964  eV     1   --> A              
     e( 22 - 22) =    -27.37898  eV     1   --> A              
     e( 23 - 23) =    -27.37886  eV     1   --> A              
     e( 24 - 24) =    -27.37564  eV     1   --> A              
     e( 25 - 25) =    -27.37500  eV     1   --> A              
     e( 26 - 26) =    -10.61748  eV     1   --> A              
     e( 27 - 27) =    -10.09009  eV     1   --> A              
     e( 28 - 28) =     -9.00420  eV     1   --> A              
     e( 29 - 29) =     -6.24757  eV     1   --> A              
     e( 30 - 30) =     -4.83667  eV     1   --> A              
     e( 31 - 31) =     -0.14667  eV     1   --> A              
     e( 32 - 32) =      0.25552  eV     1   --> A              
     e( 33 - 33) =      0.34185  eV     1   --> A              
     e( 34 - 34) =      0.47628  eV     1   --> A              
     e( 35 - 35) =      0.54062  eV     1   --> A              
     e( 36 - 36) =      0.85466  eV     1   --> A              
     e( 37 - 37) =      1.08364  eV     1   --> A              
     e( 38 - 38) =      1.13472  eV     1   --> A              
     e( 39 - 39) =      1.38993  eV     1   --> A              
     e( 40 - 40) =      2.43678  eV     1   --> A              
     e( 41 - 41) =      2.88524  eV     1   --> A              
     e( 42 - 42) =      2.92359  eV     1   --> A              
     e( 43 - 43) =      3.88837  eV     1   --> A              
     e( 44 - 44) =      3.95453  eV     1   --> A              
     e( 45 - 45) =      3.98004  eV     1   --> A              
     e( 46 - 46) =      6.26913  eV     1   --> A              
     e( 47 - 47) =      6.46793  eV     1   --> A              
     e( 48 - 48) =      7.01682  eV     1   --> A              
     e( 49 - 49) =      7.68868  eV     1   --> A              
     e( 50 - 50) =      7.70791  eV     1   --> A              
     e( 51 - 51) =      7.85399  eV     1   --> A              
     e( 52 - 52) =      8.46345  eV     1   --> A              
     e( 53 - 53) =      8.71245  eV     1   --> A              
     e( 54 - 54) =      8.86797  eV     1   --> A              
     e( 55 - 55) =      9.00904  eV     1   --> A              
     e( 56 - 56) =      9.16017  eV     1   --> A              
     e( 57 - 57) =      9.70614  eV     1   --> A              
     e( 58 - 58) =      9.76007  eV     1   --> A              
     e( 59 - 59) =     10.08167  eV     1   --> A              
     e( 60 - 60) =     10.20467  eV     1   --> A              
     e( 61 - 61) =     10.59259  eV     1   --> A              
     e( 62 - 62) =     11.19954  eV     1   --> A              
     e( 63 - 63) =     11.34709  eV     1   --> A              
     e( 64 - 64) =     11.54891  eV     1   --> A              
     e( 65 - 65) =     11.65555  eV     1   --> A              
     e( 66 - 66) =     11.72580  eV     1   --> A              
     e( 67 - 67) =     12.84912  eV     1   --> A              
     e( 68 - 68) =     12.94087  eV     1   --> A              
     e( 69 - 69) =     14.02058  eV     1   --> A              
     e( 70 - 70) =     14.15581  eV     1   --> A              
     e( 71 - 71) =     14.26289  eV     1   --> A              
     e( 72 - 72) =     14.32408  eV     1   --> A              
     e( 73 - 73) =     14.45164  eV     1   --> A              
     e( 74 - 74) =     15.16465  eV     1   --> A              
     e( 75 - 75) =     15.92495  eV     1   --> A              
     e( 76 - 76) =     16.06525  eV     1   --> A              
     e( 77 - 77) =     16.11457  eV     1   --> A              
     e( 78 - 78) =     16.25855  eV     1   --> A              
     e( 79 - 79) =     16.34275  eV     1   --> A              
     e( 80 - 80) =     16.41758  eV     1   --> A              
     e( 81 - 81) =     16.78098  eV     1   --> A              
     e( 82 - 82) =     17.22807  eV     1   --> A              
     e( 83 - 83) =     17.29968  eV     1   --> A              
     e( 84 - 84) =     17.36195  eV     1   --> A              
     e( 85 - 85) =     17.43049  eV     1   --> A              
     e( 86 - 86) =     17.49808  eV     1   --> A              
     e( 87 - 87) =     17.60036  eV     1   --> A              
     e( 88 - 88) =     17.68236  eV     1   --> A              
     e( 89 - 89) =     17.68470  eV     1   --> A              
     e( 90 - 90) =     17.78222  eV     1   --> A              
     e( 91 - 91) =     17.79905  eV     1   --> A              
     e( 92 - 92) =     17.87710  eV     1   --> A              
     e( 93 - 93) =     18.00478  eV     1   --> A              
     e( 94 - 94) =     18.27122  eV     1   --> A              
     e( 95 - 95) =     19.20622  eV     1   --> A              
     e( 96 - 96) =     19.28302  eV     1   --> A              
     e( 97 - 97) =     19.31362  eV     1   --> A              
     e( 98 - 98) =     19.33714  eV     1   --> A              
     e( 99 - 99) =     19.40578  eV     1   --> A              
     e(100 -100) =     19.55195  eV     1   --> A              

 **************************************************************************

     BANDS        :   1m14.04s CPU   2m15.92s WALL


   This run was terminated on:  20:17:52  14Aug2025            

=------------------------------------------------------------------------------=
   JOB DONE.
=------------------------------------------------------------------------------=
