
     Program PWSCF v.7.3.1 starts on 20May2025 at  8: 6:20 

     This program is part of the open-source Quantum ESPRESSO suite
     for quantum simulation of materials; please cite
         "P. Giannozzi et al., J. Phys.:Condens. Matter 21 395502 (2009);
         "P. Giannozzi et al., J. Phys.:Condens. Matter 29 465901 (2017);
         "P. Giannozzi et al., J. Chem. Phys. 152 154105 (2020);
          URL http://www.quantum-espresso.org", 
     in publications or presentations arising from this work. More details at
     http://www.quantum-espresso.org/quote

     Parallel version (MPI & OpenMP), running on     168 processor cores
     Number of MPI processes:               168
     Threads/MPI process:                     1

     MPI processes distributed on     7 nodes
     91116 MiB available memory on the printing compute node when the environment starts

     Waiting for input...
     Reading input from standard input

     Current dimensions of program PWSCF are:
     Max number of different atomic species (ntypx) = 10
     Max number of k-points (npk) =  40000
     Max angular momentum in pseudopotentials (lmaxx) =  4

     IMPORTANT: XC functional enforced from input :
     Exchange-correlation= GAUP
                           (   1   4  20   4   0   0   0)
     EXX-fraction              =        0.24
     Any further DFT definition will be discarded
     Please, verify this is what you really want


     Atomic positions and unit cell read from directory:
     tmp/Sb2Te3-uatsx-c4-5.0.save/


     K-points division:     npool     =       2
     R & G space division:  proc/nbgrp/npool/nimage =      84
     Subspace diagonalization in iterative solution of the eigenvalue problem:
     a serial algorithm will be used

     EXX: q-point mesh:     1    1    1
     EXX: setup a grid of 85 q-points centered on each k-point
     (k+q)-points:
   0.0000000   0.0000000   0.0000000         1    1
   0.0000000   0.0932652   0.0000000         2    1
   0.0000000   0.1865304   0.0000000         3    1
   0.0000000   0.2797955   0.0000000         4    1
   0.0000000   0.3730607   0.0000000         5    1
   0.0000000   0.4663259   0.0000000         6    1
   0.0000000   0.5595911   0.0000000         7    1
   0.0769231   0.0444120   0.0000000         8    1
   0.0769231   0.1376772   0.0000000         9    1
   0.0769231   0.2309423   0.0000000        10    1
   0.0769231   0.3242075   0.0000000        11    1
   0.0769231   0.4174727   0.0000000        12    1
   0.0769231   0.5107379   0.0000000        13    1
   0.0769231   0.6040030   0.0000000        14    1
   0.0769231  -0.5151791   0.0000000        15    1
   0.0769231  -0.4219139   0.0000000        16    1
   0.0769231  -0.3286487   0.0000000        17    1
   0.0769231  -0.2353835   0.0000000        18    1
   0.0769231  -0.1421184   0.0000000        19    1
   0.0769231  -0.0488532   0.0000000        20    1
   0.1538462   0.0888240   0.0000000        21    1
   0.1538462   0.1820892   0.0000000        22    1
   0.1538462   0.2753543   0.0000000        23    1
   0.1538462   0.3686195   0.0000000        24    1
   0.1538462   0.4618847   0.0000000        25    1
   0.1538462   0.5551499   0.0000000        26    1
   0.1538462   0.6484150   0.0000000        27    1
   0.1538462  -0.4707671   0.0000000        28    1
   0.1538462  -0.3775019   0.0000000        29    1
   0.1538462  -0.2842367   0.0000000        30    1
   0.1538462  -0.1909716   0.0000000        31    1
   0.1538462  -0.0977064   0.0000000        32    1
   0.1538462  -0.0044412   0.0000000        33    1
   0.2307692   0.1332360   0.0000000        34    1
   0.2307692   0.2265011   0.0000000        35    1
   0.2307692   0.3197663   0.0000000        36    1
   0.2307692   0.4130315   0.0000000        37    1
   0.2307692   0.5062967   0.0000000        38    1
   0.2307692   0.5995618   0.0000000        39    1
   0.2307692   0.6928270   0.0000000        40    1
   0.2307692  -0.4263551   0.0000000        41    1
   0.2307692  -0.3330899   0.0000000        42    1
   0.2307692  -0.2398247   0.0000000        43    1
   0.2307692  -0.1465596   0.0000000        44    1
   0.2307692  -0.0532944   0.0000000        45    1
   0.2307692   0.0399708   0.0000000        46    1
   0.3076923   0.1776480   0.0000000        47    1
   0.3076923   0.2709131   0.0000000        48    1
   0.3076923   0.3641783   0.0000000        49    1
   0.3076923   0.4574435   0.0000000        50    1
   0.3076923   0.5507087   0.0000000        51    1
   0.3076923   0.6439738   0.0000000        52    1
   0.3076923   0.7372390   0.0000000        53    1
   0.3076923  -0.3819431   0.0000000        54    1
   0.3076923  -0.2886779   0.0000000        55    1
   0.3076923  -0.1954128   0.0000000        56    1
   0.3076923  -0.1021476   0.0000000        57    1
   0.3076923  -0.0088824   0.0000000        58    1
   0.3076923   0.0843828   0.0000000        59    1
   0.3846154   0.2220599   0.0000000        60    1
   0.3846154   0.3153251   0.0000000        61    1
   0.3846154   0.4085903   0.0000000        62    1
   0.3846154   0.5018555   0.0000000        63    1
   0.3846154   0.5951206   0.0000000        64    1
   0.3846154   0.6883858   0.0000000        65    1
   0.3846154   0.7816510   0.0000000        66    1
   0.3846154  -0.3375311   0.0000000        67    1
   0.3846154  -0.2442659   0.0000000        68    1
   0.3846154  -0.1510008   0.0000000        69    1
   0.3846154  -0.0577356   0.0000000        70    1
   0.3846154   0.0355296   0.0000000        71    1
   0.3846154   0.1287948   0.0000000        72    1
   0.4615385   0.2664719   0.0000000        73    1
   0.4615385   0.3597371   0.0000000        74    1
   0.4615385   0.4530023   0.0000000        75    1
   0.4615385   0.5462675   0.0000000        76    1
   0.4615385   0.6395326   0.0000000        77    1
   0.4615385   0.7327978   0.0000000        78    1
   0.4615385   0.8260630   0.0000000        79    1
   0.4615385  -0.2931191   0.0000000        80    1
   0.4615385  -0.1998539   0.0000000        81    1
   0.4615385  -0.1065888   0.0000000        82    1
   0.4615385  -0.0133236   0.0000000        83    1
   0.4615385   0.0799416   0.0000000        84    1
   0.4615385   0.1732068   0.0000000        85    1

     Parallelization info
     --------------------
     sticks:   dense  smooth     PW     G-vecs:    dense   smooth      PW
     Min          15      15      4                 2349     2349     358
     Max          16      16      5                 2392     2392     397
     Sum        1343    1343    395               200001   200001   31739

     Using Slab Decomposition



     bravais-lattice index     =            0
     lattice parameter (alat)  =       8.5529  a.u.
     unit-cell volume          =    2526.9262 (a.u.)^3
     number of atoms/cell      =            5
     number of atomic types    =            2
     number of electrons       =        78.00
     number of Kohn-Sham states=          100
     kinetic-energy cutoff     =      70.0000  Ry
     charge density cutoff     =     280.0000  Ry
     cutoff for Fock operator  =     280.0000  Ry
     Exchange-correlation= GAUP
                           (   1   4  20   4   0   0   0)
     EXX-fraction              =        0.24

     celldm(1)=   8.552915  celldm(2)=   0.000000  celldm(3)=   0.000000
     celldm(4)=   0.000000  celldm(5)=   0.000000  celldm(6)=   0.000000

     crystal axes: (cart. coord. in units of alat)
               a(1) = (   1.000000   0.000000   0.000000 )  
               a(2) = (  -0.476190   0.824778   0.000000 )  
               a(3) = (   0.000000   0.000000   4.896807 )  

     reciprocal axes: (cart. coord. in units 2 pi/alat)
               b(1) = (  1.000000  0.577356 -0.000000 )  
               b(2) = (  0.000000  1.212447  0.000000 )  
               b(3) = (  0.000000 -0.000000  0.204215 )  


     PseudoPot. # 1 for Sb read from file:
     /zfs-home/202401017n/pseudos/Sb_ONCV_PBE-1.2.upf
     MD5 check sum: 0417cd6c0fe8ce4611e2b23135f1abd9
     Pseudo is Norm-conserving, Zval = 15.0
     Generated using ONCVPSP code by D. R. Hamann
     Using radial grid of  602 points,  6 beta functions with: 
                l(1) =   0
                l(2) =   0
                l(3) =   1
                l(4) =   1
                l(5) =   2
                l(6) =   2

     PseudoPot. # 2 for Te read from file:
     /zfs-home/202401017n/pseudos/Te_ONCV_PBE-1.2.upf
     MD5 check sum: dd4de4dac1e38587f63aaf3700bb29d3
     Pseudo is Norm-conserving, Zval = 16.0
     Generated using ONCVPSP code by D. R. Hamann
     Using radial grid of  602 points,  6 beta functions with: 
                l(1) =   0
                l(2) =   0
                l(3) =   1
                l(4) =   1
                l(5) =   2
                l(6) =   2

     atomic species   valence    mass     pseudopotential
     Sb               15.00   121.76000     Sb( 1.00)
     Te               16.00   127.60000     Te( 1.00)

     No symmetry found


                                    s                        frac. trans.

      isym =  1     identity                                     

 cryst.   s( 1) = (     1          0          0      )
                  (     0          1          0      )
                  (     0          0          1      )

 cart.    s( 1) = (  1.0000000  0.0000000  0.0000000 )
                  (  0.0000000  1.0000000  0.0000000 )
                  (  0.0000000  0.0000000  1.0000000 )


   Cartesian axes

     site n.     atom                  positions (alat units)
         1        Sb     tau(   1) = (   0.5941563   0.4140600   2.8819763  )
         2        Te     tau(   2) = (   0.5757813   0.3831770   1.6487259  )
         3        Sb     tau(   3) = (   0.0713597   0.1150985   2.0147862  )
         4        Te     tau(   4) = (   0.0896521   0.1461334   3.2480478  )
         5        Te     tau(   5) = (   0.0946223   0.6770376   2.4483865  )

     -------------------------------------------------
     Parameters for Dispersion (Grimme-D2) Correction:
     -------------------------------------------------
       atom      VdW radius       C_6     

        Sb         3.555       1333.532
        Te         3.575       1101.101

   Crystallographic axes

     site n.     atom                  positions (cryst. coord.)
         1        Sb     tau(   1) = (  0.8332162  0.5020259  0.5885420  )
         2        Te     tau(   2) = (  0.7970108  0.4645820  0.3366941  )
         3        Sb     tau(   3) = (  0.1378125  0.1395508  0.4114490  )
         4        Te     tau(   4) = (  0.1740231  0.1771791  0.6632992  )
         5        Te     tau(   5) = (  0.4855140  0.8208724  0.4999966  )

     number of k points=    85
                       cart. coord. in units 2pi/alat
        k(    1) = (   0.0000000   0.0000000   0.0000000), wk =   0.0118343
        k(    2) = (   0.0000000   0.0932652   0.0000000), wk =   0.0236686
        k(    3) = (   0.0000000   0.1865304   0.0000000), wk =   0.0236686
        k(    4) = (   0.0000000   0.2797955   0.0000000), wk =   0.0236686
        k(    5) = (   0.0000000   0.3730607   0.0000000), wk =   0.0236686
        k(    6) = (   0.0000000   0.4663259   0.0000000), wk =   0.0236686
        k(    7) = (   0.0000000   0.5595911   0.0000000), wk =   0.0236686
        k(    8) = (   0.0769231   0.0444120   0.0000000), wk =   0.0236686
        k(    9) = (   0.0769231   0.1376772   0.0000000), wk =   0.0236686
        k(   10) = (   0.0769231   0.2309423   0.0000000), wk =   0.0236686
        k(   11) = (   0.0769231   0.3242075   0.0000000), wk =   0.0236686
        k(   12) = (   0.0769231   0.4174727   0.0000000), wk =   0.0236686
        k(   13) = (   0.0769231   0.5107379   0.0000000), wk =   0.0236686
        k(   14) = (   0.0769231   0.6040030   0.0000000), wk =   0.0236686
        k(   15) = (   0.0769231  -0.5151791   0.0000000), wk =   0.0236686
        k(   16) = (   0.0769231  -0.4219139   0.0000000), wk =   0.0236686
        k(   17) = (   0.0769231  -0.3286487   0.0000000), wk =   0.0236686
        k(   18) = (   0.0769231  -0.2353835   0.0000000), wk =   0.0236686
        k(   19) = (   0.0769231  -0.1421184   0.0000000), wk =   0.0236686
        k(   20) = (   0.0769231  -0.0488532   0.0000000), wk =   0.0236686
        k(   21) = (   0.1538462   0.0888240   0.0000000), wk =   0.0236686
        k(   22) = (   0.1538462   0.1820892   0.0000000), wk =   0.0236686
        k(   23) = (   0.1538462   0.2753543   0.0000000), wk =   0.0236686
        k(   24) = (   0.1538462   0.3686195   0.0000000), wk =   0.0236686
        k(   25) = (   0.1538462   0.4618847   0.0000000), wk =   0.0236686
        k(   26) = (   0.1538462   0.5551499   0.0000000), wk =   0.0236686
        k(   27) = (   0.1538462   0.6484150   0.0000000), wk =   0.0236686
        k(   28) = (   0.1538462  -0.4707671   0.0000000), wk =   0.0236686
        k(   29) = (   0.1538462  -0.3775019   0.0000000), wk =   0.0236686
        k(   30) = (   0.1538462  -0.2842367   0.0000000), wk =   0.0236686
        k(   31) = (   0.1538462  -0.1909716   0.0000000), wk =   0.0236686
        k(   32) = (   0.1538462  -0.0977064   0.0000000), wk =   0.0236686
        k(   33) = (   0.1538462  -0.0044412   0.0000000), wk =   0.0236686
        k(   34) = (   0.2307692   0.1332360   0.0000000), wk =   0.0236686
        k(   35) = (   0.2307692   0.2265011   0.0000000), wk =   0.0236686
        k(   36) = (   0.2307692   0.3197663   0.0000000), wk =   0.0236686
        k(   37) = (   0.2307692   0.4130315   0.0000000), wk =   0.0236686
        k(   38) = (   0.2307692   0.5062967   0.0000000), wk =   0.0236686
        k(   39) = (   0.2307692   0.5995618   0.0000000), wk =   0.0236686
        k(   40) = (   0.2307692   0.6928270   0.0000000), wk =   0.0236686
        k(   41) = (   0.2307692  -0.4263551   0.0000000), wk =   0.0236686
        k(   42) = (   0.2307692  -0.3330899   0.0000000), wk =   0.0236686
        k(   43) = (   0.2307692  -0.2398247   0.0000000), wk =   0.0236686
        k(   44) = (   0.2307692  -0.1465596   0.0000000), wk =   0.0236686
        k(   45) = (   0.2307692  -0.0532944   0.0000000), wk =   0.0236686
        k(   46) = (   0.2307692   0.0399708   0.0000000), wk =   0.0236686
        k(   47) = (   0.3076923   0.1776480   0.0000000), wk =   0.0236686
        k(   48) = (   0.3076923   0.2709131   0.0000000), wk =   0.0236686
        k(   49) = (   0.3076923   0.3641783   0.0000000), wk =   0.0236686
        k(   50) = (   0.3076923   0.4574435   0.0000000), wk =   0.0236686
        k(   51) = (   0.3076923   0.5507087   0.0000000), wk =   0.0236686
        k(   52) = (   0.3076923   0.6439738   0.0000000), wk =   0.0236686
        k(   53) = (   0.3076923   0.7372390   0.0000000), wk =   0.0236686
        k(   54) = (   0.3076923  -0.3819431   0.0000000), wk =   0.0236686
        k(   55) = (   0.3076923  -0.2886779   0.0000000), wk =   0.0236686
        k(   56) = (   0.3076923  -0.1954128   0.0000000), wk =   0.0236686
        k(   57) = (   0.3076923  -0.1021476   0.0000000), wk =   0.0236686
        k(   58) = (   0.3076923  -0.0088824   0.0000000), wk =   0.0236686
        k(   59) = (   0.3076923   0.0843828   0.0000000), wk =   0.0236686
        k(   60) = (   0.3846154   0.2220599   0.0000000), wk =   0.0236686
        k(   61) = (   0.3846154   0.3153251   0.0000000), wk =   0.0236686
        k(   62) = (   0.3846154   0.4085903   0.0000000), wk =   0.0236686
        k(   63) = (   0.3846154   0.5018555   0.0000000), wk =   0.0236686
        k(   64) = (   0.3846154   0.5951206   0.0000000), wk =   0.0236686
        k(   65) = (   0.3846154   0.6883858   0.0000000), wk =   0.0236686
        k(   66) = (   0.3846154   0.7816510   0.0000000), wk =   0.0236686
        k(   67) = (   0.3846154  -0.3375311   0.0000000), wk =   0.0236686
        k(   68) = (   0.3846154  -0.2442659   0.0000000), wk =   0.0236686
        k(   69) = (   0.3846154  -0.1510008   0.0000000), wk =   0.0236686
        k(   70) = (   0.3846154  -0.0577356   0.0000000), wk =   0.0236686
        k(   71) = (   0.3846154   0.0355296   0.0000000), wk =   0.0236686
        k(   72) = (   0.3846154   0.1287948   0.0000000), wk =   0.0236686
        k(   73) = (   0.4615385   0.2664719   0.0000000), wk =   0.0236686
        k(   74) = (   0.4615385   0.3597371   0.0000000), wk =   0.0236686
        k(   75) = (   0.4615385   0.4530023   0.0000000), wk =   0.0236686
        k(   76) = (   0.4615385   0.5462675   0.0000000), wk =   0.0236686
        k(   77) = (   0.4615385   0.6395326   0.0000000), wk =   0.0236686
        k(   78) = (   0.4615385   0.7327978   0.0000000), wk =   0.0236686
        k(   79) = (   0.4615385   0.8260630   0.0000000), wk =   0.0236686
        k(   80) = (   0.4615385  -0.2931191   0.0000000), wk =   0.0236686
        k(   81) = (   0.4615385  -0.1998539   0.0000000), wk =   0.0236686
        k(   82) = (   0.4615385  -0.1065888   0.0000000), wk =   0.0236686
        k(   83) = (   0.4615385  -0.0133236   0.0000000), wk =   0.0236686
        k(   84) = (   0.4615385   0.0799416   0.0000000), wk =   0.0236686
        k(   85) = (   0.4615385   0.1732068   0.0000000), wk =   0.0236686

                       cryst. coord.
        k(    1) = (   0.0000000   0.0000000   0.0000000), wk =   0.0118343
        k(    2) = (   0.0000000   0.0769231   0.0000000), wk =   0.0236686
        k(    3) = (   0.0000000   0.1538462   0.0000000), wk =   0.0236686
        k(    4) = (   0.0000000   0.2307692   0.0000000), wk =   0.0236686
        k(    5) = (   0.0000000   0.3076923   0.0000000), wk =   0.0236686
        k(    6) = (   0.0000000   0.3846154   0.0000000), wk =   0.0236686
        k(    7) = (   0.0000000   0.4615385   0.0000000), wk =   0.0236686
        k(    8) = (   0.0769231   0.0000000   0.0000000), wk =   0.0236686
        k(    9) = (   0.0769231   0.0769231   0.0000000), wk =   0.0236686
        k(   10) = (   0.0769231   0.1538462   0.0000000), wk =   0.0236686
        k(   11) = (   0.0769231   0.2307692   0.0000000), wk =   0.0236686
        k(   12) = (   0.0769231   0.3076923   0.0000000), wk =   0.0236686
        k(   13) = (   0.0769231   0.3846154   0.0000000), wk =   0.0236686
        k(   14) = (   0.0769231   0.4615385   0.0000000), wk =   0.0236686
        k(   15) = (   0.0769231  -0.4615385   0.0000000), wk =   0.0236686
        k(   16) = (   0.0769231  -0.3846154   0.0000000), wk =   0.0236686
        k(   17) = (   0.0769231  -0.3076923   0.0000000), wk =   0.0236686
        k(   18) = (   0.0769231  -0.2307692   0.0000000), wk =   0.0236686
        k(   19) = (   0.0769231  -0.1538462   0.0000000), wk =   0.0236686
        k(   20) = (   0.0769231  -0.0769231   0.0000000), wk =   0.0236686
        k(   21) = (   0.1538462   0.0000000   0.0000000), wk =   0.0236686
        k(   22) = (   0.1538462   0.0769231   0.0000000), wk =   0.0236686
        k(   23) = (   0.1538462   0.1538462   0.0000000), wk =   0.0236686
        k(   24) = (   0.1538462   0.2307692   0.0000000), wk =   0.0236686
        k(   25) = (   0.1538462   0.3076923   0.0000000), wk =   0.0236686
        k(   26) = (   0.1538462   0.3846154   0.0000000), wk =   0.0236686
        k(   27) = (   0.1538462   0.4615385   0.0000000), wk =   0.0236686
        k(   28) = (   0.1538462  -0.4615385   0.0000000), wk =   0.0236686
        k(   29) = (   0.1538462  -0.3846154   0.0000000), wk =   0.0236686
        k(   30) = (   0.1538462  -0.3076923   0.0000000), wk =   0.0236686
        k(   31) = (   0.1538462  -0.2307692   0.0000000), wk =   0.0236686
        k(   32) = (   0.1538462  -0.1538462   0.0000000), wk =   0.0236686
        k(   33) = (   0.1538462  -0.0769231   0.0000000), wk =   0.0236686
        k(   34) = (   0.2307692  -0.0000000   0.0000000), wk =   0.0236686
        k(   35) = (   0.2307692   0.0769231   0.0000000), wk =   0.0236686
        k(   36) = (   0.2307692   0.1538462   0.0000000), wk =   0.0236686
        k(   37) = (   0.2307692   0.2307692   0.0000000), wk =   0.0236686
        k(   38) = (   0.2307692   0.3076923   0.0000000), wk =   0.0236686
        k(   39) = (   0.2307692   0.3846154   0.0000000), wk =   0.0236686
        k(   40) = (   0.2307692   0.4615385   0.0000000), wk =   0.0236686
        k(   41) = (   0.2307692  -0.4615385   0.0000000), wk =   0.0236686
        k(   42) = (   0.2307692  -0.3846154   0.0000000), wk =   0.0236686
        k(   43) = (   0.2307692  -0.3076923   0.0000000), wk =   0.0236686
        k(   44) = (   0.2307692  -0.2307692   0.0000000), wk =   0.0236686
        k(   45) = (   0.2307692  -0.1538462   0.0000000), wk =   0.0236686
        k(   46) = (   0.2307692  -0.0769231   0.0000000), wk =   0.0236686
        k(   47) = (   0.3076923   0.0000000   0.0000000), wk =   0.0236686
        k(   48) = (   0.3076923   0.0769231   0.0000000), wk =   0.0236686
        k(   49) = (   0.3076923   0.1538462   0.0000000), wk =   0.0236686
        k(   50) = (   0.3076923   0.2307692   0.0000000), wk =   0.0236686
        k(   51) = (   0.3076923   0.3076923   0.0000000), wk =   0.0236686
        k(   52) = (   0.3076923   0.3846154   0.0000000), wk =   0.0236686
        k(   53) = (   0.3076923   0.4615385   0.0000000), wk =   0.0236686
        k(   54) = (   0.3076923  -0.4615385   0.0000000), wk =   0.0236686
        k(   55) = (   0.3076923  -0.3846154   0.0000000), wk =   0.0236686
        k(   56) = (   0.3076923  -0.3076923   0.0000000), wk =   0.0236686
        k(   57) = (   0.3076923  -0.2307692   0.0000000), wk =   0.0236686
        k(   58) = (   0.3076923  -0.1538462   0.0000000), wk =   0.0236686
        k(   59) = (   0.3076923  -0.0769231   0.0000000), wk =   0.0236686
        k(   60) = (   0.3846154   0.0000000   0.0000000), wk =   0.0236686
        k(   61) = (   0.3846154   0.0769231   0.0000000), wk =   0.0236686
        k(   62) = (   0.3846154   0.1538462   0.0000000), wk =   0.0236686
        k(   63) = (   0.3846154   0.2307692   0.0000000), wk =   0.0236686
        k(   64) = (   0.3846154   0.3076923   0.0000000), wk =   0.0236686
        k(   65) = (   0.3846154   0.3846154   0.0000000), wk =   0.0236686
        k(   66) = (   0.3846154   0.4615385   0.0000000), wk =   0.0236686
        k(   67) = (   0.3846154  -0.4615385   0.0000000), wk =   0.0236686
        k(   68) = (   0.3846154  -0.3846154   0.0000000), wk =   0.0236686
        k(   69) = (   0.3846154  -0.3076923   0.0000000), wk =   0.0236686
        k(   70) = (   0.3846154  -0.2307692   0.0000000), wk =   0.0236686
        k(   71) = (   0.3846154  -0.1538462   0.0000000), wk =   0.0236686
        k(   72) = (   0.3846154  -0.0769231   0.0000000), wk =   0.0236686
        k(   73) = (   0.4615385  -0.0000000   0.0000000), wk =   0.0236686
        k(   74) = (   0.4615385   0.0769231   0.0000000), wk =   0.0236686
        k(   75) = (   0.4615385   0.1538462   0.0000000), wk =   0.0236686
        k(   76) = (   0.4615385   0.2307692   0.0000000), wk =   0.0236686
        k(   77) = (   0.4615385   0.3076923   0.0000000), wk =   0.0236686
        k(   78) = (   0.4615385   0.3846154   0.0000000), wk =   0.0236686
        k(   79) = (   0.4615385   0.4615385   0.0000000), wk =   0.0236686
        k(   80) = (   0.4615385  -0.4615385   0.0000000), wk =   0.0236686
        k(   81) = (   0.4615385  -0.3846154   0.0000000), wk =   0.0236686
        k(   82) = (   0.4615385  -0.3076923   0.0000000), wk =   0.0236686
        k(   83) = (   0.4615385  -0.2307692   0.0000000), wk =   0.0236686
        k(   84) = (   0.4615385  -0.1538462   0.0000000), wk =   0.0236686
        k(   85) = (   0.4615385  -0.0769231   0.0000000), wk =   0.0236686

     Dense  grid:   200001 G-vectors     FFT dimensions: (  45,  45, 225)

     Dynamical RAM for                 wfc:       0.45 MB

     Dynamical RAM for     wfc (w. buffer):       0.45 MB

     Dynamical RAM for                 EXX:     649.21 MB

     Dynamical RAM for           str. fact:       0.07 MB

     Dynamical RAM for           local pot:       0.00 MB

     Dynamical RAM for          nlocal pot:       0.41 MB

     Dynamical RAM for                qrad:       2.85 MB

     Dynamical RAM for          rho,v,vnew:       0.25 MB

     Dynamical RAM for           G-vectors:       0.15 MB

     Dynamical RAM for          h,s,v(r/c):       1.83 MB

     Dynamical RAM for          <psi|beta>:       0.14 MB

     Dynamical RAM for                 psi:       0.91 MB

     Dynamical RAM for                hpsi:       0.91 MB

     Dynamical RAM for      wfcinit/wfcrot:       1.14 MB

     Estimated static dynamical RAM per process >     653.73 MB

     Estimated max dynamical RAM per process >     657.51 MB

     Estimated total dynamical RAM >     107.87 GB
     EXX: initializing ACE and reading from file
     ACE potential read for      100 bands
     ACE potential read for      100 bands
     ACE potential read for      100 bands
     ACE potential read for      100 bands
     ACE potential read for      100 bands
     ACE potential read for      100 bands
     ACE potential read for      100 bands
     ACE potential read for      100 bands
     ACE potential read for      100 bands
     ACE potential read for      100 bands
     ACE potential read for      100 bands
     ACE potential read for      100 bands
     ACE potential read for      100 bands
     ACE potential read for      100 bands
     ACE potential read for      100 bands
     ACE potential read for      100 bands
     ACE potential read for      100 bands
     ACE potential read for      100 bands
     ACE potential read for      100 bands
     ACE potential read for      100 bands
     ACE potential read for      100 bands
     ACE potential read for      100 bands
     ACE potential read for      100 bands
     ACE potential read for      100 bands
     ACE potential read for      100 bands
     ACE potential read for      100 bands
     ACE potential read for      100 bands
     ACE potential read for      100 bands
     ACE potential read for      100 bands
     ACE potential read for      100 bands
     ACE potential read for      100 bands
     ACE potential read for      100 bands
     ACE potential read for      100 bands
     ACE potential read for      100 bands
     ACE potential read for      100 bands
     ACE potential read for      100 bands
     ACE potential read for      100 bands
     ACE potential read for      100 bands
     ACE potential read for      100 bands
     ACE potential read for      100 bands
     ACE potential read for      100 bands
     ACE potential read for      100 bands
     ACE potential read for      100 bands
     Starting ACE correctly read from file

     The potential is recalculated from file :
     tmp/Sb2Te3-uatsx-c4-5.0.save/charge-density

     Starting wfcs are random

     Band Structure Calculation
     Davidson diagonalization with overlap

     Computing kpt #:     1  of    43 on this pool
     total cpu time spent up to now is       16.9 secs

     Computing kpt #:     2  of    43 on this pool
     total cpu time spent up to now is       19.9 secs

     Computing kpt #:     3  of    43 on this pool
     total cpu time spent up to now is       22.9 secs

     Computing kpt #:     4  of    43 on this pool
     total cpu time spent up to now is       25.8 secs

     Computing kpt #:     5  of    43 on this pool
     total cpu time spent up to now is       28.8 secs

     Computing kpt #:     6  of    43 on this pool
     total cpu time spent up to now is       32.0 secs

     Computing kpt #:     7  of    43 on this pool
     total cpu time spent up to now is       35.1 secs

     Computing kpt #:     8  of    43 on this pool
     total cpu time spent up to now is       38.2 secs

     Computing kpt #:     9  of    43 on this pool
     total cpu time spent up to now is       41.6 secs

     Computing kpt #:    10  of    43 on this pool
     total cpu time spent up to now is       45.1 secs

     Computing kpt #:    11  of    43 on this pool
     total cpu time spent up to now is       48.6 secs

     Computing kpt #:    12  of    43 on this pool
     total cpu time spent up to now is       51.4 secs

     Computing kpt #:    13  of    43 on this pool
     total cpu time spent up to now is       54.4 secs

     Computing kpt #:    14  of    43 on this pool
     total cpu time spent up to now is       57.3 secs

     Computing kpt #:    15  of    43 on this pool
     total cpu time spent up to now is       60.1 secs

     Computing kpt #:    16  of    43 on this pool
     total cpu time spent up to now is       63.0 secs

     Computing kpt #:    17  of    43 on this pool
     total cpu time spent up to now is       65.9 secs

     Computing kpt #:    18  of    43 on this pool
     total cpu time spent up to now is       69.0 secs

     Computing kpt #:    19  of    43 on this pool
     total cpu time spent up to now is       71.8 secs

     Computing kpt #:    20  of    43 on this pool
     total cpu time spent up to now is       75.1 secs

     Computing kpt #:    21  of    43 on this pool
     total cpu time spent up to now is       78.5 secs

     Computing kpt #:    22  of    43 on this pool
     total cpu time spent up to now is       81.7 secs

     Computing kpt #:    23  of    43 on this pool
     total cpu time spent up to now is       84.6 secs

     Computing kpt #:    24  of    43 on this pool
     total cpu time spent up to now is       87.4 secs

     Computing kpt #:    25  of    43 on this pool
     total cpu time spent up to now is       90.3 secs

     Computing kpt #:    26  of    43 on this pool
     total cpu time spent up to now is       93.1 secs

     Computing kpt #:    27  of    43 on this pool
     total cpu time spent up to now is       96.2 secs

     Computing kpt #:    28  of    43 on this pool
     total cpu time spent up to now is       99.7 secs

     Computing kpt #:    29  of    43 on this pool
     total cpu time spent up to now is      102.6 secs

     Computing kpt #:    30  of    43 on this pool
     total cpu time spent up to now is      105.6 secs

     Computing kpt #:    31  of    43 on this pool
     total cpu time spent up to now is      108.5 secs

     Computing kpt #:    32  of    43 on this pool
     total cpu time spent up to now is      111.5 secs

     Computing kpt #:    33  of    43 on this pool
     total cpu time spent up to now is      114.8 secs

     Computing kpt #:    34  of    43 on this pool
     total cpu time spent up to now is      117.8 secs

     Computing kpt #:    35  of    43 on this pool
     total cpu time spent up to now is      121.0 secs

     Computing kpt #:    36  of    43 on this pool
     total cpu time spent up to now is      123.7 secs

     Computing kpt #:    37  of    43 on this pool
     total cpu time spent up to now is      126.7 secs

     Computing kpt #:    38  of    43 on this pool
     total cpu time spent up to now is      129.8 secs

     Computing kpt #:    39  of    43 on this pool
     total cpu time spent up to now is      132.8 secs

     Computing kpt #:    40  of    43 on this pool
     c_bands:  1 eigenvalues not converged
     total cpu time spent up to now is      137.1 secs

     Computing kpt #:    41  of    43 on this pool
     total cpu time spent up to now is      140.5 secs

     Computing kpt #:    42  of    43 on this pool
     total cpu time spent up to now is      143.4 secs

     Computing kpt #:    43  of    43 on this pool
     total cpu time spent up to now is      146.5 secs

     ethr =  1.28E-10,  avg # of iterations = 53.4

     total cpu time spent up to now is      147.8 secs

     End of band structure calculation

          k = 0.0000 0.0000 0.0000 ( 24991 PWs)   bands (ev):

   -36.7284 -36.7257 -36.7225 -36.7196 -36.6943 -36.6914 -36.6842 -36.6814
   -36.6693 -36.6665 -36.4455 -36.4374 -36.4282 -36.4186 -36.4118 -29.4461
   -29.4441 -29.4411 -29.4395 -29.4003 -29.3994 -29.3958 -29.3948 -29.3816
   -29.3807 -13.0091 -12.4658 -11.1794  -7.9742  -6.5177  -1.6317  -1.2930
    -1.2729  -1.0706  -0.9962  -0.4741  -0.4527  -0.2772   0.1194   1.6302
     2.1604   2.3265   3.1185   3.3044   3.5285   6.0873   6.2549   7.2086
     7.6757   7.7958   8.4315   8.4359   8.9351   8.9440   9.0805   9.7466
     9.9210  10.1279  10.2167  10.3767  10.9148  11.3223  11.6390  11.8716
    12.0361  12.1959  12.9477  13.1717  14.0473  14.2835  14.5612  14.6739
    14.8373  15.2837  15.5554  15.8024  16.0366  16.2188  16.2598  16.4984
    16.5757  16.7555  16.8002  16.8363  16.9046  17.0647  17.1873  17.3055
    17.3751  17.4954  17.6321  17.7896  17.8394  18.1109  18.7103  18.7319
    18.9292  19.0047  19.2762  19.3008

     occupation numbers 
     1.0000   1.0000   1.0000   1.0000   1.0000   1.0000   1.0000   1.0000
     1.0000   1.0000   1.0000   1.0000   1.0000   1.0000   1.0000   1.0000
     1.0000   1.0000   1.0000   1.0000   1.0000   1.0000   1.0000   1.0000
     1.0000   1.0000   1.0000   1.0000   1.0000   1.0000   1.0000   1.0000
     1.0000   1.0000   1.0000   1.0000   1.0000   1.0000   1.0000   0.0000
     0.0000   0.0000   0.0000   0.0000   0.0000   0.0000   0.0000   0.0000
     0.0000   0.0000   0.0000   0.0000   0.0000   0.0000   0.0000   0.0000
     0.0000   0.0000   0.0000   0.0000   0.0000   0.0000   0.0000   0.0000
     0.0000   0.0000   0.0000   0.0000   0.0000   0.0000   0.0000   0.0000
     0.0000   0.0000   0.0000   0.0000   0.0000   0.0000   0.0000   0.0000
     0.0000   0.0000   0.0000   0.0000   0.0000   0.0000   0.0000   0.0000
     0.0000   0.0000   0.0000   0.0000   0.0000   0.0000   0.0000   0.0000
     0.0000   0.0000   0.0000   0.0000

          k = 0.0000 0.0933 0.0000 ( 24962 PWs)   bands (ev):

   -36.7299 -36.7271 -36.7260 -36.7232 -36.6903 -36.6876 -36.6858 -36.6829
   -36.6622 -36.6594 -36.4486 -36.4394 -36.4246 -36.4124 -36.4034 -29.4394
   -29.4376 -29.4347 -29.4332 -29.4025 -29.4017 -29.4004 -29.3994 -29.3783
   -29.3772 -12.9319 -12.3870 -11.1439  -8.0170  -6.6672  -1.8394  -1.7571
    -1.3851  -1.3153  -1.1037  -0.8186  -0.3717  -0.0191   0.4280   1.7322
     2.2374   2.4905   3.1202   3.4103   3.7758   6.1719   6.3015   7.2820
     7.5697   7.8430   7.9787   8.5276   8.9210   9.0616   9.1802   9.6030
     9.9632  10.1498  10.5679  10.8277  11.1562  11.1639  11.3525  12.0034
    12.3237  12.6102  13.0839  13.3348  13.6874  13.8679  14.4801  14.6304
    14.9648  15.2551  15.3011  15.5764  15.8822  16.0084  16.1712  16.2268
    16.2911  16.3740  16.5556  16.6731  16.8531  17.1010  17.2841  17.5563
    17.6982  17.9693  17.9996  18.1525  18.2184  18.3210  18.4306  18.5247
    18.6669  18.8597  19.2935  19.5191

     occupation numbers 
     1.0000   1.0000   1.0000   1.0000   1.0000   1.0000   1.0000   1.0000
     1.0000   1.0000   1.0000   1.0000   1.0000   1.0000   1.0000   1.0000
     1.0000   1.0000   1.0000   1.0000   1.0000   1.0000   1.0000   1.0000
     1.0000   1.0000   1.0000   1.0000   1.0000   1.0000   1.0000   1.0000
     1.0000   1.0000   1.0000   1.0000   1.0000   1.0000   1.0000   0.0000
     0.0000   0.0000   0.0000   0.0000   0.0000   0.0000   0.0000   0.0000
     0.0000   0.0000   0.0000   0.0000   0.0000   0.0000   0.0000   0.0000
     0.0000   0.0000   0.0000   0.0000   0.0000   0.0000   0.0000   0.0000
     0.0000   0.0000   0.0000   0.0000   0.0000   0.0000   0.0000   0.0000
     0.0000   0.0000   0.0000   0.0000   0.0000   0.0000   0.0000   0.0000
     0.0000   0.0000   0.0000   0.0000   0.0000   0.0000   0.0000   0.0000
     0.0000   0.0000   0.0000   0.0000   0.0000   0.0000   0.0000   0.0000
     0.0000   0.0000   0.0000   0.0000

          k = 0.0000 0.1865 0.0000 ( 24964 PWs)   bands (ev):

   -36.7201 -36.7180 -36.7173 -36.7152 -36.6792 -36.6764 -36.6688 -36.6660
   -36.6510 -36.6482 -36.4440 -36.4356 -36.4165 -36.4073 -36.3977 -29.4375
   -29.4356 -29.4305 -29.4291 -29.4136 -29.4120 -29.4044 -29.4033 -29.4002
   -29.3992 -12.7296 -12.1646 -11.0206  -8.1298  -7.0295  -2.6251  -2.1440
    -1.8639  -1.5891  -1.5556  -0.9823  -0.3183   0.0460   0.5244   1.9801
     2.4324   2.8688   3.3516   3.7080   4.2610   6.3699   6.4289   7.0760
     7.5593   7.6896   8.1830   8.5945   8.8792   9.1242   9.2895   9.7695
     9.8640  10.3434  10.9373  11.1463  11.4634  11.5779  12.0590  12.2539
    12.5893  12.6676  13.1326  13.5146  13.6469  13.7705  14.1777  14.3001
    14.6177  14.7766  14.8530  15.1779  15.4070  15.5904  15.7537  15.9289
    16.0616  16.2800  16.6468  16.9278  17.0168  17.3585  17.4060  17.5409
    17.7365  17.9325  18.0003  18.2625  18.4882  18.6476  18.7502  19.1369
    19.2968  19.5399  19.8687  19.9254

     occupation numbers 
     1.0000   1.0000   1.0000   1.0000   1.0000   1.0000   1.0000   1.0000
     1.0000   1.0000   1.0000   1.0000   1.0000   1.0000   1.0000   1.0000
     1.0000   1.0000   1.0000   1.0000   1.0000   1.0000   1.0000   1.0000
     1.0000   1.0000   1.0000   1.0000   1.0000   1.0000   1.0000   1.0000
     1.0000   1.0000   1.0000   1.0000   1.0000   1.0000   1.0000   0.0000
     0.0000   0.0000   0.0000   0.0000   0.0000   0.0000   0.0000   0.0000
     0.0000   0.0000   0.0000   0.0000   0.0000   0.0000   0.0000   0.0000
     0.0000   0.0000   0.0000   0.0000   0.0000   0.0000   0.0000   0.0000
     0.0000   0.0000   0.0000   0.0000   0.0000   0.0000   0.0000   0.0000
     0.0000   0.0000   0.0000   0.0000   0.0000   0.0000   0.0000   0.0000
     0.0000   0.0000   0.0000   0.0000   0.0000   0.0000   0.0000   0.0000
     0.0000   0.0000   0.0000   0.0000   0.0000   0.0000   0.0000   0.0000
     0.0000   0.0000   0.0000   0.0000

          k = 0.0000 0.2798 0.0000 ( 25021 PWs)   bands (ev):

   -36.7158 -36.7129 -36.7124 -36.7096 -36.6720 -36.6691 -36.6603 -36.6575
   -36.6447 -36.6418 -36.4394 -36.4314 -36.4079 -36.4004 -36.3905 -29.4348
   -29.4330 -29.4267 -29.4255 -29.4159 -29.4143 -29.4090 -29.4077 -29.3961
   -29.3945 -12.4323 -11.9023 -10.8728  -8.2972  -7.5086  -3.3430  -2.5172
    -2.3987  -1.9005  -1.8590  -0.9872  -0.4932  -0.3532   0.5737   2.0931
     2.6058   3.2443   3.6907   4.0122   4.7941   6.3027   6.6727   6.9756
     7.7299   7.9681   8.5869   8.7095   8.9717   9.0265   9.7329  10.0072
    10.2346  10.5052  10.8469  11.6118  11.9574  12.0926  12.3138  12.4189
    12.5033  12.6928  13.2346  13.3352  13.7782  13.8087  13.9528  14.3010
    14.3473  14.5678  14.8290  14.9898  15.2206  15.2510  15.5126  15.5276
    15.9350  16.5335  16.5750  16.7591  17.1532  17.2689  17.4032  17.4604
    17.6821  18.0592  18.2651  18.4293  18.7135  18.7343  18.9406  19.1145
    19.3931  19.5743  19.5781  19.7894

     occupation numbers 
     1.0000   1.0000   1.0000   1.0000   1.0000   1.0000   1.0000   1.0000
     1.0000   1.0000   1.0000   1.0000   1.0000   1.0000   1.0000   1.0000
     1.0000   1.0000   1.0000   1.0000   1.0000   1.0000   1.0000   1.0000
     1.0000   1.0000   1.0000   1.0000   1.0000   1.0000   1.0000   1.0000
     1.0000   1.0000   1.0000   1.0000   1.0000   1.0000   1.0000   0.0000
     0.0000   0.0000   0.0000   0.0000   0.0000   0.0000   0.0000   0.0000
     0.0000   0.0000   0.0000   0.0000   0.0000   0.0000   0.0000   0.0000
     0.0000   0.0000   0.0000   0.0000   0.0000   0.0000   0.0000   0.0000
     0.0000   0.0000   0.0000   0.0000   0.0000   0.0000   0.0000   0.0000
     0.0000   0.0000   0.0000   0.0000   0.0000   0.0000   0.0000   0.0000
     0.0000   0.0000   0.0000   0.0000   0.0000   0.0000   0.0000   0.0000
     0.0000   0.0000   0.0000   0.0000   0.0000   0.0000   0.0000   0.0000
     0.0000   0.0000   0.0000   0.0000

          k = 0.0000 0.3731 0.0000 ( 25054 PWs)   bands (ev):

   -36.7112 -36.7083 -36.7061 -36.7033 -36.6657 -36.6628 -36.6534 -36.6507
   -36.6364 -36.6336 -36.4366 -36.4296 -36.3990 -36.3912 -36.3795 -29.4363
   -29.4347 -29.4276 -29.4266 -29.4168 -29.4150 -29.4106 -29.4093 -29.3978
   -29.3960 -12.0590 -11.5873 -10.7424  -8.5859  -8.0069  -3.9103  -2.8306
    -2.8089  -2.1297  -2.0803  -1.2577  -0.6025  -0.4315   0.3199   2.1716
     2.7266   3.3021   3.9529   4.2989   5.2608   5.9603   7.0666   7.2351
     7.9780   8.3894   8.5913   9.1857   9.4193   9.5270  10.2096  10.3305
    10.3995  10.7995  11.0404  11.1829  11.8374  12.0108  12.1651  12.4570
    12.9228  13.0015  13.1699  13.2822  13.4674  13.9084  14.1788  14.2668
    14.5207  14.6305  14.8242  15.0066  15.2042  15.4172  15.5424  15.8324
    16.1563  16.3635  16.4664  16.7049  16.8507  16.9516  17.0522  17.1531
    17.3158  17.4720  17.6379  17.9554  18.3006  18.5668  18.7882  18.8302
    19.2043  19.6489  19.7513  19.9076

     occupation numbers 
     1.0000   1.0000   1.0000   1.0000   1.0000   1.0000   1.0000   1.0000
     1.0000   1.0000   1.0000   1.0000   1.0000   1.0000   1.0000   1.0000
     1.0000   1.0000   1.0000   1.0000   1.0000   1.0000   1.0000   1.0000
     1.0000   1.0000   1.0000   1.0000   1.0000   1.0000   1.0000   1.0000
     1.0000   1.0000   1.0000   1.0000   1.0000   1.0000   1.0000   0.0000
     0.0000   0.0000   0.0000   0.0000   0.0000   0.0000   0.0000   0.0000
     0.0000   0.0000   0.0000   0.0000   0.0000   0.0000   0.0000   0.0000
     0.0000   0.0000   0.0000   0.0000   0.0000   0.0000   0.0000   0.0000
     0.0000   0.0000   0.0000   0.0000   0.0000   0.0000   0.0000   0.0000
     0.0000   0.0000   0.0000   0.0000   0.0000   0.0000   0.0000   0.0000
     0.0000   0.0000   0.0000   0.0000   0.0000   0.0000   0.0000   0.0000
     0.0000   0.0000   0.0000   0.0000   0.0000   0.0000   0.0000   0.0000
     0.0000   0.0000   0.0000   0.0000

          k = 0.0000 0.4663 0.0000 ( 25034 PWs)   bands (ev):

   -36.7065 -36.7037 -36.7006 -36.6977 -36.6644 -36.6615 -36.6496 -36.6469
   -36.6345 -36.6317 -36.4358 -36.4300 -36.3952 -36.3858 -36.3729 -29.4360
   -29.4345 -29.4274 -29.4265 -29.4166 -29.4144 -29.4081 -29.4066 -29.3987
   -29.3966 -11.6381 -11.2687 -10.7152  -8.9608  -8.4106  -4.2948  -3.0495
    -2.9948  -2.3399  -2.2991  -1.4715  -0.5627  -0.4966   0.0307   2.1647
     2.7751   3.2518   4.1174   4.5041   5.4562   5.7573   7.2970   7.7189
     8.2001   8.8096   9.1365   9.4533   9.7020  10.0468  10.4246  10.5279
    10.8288  10.9170  11.1210  11.4040  11.5619  11.7243  12.0601  12.5047
    12.8304  13.1549  13.3264  13.5623  13.7818  13.8351  13.9949  14.1344
    14.2727  14.3725  14.7000  14.7854  15.0123  15.2872  15.6887  15.8879
    16.0134  16.1350  16.4318  16.6168  16.6695  16.7784  16.8307  17.0787
    17.2827  17.4422  17.5469  17.6692  18.0315  18.6021  18.7463  19.0780
    19.2101  19.4438  19.7122  19.9024

     occupation numbers 
     1.0000   1.0000   1.0000   1.0000   1.0000   1.0000   1.0000   1.0000
     1.0000   1.0000   1.0000   1.0000   1.0000   1.0000   1.0000   1.0000
     1.0000   1.0000   1.0000   1.0000   1.0000   1.0000   1.0000   1.0000
     1.0000   1.0000   1.0000   1.0000   1.0000   1.0000   1.0000   1.0000
     1.0000   1.0000   1.0000   1.0000   1.0000   1.0000   1.0000   0.0000
     0.0000   0.0000   0.0000   0.0000   0.0000   0.0000   0.0000   0.0000
     0.0000   0.0000   0.0000   0.0000   0.0000   0.0000   0.0000   0.0000
     0.0000   0.0000   0.0000   0.0000   0.0000   0.0000   0.0000   0.0000
     0.0000   0.0000   0.0000   0.0000   0.0000   0.0000   0.0000   0.0000
     0.0000   0.0000   0.0000   0.0000   0.0000   0.0000   0.0000   0.0000
     0.0000   0.0000   0.0000   0.0000   0.0000   0.0000   0.0000   0.0000
     0.0000   0.0000   0.0000   0.0000   0.0000   0.0000   0.0000   0.0000
     0.0000   0.0000   0.0000   0.0000

          k = 0.0000 0.5596 0.0000 ( 25035 PWs)   bands (ev):

   -36.7037 -36.7009 -36.6977 -36.6948 -36.6649 -36.6620 -36.6465 -36.6438
   -36.6369 -36.6341 -36.4359 -36.4309 -36.3943 -36.3835 -36.3701 -29.4352
   -29.4338 -29.4268 -29.4259 -29.4160 -29.4135 -29.4048 -29.4033 -29.3988
   -29.3964 -11.2135 -11.0412 -10.8655  -9.2446  -8.6472  -4.4921  -3.1540
    -3.0066  -2.5714  -2.4029  -1.5289  -0.5828  -0.4947  -0.1357   2.1048
     2.7871   3.2682   4.1384   4.6064   5.5081   5.6447   7.4457   8.2932
     8.5430   8.9179   9.0968   9.4549   9.8467  10.1396  10.5269  10.7632
    11.1745  11.2926  11.4489  11.7028  11.7858  11.9128  12.1829  12.5032
    12.7055  12.9344  12.9985  13.2288  13.5656  13.6485  13.9355  14.0488
    14.2585  14.3524  14.5356  14.7109  14.8007  15.0476  15.2578  15.3838
    15.6788  15.7819  16.2924  16.4400  16.5034  16.8138  16.9822  17.4755
    17.6966  17.8993  17.9841  18.3489  18.4264  18.6635  18.8123  19.2282
    19.2336  19.5274  19.6239  19.7595

     occupation numbers 
     1.0000   1.0000   1.0000   1.0000   1.0000   1.0000   1.0000   1.0000
     1.0000   1.0000   1.0000   1.0000   1.0000   1.0000   1.0000   1.0000
     1.0000   1.0000   1.0000   1.0000   1.0000   1.0000   1.0000   1.0000
     1.0000   1.0000   1.0000   1.0000   1.0000   1.0000   1.0000   1.0000
     1.0000   1.0000   1.0000   1.0000   1.0000   1.0000   1.0000   0.0000
     0.0000   0.0000   0.0000   0.0000   0.0000   0.0000   0.0000   0.0000
     0.0000   0.0000   0.0000   0.0000   0.0000   0.0000   0.0000   0.0000
     0.0000   0.0000   0.0000   0.0000   0.0000   0.0000   0.0000   0.0000
     0.0000   0.0000   0.0000   0.0000   0.0000   0.0000   0.0000   0.0000
     0.0000   0.0000   0.0000   0.0000   0.0000   0.0000   0.0000   0.0000
     0.0000   0.0000   0.0000   0.0000   0.0000   0.0000   0.0000   0.0000
     0.0000   0.0000   0.0000   0.0000   0.0000   0.0000   0.0000   0.0000
     0.0000   0.0000   0.0000   0.0000

          k = 0.0769 0.0444 0.0000 ( 24955 PWs)   bands (ev):

   -36.7321 -36.7293 -36.7262 -36.7234 -36.6949 -36.6920 -36.6795 -36.6767
   -36.6622 -36.6594 -36.4417 -36.4363 -36.4301 -36.4128 -36.4094 -29.4398
   -29.4380 -29.4350 -29.4335 -29.4055 -29.4040 -29.3991 -29.3982 -29.3793
   -29.3780 -12.9391 -12.3965 -11.1510  -8.0250  -6.6899  -1.9551  -1.7594
    -1.4162  -1.1347  -1.0277  -0.8534  -0.1950  -0.0455   0.3990   1.9420
     2.1081   2.4010   3.2913   3.3670   3.6424   6.1641   6.2920   7.2853
     7.4773   7.6651   8.4413   8.5214   8.8147   8.9867   9.2101   9.6517
    10.0538  10.3176  10.4493  10.5566  11.0474  11.1666  11.5808  11.7089
    12.5081  12.6558  12.9341  13.1480  13.6353  14.1963  14.2178  14.7188
    14.9374  15.1257  15.2831  15.3932  15.7918  15.9002  16.1189  16.4106
    16.6380  16.6941  16.7451  16.9392  17.0671  17.0978  17.2436  17.4457
    17.6481  17.7718  17.8934  18.1676  18.2243  18.3926  18.5429  18.6314
    18.7125  18.9635  19.0684  19.2484

     occupation numbers 
     1.0000   1.0000   1.0000   1.0000   1.0000   1.0000   1.0000   1.0000
     1.0000   1.0000   1.0000   1.0000   1.0000   1.0000   1.0000   1.0000
     1.0000   1.0000   1.0000   1.0000   1.0000   1.0000   1.0000   1.0000
     1.0000   1.0000   1.0000   1.0000   1.0000   1.0000   1.0000   1.0000
     1.0000   1.0000   1.0000   1.0000   1.0000   1.0000   1.0000   0.0000
     0.0000   0.0000   0.0000   0.0000   0.0000   0.0000   0.0000   0.0000
     0.0000   0.0000   0.0000   0.0000   0.0000   0.0000   0.0000   0.0000
     0.0000   0.0000   0.0000   0.0000   0.0000   0.0000   0.0000   0.0000
     0.0000   0.0000   0.0000   0.0000   0.0000   0.0000   0.0000   0.0000
     0.0000   0.0000   0.0000   0.0000   0.0000   0.0000   0.0000   0.0000
     0.0000   0.0000   0.0000   0.0000   0.0000   0.0000   0.0000   0.0000
     0.0000   0.0000   0.0000   0.0000   0.0000   0.0000   0.0000   0.0000
     0.0000   0.0000   0.0000   0.0000

          k = 0.0769 0.1377 0.0000 ( 24965 PWs)   bands (ev):

   -36.7337 -36.7309 -36.7176 -36.7148 -36.6847 -36.6818 -36.6731 -36.6703
   -36.6560 -36.6532 -36.4438 -36.4369 -36.4271 -36.4061 -36.4022 -29.4396
   -29.4382 -29.4265 -29.4250 -29.4110 -29.4098 -29.4019 -29.4008 -29.3874
   -29.3860 -12.8024 -12.2466 -11.0764  -8.1064  -6.9479  -2.4429  -2.0510
    -1.8489  -1.5037  -1.0955  -0.9554  -0.4241   0.3091   0.4906   2.1151
     2.2449   2.7291   3.4000   3.5424   4.0255   6.3050   6.3831   7.2627
     7.4051   7.5130   8.4287   8.5726   8.7722   9.1123   9.2108   9.7214
    10.0467  10.4237  10.6977  11.0663  11.1906  11.4607  11.7004  11.8761
    12.7803  12.8652  13.2080  13.3602  13.4607  13.7076  13.9816  14.3875
    14.6111  14.8344  15.0901  15.3547  15.5210  15.5883  15.8998  16.3536
    16.4168  16.7589  16.7696  16.9062  17.0534  17.2871  17.3892  17.4512
    17.5620  17.7342  17.8137  17.9867  18.2607  19.0143  19.0517  19.2489
    19.3372  19.4457  19.5357  19.6709

     occupation numbers 
     1.0000   1.0000   1.0000   1.0000   1.0000   1.0000   1.0000   1.0000
     1.0000   1.0000   1.0000   1.0000   1.0000   1.0000   1.0000   1.0000
     1.0000   1.0000   1.0000   1.0000   1.0000   1.0000   1.0000   1.0000
     1.0000   1.0000   1.0000   1.0000   1.0000   1.0000   1.0000   1.0000
     1.0000   1.0000   1.0000   1.0000   1.0000   1.0000   1.0000   0.0000
     0.0000   0.0000   0.0000   0.0000   0.0000   0.0000   0.0000   0.0000
     0.0000   0.0000   0.0000   0.0000   0.0000   0.0000   0.0000   0.0000
     0.0000   0.0000   0.0000   0.0000   0.0000   0.0000   0.0000   0.0000
     0.0000   0.0000   0.0000   0.0000   0.0000   0.0000   0.0000   0.0000
     0.0000   0.0000   0.0000   0.0000   0.0000   0.0000   0.0000   0.0000
     0.0000   0.0000   0.0000   0.0000   0.0000   0.0000   0.0000   0.0000
     0.0000   0.0000   0.0000   0.0000   0.0000   0.0000   0.0000   0.0000
     0.0000   0.0000   0.0000   0.0000

          k = 0.0769 0.2309 0.0000 ( 24989 PWs)   bands (ev):

   -36.7196 -36.7168 -36.7161 -36.7133 -36.6739 -36.6710 -36.6645 -36.6619
   -36.6464 -36.6436 -36.4391 -36.4324 -36.4175 -36.4009 -36.3957 -29.4374
   -29.4359 -29.4232 -29.4216 -29.4149 -29.4137 -29.4036 -29.4025 -29.4021
   -29.4001 -12.5573 -12.0122 -10.9408  -8.2390  -7.3629  -2.9839  -2.6691
    -2.0854  -1.9433  -1.4617  -1.1448  -0.4244   0.0692   0.5982   2.2941
     2.4120   3.0951   3.6685   3.9154   4.5446   6.4970   6.5392   7.0078
     7.3888   7.7448   8.6232   8.7371   8.8003   8.9168   9.6067  10.0020
    10.1007  10.5134  11.0427  11.2493  11.6142  11.7546  12.2608  12.4357
    12.7686  13.0714  13.1124  13.2856  13.4772  13.7363  13.8627  14.1418
    14.2429  14.2995  14.5881  14.9597  15.5622  15.6930  16.0214  16.0686
    16.2259  16.3928  16.5111  16.6916  16.8176  17.0553  17.3340  17.6600
    17.9672  18.1950  18.5046  18.5384  18.6672  18.7300  18.8346  19.0459
    19.0808  19.3679  19.4104  19.4884

     occupation numbers 
     1.0000   1.0000   1.0000   1.0000   1.0000   1.0000   1.0000   1.0000
     1.0000   1.0000   1.0000   1.0000   1.0000   1.0000   1.0000   1.0000
     1.0000   1.0000   1.0000   1.0000   1.0000   1.0000   1.0000   1.0000
     1.0000   1.0000   1.0000   1.0000   1.0000   1.0000   1.0000   1.0000
     1.0000   1.0000   1.0000   1.0000   1.0000   1.0000   1.0000   0.0000
     0.0000   0.0000   0.0000   0.0000   0.0000   0.0000   0.0000   0.0000
     0.0000   0.0000   0.0000   0.0000   0.0000   0.0000   0.0000   0.0000
     0.0000   0.0000   0.0000   0.0000   0.0000   0.0000   0.0000   0.0000
     0.0000   0.0000   0.0000   0.0000   0.0000   0.0000   0.0000   0.0000
     0.0000   0.0000   0.0000   0.0000   0.0000   0.0000   0.0000   0.0000
     0.0000   0.0000   0.0000   0.0000   0.0000   0.0000   0.0000   0.0000
     0.0000   0.0000   0.0000   0.0000   0.0000   0.0000   0.0000   0.0000
     0.0000   0.0000   0.0000   0.0000

          k = 0.0769 0.3242 0.0000 ( 25034 PWs)   bands (ev):

   -36.7134 -36.7106 -36.7081 -36.7053 -36.6681 -36.6652 -36.6571 -36.6544
   -36.6406 -36.6378 -36.4349 -36.4293 -36.4076 -36.3936 -36.3862 -29.4353
   -29.4337 -29.4240 -29.4229 -29.4172 -29.4160 -29.4081 -29.4066 -29.3999
   -29.3981 -12.2255 -11.7257 -10.7965  -8.4559  -7.8545  -3.6078  -2.9806
    -2.4072  -2.3414  -1.8037  -1.2761  -0.4155  -0.3130   0.5063   2.3716
     2.5581   3.3033   3.9737   4.2319   5.0531   6.2506   6.8844   7.1251
     7.7285   8.1465   8.3418   9.0154   9.1762   9.4146   9.9467  10.3140
    10.3651  10.5681  11.2126  11.3522  11.7040  12.2273  12.4878  12.6541
    12.7335  12.8063  12.9060  13.0172  13.3611  13.5567  13.9199  14.2459
    14.5039  14.7316  14.9734  15.0391  15.2682  15.4284  15.6651  15.8992
    15.9940  16.1046  16.2778  16.4243  16.8211  16.9485  17.2480  17.6516
    17.9304  18.0025  18.0600  18.2692  18.5384  18.7583  18.8172  18.8662
    19.0449  19.5335  19.7023  19.8074

     occupation numbers 
     1.0000   1.0000   1.0000   1.0000   1.0000   1.0000   1.0000   1.0000
     1.0000   1.0000   1.0000   1.0000   1.0000   1.0000   1.0000   1.0000
     1.0000   1.0000   1.0000   1.0000   1.0000   1.0000   1.0000   1.0000
     1.0000   1.0000   1.0000   1.0000   1.0000   1.0000   1.0000   1.0000
     1.0000   1.0000   1.0000   1.0000   1.0000   1.0000   1.0000   0.0000
     0.0000   0.0000   0.0000   0.0000   0.0000   0.0000   0.0000   0.0000
     0.0000   0.0000   0.0000   0.0000   0.0000   0.0000   0.0000   0.0000
     0.0000   0.0000   0.0000   0.0000   0.0000   0.0000   0.0000   0.0000
     0.0000   0.0000   0.0000   0.0000   0.0000   0.0000   0.0000   0.0000
     0.0000   0.0000   0.0000   0.0000   0.0000   0.0000   0.0000   0.0000
     0.0000   0.0000   0.0000   0.0000   0.0000   0.0000   0.0000   0.0000
     0.0000   0.0000   0.0000   0.0000   0.0000   0.0000   0.0000   0.0000
     0.0000   0.0000   0.0000   0.0000

          k = 0.0769 0.4175 0.0000 ( 25027 PWs)   bands (ev):

   -36.7073 -36.7045 -36.7021 -36.6993 -36.6645 -36.6616 -36.6526 -36.6499
   -36.6378 -36.6350 -36.4335 -36.4291 -36.4008 -36.3870 -36.3773 -29.4351
   -29.4335 -29.4249 -29.4239 -29.4171 -29.4160 -29.4068 -29.4055 -29.3996
   -29.3977 -11.8283 -11.4060 -10.7056  -8.7856  -8.3122  -4.0895  -3.0953
    -2.8389  -2.6131  -1.9350  -1.4853  -0.6138  -0.3551   0.2852   2.4151
     2.5684   3.3681   4.1933   4.4351   5.4026   5.9594   7.2531   7.4713
     8.0873   8.4946   8.7095   9.3690   9.5777   9.8756  10.2151  10.5130
    10.7493  10.8299  11.1883  11.4348  11.5697  11.7911  12.0574  12.4603
    12.7351  13.0453  13.2064  13.3619  13.4336  13.6390  13.8596  13.9094
    14.0799  14.7446  15.0449  15.2025  15.3659  15.4994  15.6186  15.8728
    15.9918  16.1207  16.4397  16.5034  16.7622  16.8205  17.0274  17.2134
    17.4650  17.7944  17.9316  18.0608  18.2634  18.4064  18.6565  18.8341
    19.3151  19.4627  19.7109  19.7892

     occupation numbers 
     1.0000   1.0000   1.0000   1.0000   1.0000   1.0000   1.0000   1.0000
     1.0000   1.0000   1.0000   1.0000   1.0000   1.0000   1.0000   1.0000
     1.0000   1.0000   1.0000   1.0000   1.0000   1.0000   1.0000   1.0000
     1.0000   1.0000   1.0000   1.0000   1.0000   1.0000   1.0000   1.0000
     1.0000   1.0000   1.0000   1.0000   1.0000   1.0000   1.0000   0.0000
     0.0000   0.0000   0.0000   0.0000   0.0000   0.0000   0.0000   0.0000
     0.0000   0.0000   0.0000   0.0000   0.0000   0.0000   0.0000   0.0000
     0.0000   0.0000   0.0000   0.0000   0.0000   0.0000   0.0000   0.0000
     0.0000   0.0000   0.0000   0.0000   0.0000   0.0000   0.0000   0.0000
     0.0000   0.0000   0.0000   0.0000   0.0000   0.0000   0.0000   0.0000
     0.0000   0.0000   0.0000   0.0000   0.0000   0.0000   0.0000   0.0000
     0.0000   0.0000   0.0000   0.0000   0.0000   0.0000   0.0000   0.0000
     0.0000   0.0000   0.0000   0.0000

          k = 0.0769 0.5107 0.0000 ( 25043 PWs)   bands (ev):

   -36.7037 -36.7008 -36.6980 -36.6952 -36.6633 -36.6604 -36.6491 -36.6464
   -36.6378 -36.6350 -36.4333 -36.4298 -36.3975 -36.3827 -36.3718 -29.4347
   -29.4332 -29.4253 -29.4244 -29.4166 -29.4153 -29.4043 -29.4032 -29.4003
   -29.3980 -11.3983 -11.1158 -10.7447  -9.1400  -8.6384  -4.3836  -3.1876
    -3.0084  -2.7925  -2.1025  -1.6454  -0.6336  -0.4007   0.0742   2.4123
     2.5684   3.3093   4.3411   4.5296   5.5211   5.7931   7.4212   8.0203
     8.3457   9.0628   9.2136   9.2586   9.8264  10.0175  10.4543  10.6324
    10.9961  11.0887  11.2413  11.4458  11.6967  11.9515  12.0469  12.4327
    12.5274  12.7357  12.9188  13.1322  13.2831  13.6543  13.9383  14.3173
    14.3223  14.5266  14.8231  14.9500  15.1754  15.3144  15.5365  15.6640
    15.8976  15.9454  16.0734  16.4997  16.9902  17.1568  17.2605  17.3268
    17.4549  17.8725  17.9864  18.1525  18.3426  18.3903  18.5338  18.9185
    19.2151  19.4258  19.4966  19.9798

     occupation numbers 
     1.0000   1.0000   1.0000   1.0000   1.0000   1.0000   1.0000   1.0000
     1.0000   1.0000   1.0000   1.0000   1.0000   1.0000   1.0000   1.0000
     1.0000   1.0000   1.0000   1.0000   1.0000   1.0000   1.0000   1.0000
     1.0000   1.0000   1.0000   1.0000   1.0000   1.0000   1.0000   1.0000
     1.0000   1.0000   1.0000   1.0000   1.0000   1.0000   1.0000   0.0000
     0.0000   0.0000   0.0000   0.0000   0.0000   0.0000   0.0000   0.0000
     0.0000   0.0000   0.0000   0.0000   0.0000   0.0000   0.0000   0.0000
     0.0000   0.0000   0.0000   0.0000   0.0000   0.0000   0.0000   0.0000
     0.0000   0.0000   0.0000   0.0000   0.0000   0.0000   0.0000   0.0000
     0.0000   0.0000   0.0000   0.0000   0.0000   0.0000   0.0000   0.0000
     0.0000   0.0000   0.0000   0.0000   0.0000   0.0000   0.0000   0.0000
     0.0000   0.0000   0.0000   0.0000   0.0000   0.0000   0.0000   0.0000
     0.0000   0.0000   0.0000   0.0000

          k = 0.0769 0.6040 0.0000 ( 25026 PWs)   bands (ev):

   -36.7029 -36.7000 -36.6964 -36.6935 -36.6637 -36.6608 -36.6470 -36.6443
   -36.6385 -36.6357 -36.4338 -36.4304 -36.3965 -36.3810 -36.3700 -29.4344
   -29.4330 -29.4256 -29.4246 -29.4160 -29.4144 -29.4031 -29.4021 -29.4003
   -29.3977 -11.0275 -10.9969 -10.9450  -9.3027  -8.7617  -4.4848  -3.2811
    -2.9533  -2.8681  -2.2251  -1.6747  -0.5536  -0.5004  -0.0043   2.3689
     2.6018   3.2591   4.3741   4.5529   5.5889   5.6588   7.4958   8.5025
     8.7007   8.7420   8.9427   9.7497   9.8055   9.8528  10.5124  10.5854
    11.0107  11.2203  11.3360  11.6173  11.9723  11.9873  12.2404  12.4843
    12.5679  12.7397  12.8666  13.0321  13.5035  13.6645  14.0498  14.1533
    14.2973  14.5882  14.7065  14.7664  14.8928  15.2088  15.2696  15.4516
    15.7145  15.8391  16.1532  16.3216  16.7320  17.0412  17.0973  17.3495
    17.9039  18.1033  18.1919  18.4966  18.5696  18.8048  18.9113  19.0675
    19.1625  19.3334  19.5084  19.5942

     occupation numbers 
     1.0000   1.0000   1.0000   1.0000   1.0000   1.0000   1.0000   1.0000
     1.0000   1.0000   1.0000   1.0000   1.0000   1.0000   1.0000   1.0000
     1.0000   1.0000   1.0000   1.0000   1.0000   1.0000   1.0000   1.0000
     1.0000   1.0000   1.0000   1.0000   1.0000   1.0000   1.0000   1.0000
     1.0000   1.0000   1.0000   1.0000   1.0000   1.0000   1.0000   0.0000
     0.0000   0.0000   0.0000   0.0000   0.0000   0.0000   0.0000   0.0000
     0.0000   0.0000   0.0000   0.0000   0.0000   0.0000   0.0000   0.0000
     0.0000   0.0000   0.0000   0.0000   0.0000   0.0000   0.0000   0.0000
     0.0000   0.0000   0.0000   0.0000   0.0000   0.0000   0.0000   0.0000
     0.0000   0.0000   0.0000   0.0000   0.0000   0.0000   0.0000   0.0000
     0.0000   0.0000   0.0000   0.0000   0.0000   0.0000   0.0000   0.0000
     0.0000   0.0000   0.0000   0.0000   0.0000   0.0000   0.0000   0.0000
     0.0000   0.0000   0.0000   0.0000

          k = 0.0769-0.5152 0.0000 ( 25040 PWs)   bands (ev):

   -36.7038 -36.7009 -36.6982 -36.6954 -36.6649 -36.6620 -36.6480 -36.6453
   -36.6378 -36.6349 -36.4350 -36.4306 -36.3970 -36.3820 -36.3717 -29.4348
   -29.4334 -29.4259 -29.4249 -29.4158 -29.4142 -29.4053 -29.4042 -29.3988
   -29.3966 -11.3808 -11.1039 -10.7511  -9.1474  -8.6331  -4.3914  -3.2103
    -3.0149  -2.7555  -2.1392  -1.6098  -0.6050  -0.4614   0.0711   2.3864
     2.5659   3.2733   4.3364   4.4868   5.4933   5.7604   7.4016   8.0411
     8.3772   8.8984   9.1127   9.1975   9.7324   9.9069  10.3746  10.5391
    10.8536  11.1187  11.5392  11.5958  11.8604  12.0093  12.2855  12.4675
    12.8429  12.9067  13.1163  13.2575  13.4136  13.6485  14.0618  14.1268
    14.4612  14.5294  14.6840  14.9634  14.9756  15.3371  15.4331  15.6625
    15.7453  16.0015  16.0891  16.4290  16.7025  16.9570  17.1600  17.4067
    17.6435  17.7295  17.9914  18.1768  18.2971  18.5172  18.6912  18.9220
    19.1448  19.3562  19.6783  19.8295

     occupation numbers 
     1.0000   1.0000   1.0000   1.0000   1.0000   1.0000   1.0000   1.0000
     1.0000   1.0000   1.0000   1.0000   1.0000   1.0000   1.0000   1.0000
     1.0000   1.0000   1.0000   1.0000   1.0000   1.0000   1.0000   1.0000
     1.0000   1.0000   1.0000   1.0000   1.0000   1.0000   1.0000   1.0000
     1.0000   1.0000   1.0000   1.0000   1.0000   1.0000   1.0000   0.0000
     0.0000   0.0000   0.0000   0.0000   0.0000   0.0000   0.0000   0.0000
     0.0000   0.0000   0.0000   0.0000   0.0000   0.0000   0.0000   0.0000
     0.0000   0.0000   0.0000   0.0000   0.0000   0.0000   0.0000   0.0000
     0.0000   0.0000   0.0000   0.0000   0.0000   0.0000   0.0000   0.0000
     0.0000   0.0000   0.0000   0.0000   0.0000   0.0000   0.0000   0.0000
     0.0000   0.0000   0.0000   0.0000   0.0000   0.0000   0.0000   0.0000
     0.0000   0.0000   0.0000   0.0000   0.0000   0.0000   0.0000   0.0000
     0.0000   0.0000   0.0000   0.0000

          k = 0.0769-0.4219 0.0000 ( 25037 PWs)   bands (ev):

   -36.7084 -36.7056 -36.7009 -36.6981 -36.6666 -36.6637 -36.6516 -36.6488
   -36.6376 -36.6347 -36.4363 -36.4304 -36.3991 -36.3855 -36.3766 -29.4357
   -29.4342 -29.4259 -29.4250 -29.4159 -29.4142 -29.4083 -29.4072 -29.3981
   -29.3961 -11.8121 -11.3900 -10.7017  -8.7920  -8.2983  -4.1051  -3.1336
    -2.8341  -2.5677  -1.9889  -1.4229  -0.5906  -0.4402   0.2540   2.3938
     2.5433   3.2722   4.1346   4.4395   5.3375   5.9153   7.2343   7.4840
     8.0416   8.2700   8.6427   9.2567   9.5701   9.8601  10.4629  10.5998
    10.7135  10.9933  11.3134  11.3716  11.6040  11.9132  12.0971  12.5133
    12.8148  13.0906  13.2975  13.4349  13.5404  13.6456  13.8878  14.0052
    14.1213  14.7054  15.1155  15.4000  15.4582  15.7497  15.8470  15.8880
    15.9717  16.1682  16.4471  16.5420  16.6542  16.7532  16.9299  17.0436
    17.3272  17.4964  17.9378  18.0568  18.1986  18.4584  18.5302  18.8094
    19.0330  19.5056  19.7037  19.8626

     occupation numbers 
     1.0000   1.0000   1.0000   1.0000   1.0000   1.0000   1.0000   1.0000
     1.0000   1.0000   1.0000   1.0000   1.0000   1.0000   1.0000   1.0000
     1.0000   1.0000   1.0000   1.0000   1.0000   1.0000   1.0000   1.0000
     1.0000   1.0000   1.0000   1.0000   1.0000   1.0000   1.0000   1.0000
     1.0000   1.0000   1.0000   1.0000   1.0000   1.0000   1.0000   0.0000
     0.0000   0.0000   0.0000   0.0000   0.0000   0.0000   0.0000   0.0000
     0.0000   0.0000   0.0000   0.0000   0.0000   0.0000   0.0000   0.0000
     0.0000   0.0000   0.0000   0.0000   0.0000   0.0000   0.0000   0.0000
     0.0000   0.0000   0.0000   0.0000   0.0000   0.0000   0.0000   0.0000
     0.0000   0.0000   0.0000   0.0000   0.0000   0.0000   0.0000   0.0000
     0.0000   0.0000   0.0000   0.0000   0.0000   0.0000   0.0000   0.0000
     0.0000   0.0000   0.0000   0.0000   0.0000   0.0000   0.0000   0.0000
     0.0000   0.0000   0.0000   0.0000

          k = 0.0769-0.3286 0.0000 ( 25033 PWs)   bands (ev):

   -36.7142 -36.7113 -36.7059 -36.7031 -36.6696 -36.6667 -36.6566 -36.6538
   -36.6407 -36.6378 -36.4378 -36.4303 -36.4043 -36.3915 -36.3848 -29.4369
   -29.4354 -29.4253 -29.4244 -29.4158 -29.4141 -29.4097 -29.4085 -29.3986
   -29.3969 -12.2116 -11.7107 -10.7847  -8.4534  -7.8324  -3.6323  -2.9883
    -2.4284  -2.3046  -1.8362  -1.1919  -0.4978  -0.3578   0.4471   2.2886
     2.5352   3.2226   3.8395   4.3087   5.0055   6.1991   6.8790   7.1121
     7.5845   8.1162   8.3015   8.9299   9.2115   9.7350  10.0755  10.3284
    10.3466  10.6624  11.3137  11.4126  11.6015  12.1726  12.5087  12.6311
    12.7212  12.8536  12.9648  13.0150  13.3831  13.6794  14.0454  14.2339
    14.5601  14.7123  14.9171  15.0085  15.2684  15.5559  15.7131  15.8799
    16.0881  16.1675  16.3646  16.7667  16.9967  17.1920  17.5533  17.7002
    17.9018  17.9077  17.9972  18.1451  18.3893  18.4358  18.7672  18.8527
    18.9670  19.2577  19.3519  19.4274

     occupation numbers 
     1.0000   1.0000   1.0000   1.0000   1.0000   1.0000   1.0000   1.0000
     1.0000   1.0000   1.0000   1.0000   1.0000   1.0000   1.0000   1.0000
     1.0000   1.0000   1.0000   1.0000   1.0000   1.0000   1.0000   1.0000
     1.0000   1.0000   1.0000   1.0000   1.0000   1.0000   1.0000   1.0000
     1.0000   1.0000   1.0000   1.0000   1.0000   1.0000   1.0000   0.0000
     0.0000   0.0000   0.0000   0.0000   0.0000   0.0000   0.0000   0.0000
     0.0000   0.0000   0.0000   0.0000   0.0000   0.0000   0.0000   0.0000
     0.0000   0.0000   0.0000   0.0000   0.0000   0.0000   0.0000   0.0000
     0.0000   0.0000   0.0000   0.0000   0.0000   0.0000   0.0000   0.0000
     0.0000   0.0000   0.0000   0.0000   0.0000   0.0000   0.0000   0.0000
     0.0000   0.0000   0.0000   0.0000   0.0000   0.0000   0.0000   0.0000
     0.0000   0.0000   0.0000   0.0000   0.0000   0.0000   0.0000   0.0000
     0.0000   0.0000   0.0000   0.0000

          k = 0.0769-0.2354 0.0000 ( 25004 PWs)   bands (ev):

   -36.7191 -36.7162 -36.7144 -36.7116 -36.6760 -36.6731 -36.6629 -36.6601
   -36.6470 -36.6442 -36.4404 -36.4320 -36.4141 -36.4001 -36.3949 -29.4394
   -29.4379 -29.4235 -29.4219 -29.4131 -29.4119 -29.4054 -29.4040 -29.4008
   -29.3990 -12.5466 -12.0007 -10.9266  -8.2276  -7.3344  -3.0010  -2.6513
    -2.0546  -1.9785  -1.4921  -1.0761  -0.5097  -0.0373   0.5574   2.0668
     2.4334   3.1304   3.4935   4.0645   4.5235   6.4735   6.5493   6.9542
     7.3310   7.7408   8.6535   8.6919   8.9191   9.0176   9.6680   9.9914
    10.0744  10.5818  10.9496  11.3418  11.6569  11.7501  12.2695  12.4524
    12.8042  13.0357  13.2628  13.3363  13.3747  13.7493  13.9523  14.2536
    14.3178  14.4368  14.7247  14.8379  15.3545  15.6528  16.0085  16.0982
    16.2639  16.3864  16.4185  16.6258  16.8046  16.9807  17.2909  17.4897
    18.0284  18.1218  18.3206  18.4110  18.6827  18.8758  19.1600  19.2193
    19.3423  19.4130  19.5249  19.7183

     occupation numbers 
     1.0000   1.0000   1.0000   1.0000   1.0000   1.0000   1.0000   1.0000
     1.0000   1.0000   1.0000   1.0000   1.0000   1.0000   1.0000   1.0000
     1.0000   1.0000   1.0000   1.0000   1.0000   1.0000   1.0000   1.0000
     1.0000   1.0000   1.0000   1.0000   1.0000   1.0000   1.0000   1.0000
     1.0000   1.0000   1.0000   1.0000   1.0000   1.0000   1.0000   0.0000
     0.0000   0.0000   0.0000   0.0000   0.0000   0.0000   0.0000   0.0000
     0.0000   0.0000   0.0000   0.0000   0.0000   0.0000   0.0000   0.0000
     0.0000   0.0000   0.0000   0.0000   0.0000   0.0000   0.0000   0.0000
     0.0000   0.0000   0.0000   0.0000   0.0000   0.0000   0.0000   0.0000
     0.0000   0.0000   0.0000   0.0000   0.0000   0.0000   0.0000   0.0000
     0.0000   0.0000   0.0000   0.0000   0.0000   0.0000   0.0000   0.0000
     0.0000   0.0000   0.0000   0.0000   0.0000   0.0000   0.0000   0.0000
     0.0000   0.0000   0.0000   0.0000

          k = 0.0769-0.1421 0.0000 ( 24972 PWs)   bands (ev):

   -36.7324 -36.7296 -36.7129 -36.7100 -36.6862 -36.6833 -36.6727 -36.6700
   -36.6570 -36.6542 -36.4444 -36.4351 -36.4219 -36.4039 -36.3997 -29.4413
   -29.4398 -29.4276 -29.4261 -29.4100 -29.4089 -29.4027 -29.4018 -29.3900
   -29.3887 -12.7949 -12.2414 -11.0579  -8.0942  -6.9187  -2.3839  -2.0439
    -1.7719  -1.6134  -1.1253  -0.9657  -0.5305   0.2630   0.4378   1.8701
     2.4006   2.6219   3.3475   3.7221   4.0220   6.3137   6.3873   7.2201
     7.4528   7.5167   8.4202   8.5967   8.7579   9.1566   9.1972   9.7240
     9.9503  10.3703  10.6867  11.1572  11.1753  11.5822  11.7481  12.0411
    12.6304  12.9328  13.1096  13.4706  13.5327  13.8136  13.9936  14.3345
    14.8631  14.9589  15.1910  15.2723  15.4641  15.4994  15.8423  16.0327
    16.4070  16.7277  16.8177  16.8895  16.9196  17.0499  17.1542  17.2345
    17.5065  17.6133  17.7135  18.0727  18.6057  18.8857  19.0432  19.1275
    19.1605  19.5250  19.7825  19.8674

     occupation numbers 
     1.0000   1.0000   1.0000   1.0000   1.0000   1.0000   1.0000   1.0000
     1.0000   1.0000   1.0000   1.0000   1.0000   1.0000   1.0000   1.0000
     1.0000   1.0000   1.0000   1.0000   1.0000   1.0000   1.0000   1.0000
     1.0000   1.0000   1.0000   1.0000   1.0000   1.0000   1.0000   1.0000
     1.0000   1.0000   1.0000   1.0000   1.0000   1.0000   1.0000   0.0000
     0.0000   0.0000   0.0000   0.0000   0.0000   0.0000   0.0000   0.0000
     0.0000   0.0000   0.0000   0.0000   0.0000   0.0000   0.0000   0.0000
     0.0000   0.0000   0.0000   0.0000   0.0000   0.0000   0.0000   0.0000
     0.0000   0.0000   0.0000   0.0000   0.0000   0.0000   0.0000   0.0000
     0.0000   0.0000   0.0000   0.0000   0.0000   0.0000   0.0000   0.0000
     0.0000   0.0000   0.0000   0.0000   0.0000   0.0000   0.0000   0.0000
     0.0000   0.0000   0.0000   0.0000   0.0000   0.0000   0.0000   0.0000
     0.0000   0.0000   0.0000   0.0000

          k = 0.0769-0.0489 0.0000 ( 24969 PWs)   bands (ev):

   -36.7311 -36.7283 -36.7251 -36.7223 -36.6935 -36.6906 -36.6819 -36.6792
   -36.6625 -36.6597 -36.4464 -36.4340 -36.4304 -36.4094 -36.4076 -29.4398
   -29.4382 -29.4349 -29.4336 -29.4044 -29.4030 -29.3997 -29.3987 -29.3789
   -29.3777 -12.9352 -12.3920 -11.1456  -8.0200  -6.6765  -1.8961  -1.6733
    -1.5110  -1.2417  -1.0395  -0.8139  -0.3274  -0.0058   0.4125   1.7990
     2.2030   2.4439   3.2358   3.3543   3.7224   6.1679   6.2970   7.2750
     7.5162   7.7568   8.2299   8.5229   8.8326   9.0800   9.2361   9.5354
    10.0289  10.1747  10.5668  10.6963  11.1385  11.1591  11.5097  11.7399
    12.4036  12.6688  13.1041  13.1431  13.7368  13.9554  14.5545  14.6566
    14.6868  15.2277  15.4326  15.6642  15.7191  15.9052  16.0770  16.2711
    16.2991  16.4602  16.7218  16.7833  17.0257  17.0979  17.4114  17.5524
    17.5685  17.7804  17.9997  18.0641  18.2614  18.3363  18.6111  18.7861
    18.8093  18.9309  19.0484  19.2025

     occupation numbers 
     1.0000   1.0000   1.0000   1.0000   1.0000   1.0000   1.0000   1.0000
     1.0000   1.0000   1.0000   1.0000   1.0000   1.0000   1.0000   1.0000
     1.0000   1.0000   1.0000   1.0000   1.0000   1.0000   1.0000   1.0000
     1.0000   1.0000   1.0000   1.0000   1.0000   1.0000   1.0000   1.0000
     1.0000   1.0000   1.0000   1.0000   1.0000   1.0000   1.0000   0.0000
     0.0000   0.0000   0.0000   0.0000   0.0000   0.0000   0.0000   0.0000
     0.0000   0.0000   0.0000   0.0000   0.0000   0.0000   0.0000   0.0000
     0.0000   0.0000   0.0000   0.0000   0.0000   0.0000   0.0000   0.0000
     0.0000   0.0000   0.0000   0.0000   0.0000   0.0000   0.0000   0.0000
     0.0000   0.0000   0.0000   0.0000   0.0000   0.0000   0.0000   0.0000
     0.0000   0.0000   0.0000   0.0000   0.0000   0.0000   0.0000   0.0000
     0.0000   0.0000   0.0000   0.0000   0.0000   0.0000   0.0000   0.0000
     0.0000   0.0000   0.0000   0.0000

          k = 0.1538 0.0888 0.0000 ( 24960 PWs)   bands (ev):

   -36.7272 -36.7244 -36.7199 -36.7171 -36.6798 -36.6769 -36.6698 -36.6671
   -36.6527 -36.6499 -36.4372 -36.4327 -36.4294 -36.4079 -36.4046 -29.4358
   -29.4342 -29.4310 -29.4297 -29.4161 -29.4142 -29.4031 -29.4019 -29.3925
   -29.3911 -12.7505 -12.1926 -11.0524  -8.1592  -7.0904  -2.7966  -2.0404
    -1.7551  -1.7522  -1.2670  -0.9280  -0.0972   0.1678   0.5251   2.2772
     2.5877   2.6649   3.5039   3.6606   4.0187   6.3535   6.3759   6.9760
     7.5312   7.6665   8.5022   8.6456   8.8022   8.9372   9.5706   9.7709
     9.9198  10.5475  10.6772  10.9110  11.2893  11.7185  11.8921  11.9619
    12.5154  12.8955  12.9795  13.2309  13.4257  13.7793  14.0244  14.1632
    14.4174  14.7528  15.1194  15.3638  15.7753  15.9069  16.0215  16.0894
    16.1736  16.4697  16.5680  16.6580  16.8577  17.2725  17.6842  17.7412
    17.9724  18.2029  18.3522  18.4450  18.5441  18.8365  18.9072  18.9231
    19.0181  19.2042  19.3185  19.4796

     occupation numbers 
     1.0000   1.0000   1.0000   1.0000   1.0000   1.0000   1.0000   1.0000
     1.0000   1.0000   1.0000   1.0000   1.0000   1.0000   1.0000   1.0000
     1.0000   1.0000   1.0000   1.0000   1.0000   1.0000   1.0000   1.0000
     1.0000   1.0000   1.0000   1.0000   1.0000   1.0000   1.0000   1.0000
     1.0000   1.0000   1.0000   1.0000   1.0000   1.0000   1.0000   0.0000
     0.0000   0.0000   0.0000   0.0000   0.0000   0.0000   0.0000   0.0000
     0.0000   0.0000   0.0000   0.0000   0.0000   0.0000   0.0000   0.0000
     0.0000   0.0000   0.0000   0.0000   0.0000   0.0000   0.0000   0.0000
     0.0000   0.0000   0.0000   0.0000   0.0000   0.0000   0.0000   0.0000
     0.0000   0.0000   0.0000   0.0000   0.0000   0.0000   0.0000   0.0000
     0.0000   0.0000   0.0000   0.0000   0.0000   0.0000   0.0000   0.0000
     0.0000   0.0000   0.0000   0.0000   0.0000   0.0000   0.0000   0.0000
     0.0000   0.0000   0.0000   0.0000

          k = 0.1538 0.1821 0.0000 ( 25013 PWs)   bands (ev):

   -36.7255 -36.7227 -36.7174 -36.7146 -36.6754 -36.6724 -36.6649 -36.6622
   -36.6478 -36.6451 -36.4381 -36.4340 -36.4242 -36.4015 -36.3982 -29.4368
   -29.4355 -29.4219 -29.4204 -29.4151 -29.4139 -29.4057 -29.4043 -29.3934
   -29.3917 -12.5751 -12.0340 -10.9682  -8.2638  -7.3964  -3.1322  -2.5054
    -2.1586  -1.7416  -1.5484  -0.9727  -0.3520   0.1186   0.6652   2.2532
     2.7656   2.9722   3.5299   4.1989   4.2842   6.4297   6.5342   6.9182
     7.4535   7.7142   8.4830   8.6681   8.9112   9.2389   9.5682   9.9352
    10.3024  10.4033  10.9448  11.3279  11.5917  11.6261  12.2517  12.2712
    12.3988  12.9266  13.1488  13.3607  13.4638  13.5998  13.8864  14.0444
    14.2828  14.5679  14.8666  15.0967  15.4348  15.5864  15.8486  16.0268
    16.2040  16.7706  16.7915  17.0524  17.1683  17.2400  17.3219  17.4711
    17.9354  18.1698  18.2492  18.3172  18.4188  18.5605  18.6957  18.9714
    19.0887  19.2332  19.4108  19.6262

     occupation numbers 
     1.0000   1.0000   1.0000   1.0000   1.0000   1.0000   1.0000   1.0000
     1.0000   1.0000   1.0000   1.0000   1.0000   1.0000   1.0000   1.0000
     1.0000   1.0000   1.0000   1.0000   1.0000   1.0000   1.0000   1.0000
     1.0000   1.0000   1.0000   1.0000   1.0000   1.0000   1.0000   1.0000
     1.0000   1.0000   1.0000   1.0000   1.0000   1.0000   1.0000   0.0000
     0.0000   0.0000   0.0000   0.0000   0.0000   0.0000   0.0000   0.0000
     0.0000   0.0000   0.0000   0.0000   0.0000   0.0000   0.0000   0.0000
     0.0000   0.0000   0.0000   0.0000   0.0000   0.0000   0.0000   0.0000
     0.0000   0.0000   0.0000   0.0000   0.0000   0.0000   0.0000   0.0000
     0.0000   0.0000   0.0000   0.0000   0.0000   0.0000   0.0000   0.0000
     0.0000   0.0000   0.0000   0.0000   0.0000   0.0000   0.0000   0.0000
     0.0000   0.0000   0.0000   0.0000   0.0000   0.0000   0.0000   0.0000
     0.0000   0.0000   0.0000   0.0000

          k = 0.1538 0.2754 0.0000 ( 24990 PWs)   bands (ev):

   -36.7180 -36.7152 -36.7135 -36.7107 -36.6681 -36.6652 -36.6577 -36.6551
   -36.6369 -36.6341 -36.4372 -36.4337 -36.4161 -36.3916 -36.3875 -29.4345
   -29.4331 -29.4233 -29.4218 -29.4158 -29.4149 -29.4095 -29.4077 -29.4028
   -29.4014 -12.2953 -11.7815 -10.8392  -8.4372  -7.8236  -3.3544  -3.2193
    -2.3993  -2.0764  -1.8043  -1.3636  -0.3248   0.1965   0.4359   2.3774
     2.9474   3.1194   3.7555   4.5067   4.8169   6.6460   6.6835   7.0091
     7.3081   8.0083   8.2380   8.7222   9.1936   9.6904  10.0042  10.1509
    10.3650  10.7838  11.1606  11.2382  11.9704  11.9902  12.3624  12.4636
    12.6156  12.7709  12.9640  13.0689  13.4653  13.5719  13.6561  14.0934
    14.3742  14.6780  14.8477  15.0045  15.3593  15.4754  15.6145  15.9667
    16.1068  16.4010  16.5342  16.8313  16.9214  17.2601  17.5949  17.6893
    17.7977  18.0091  18.0852  18.1436  18.2966  18.5351  18.5921  18.7847
    18.9329  19.4306  19.6644  19.7929

     occupation numbers 
     1.0000   1.0000   1.0000   1.0000   1.0000   1.0000   1.0000   1.0000
     1.0000   1.0000   1.0000   1.0000   1.0000   1.0000   1.0000   1.0000
     1.0000   1.0000   1.0000   1.0000   1.0000   1.0000   1.0000   1.0000
     1.0000   1.0000   1.0000   1.0000   1.0000   1.0000   1.0000   1.0000
     1.0000   1.0000   1.0000   1.0000   1.0000   1.0000   1.0000   0.0000
     0.0000   0.0000   0.0000   0.0000   0.0000   0.0000   0.0000   0.0000
     0.0000   0.0000   0.0000   0.0000   0.0000   0.0000   0.0000   0.0000
     0.0000   0.0000   0.0000   0.0000   0.0000   0.0000   0.0000   0.0000
     0.0000   0.0000   0.0000   0.0000   0.0000   0.0000   0.0000   0.0000
     0.0000   0.0000   0.0000   0.0000   0.0000   0.0000   0.0000   0.0000
     0.0000   0.0000   0.0000   0.0000   0.0000   0.0000   0.0000   0.0000
     0.0000   0.0000   0.0000   0.0000   0.0000   0.0000   0.0000   0.0000
     0.0000   0.0000   0.0000   0.0000

          k = 0.1538 0.3686 0.0000 ( 25008 PWs)   bands (ev):

   -36.7101 -36.7073 -36.7063 -36.7035 -36.6669 -36.6639 -36.6529 -36.6502
   -36.6355 -36.6327 -36.4344 -36.4321 -36.4101 -36.3868 -36.3814 -29.4311
   -29.4296 -29.4217 -29.4206 -29.4157 -29.4146 -29.4075 -29.4056 -29.4049
   -29.4034 -11.9409 -11.4871 -10.7291  -8.6809  -8.2979  -3.7801  -3.4558
    -2.7264  -2.4602  -2.0280  -1.5902  -0.3147  -0.0867   0.3526   2.4400
     2.9841   3.2682   4.0830   4.6821   5.2098   6.4291   7.0991   7.3692
     7.6035   8.1305   8.4384   8.9379   9.4488   9.7771  10.3732  10.4858
    10.8310  10.9995  11.0567  11.6788  11.8297  12.0108  12.1272  12.3629
    12.6509  12.7464  12.8182  13.1207  13.2082  13.3677  14.0620  14.1922
    14.3684  14.5816  14.8076  14.9644  15.0090  15.3244  15.7184  15.8599
    16.2066  16.2949  16.5528  16.8483  16.9655  17.1967  17.3890  17.4738
    17.6653  17.7600  17.8399  18.1645  18.5177  18.8379  19.1822  19.3525
    19.3838  19.4180  19.4651  19.6894

     occupation numbers 
     1.0000   1.0000   1.0000   1.0000   1.0000   1.0000   1.0000   1.0000
     1.0000   1.0000   1.0000   1.0000   1.0000   1.0000   1.0000   1.0000
     1.0000   1.0000   1.0000   1.0000   1.0000   1.0000   1.0000   1.0000
     1.0000   1.0000   1.0000   1.0000   1.0000   1.0000   1.0000   1.0000
     1.0000   1.0000   1.0000   1.0000   1.0000   1.0000   1.0000   0.0000
     0.0000   0.0000   0.0000   0.0000   0.0000   0.0000   0.0000   0.0000
     0.0000   0.0000   0.0000   0.0000   0.0000   0.0000   0.0000   0.0000
     0.0000   0.0000   0.0000   0.0000   0.0000   0.0000   0.0000   0.0000
     0.0000   0.0000   0.0000   0.0000   0.0000   0.0000   0.0000   0.0000
     0.0000   0.0000   0.0000   0.0000   0.0000   0.0000   0.0000   0.0000
     0.0000   0.0000   0.0000   0.0000   0.0000   0.0000   0.0000   0.0000
     0.0000   0.0000   0.0000   0.0000   0.0000   0.0000   0.0000   0.0000
     0.0000   0.0000   0.0000   0.0000

          k = 0.1538 0.4619 0.0000 ( 25033 PWs)   bands (ev):

   -36.7056 -36.7027 -36.7024 -36.6996 -36.6652 -36.6622 -36.6481 -36.6454
   -36.6374 -36.6346 -36.4326 -36.4313 -36.4060 -36.3839 -36.3772 -29.4296
   -29.4281 -29.4209 -29.4200 -29.4150 -29.4140 -29.4047 -29.4035 -29.4005
   -29.3993 -11.5316 -11.1835 -10.6847  -9.0064  -8.7049  -4.1656  -3.4835
    -2.9776  -2.8119  -2.1128  -1.7497  -0.5196  -0.2120   0.3077   2.4138
     2.9595   3.3947   4.2568   4.7550   5.4698   6.1915   7.4821   7.7904
     8.2299   8.3311   8.9549   9.1503   9.7087   9.8056  10.2771  10.5836
    10.9183  11.1277  11.2633  11.4971  11.6529  11.7771  12.0566  12.3982
    12.4942  12.6252  12.8476  13.1787  13.3059  13.5183  13.8401  14.0294
    14.1470  14.3533  14.5672  15.0586  15.2066  15.6572  15.8975  16.0635
    16.1993  16.5172  16.8460  16.9353  17.0283  17.1269  17.3112  17.4072
[...]
     1.0000   1.0000   1.0000   1.0000   1.0000   1.0000   1.0000   1.0000
     1.0000   1.0000   1.0000   1.0000   1.0000   1.0000   1.0000   0.0000
     0.0000   0.0000   0.0000   0.0000   0.0000   0.0000   0.0000   0.0000
     0.0000   0.0000   0.0000   0.0000   0.0000   0.0000   0.0000   0.0000
     0.0000   0.0000   0.0000   0.0000   0.0000   0.0000   0.0000   0.0000
     0.0000   0.0000   0.0000   0.0000   0.0000   0.0000   0.0000   0.0000
     0.0000   0.0000   0.0000   0.0000   0.0000   0.0000   0.0000   0.0000
     0.0000   0.0000   0.0000   0.0000   0.0000   0.0000   0.0000   0.0000
     0.0000   0.0000   0.0000   0.0000   0.0000   0.0000   0.0000   0.0000
     0.0000   0.0000   0.0000   0.0000

          k = 0.4615 0.7328 0.0000 ( 24939 PWs)   bands (ev):

   -36.7223 -36.7170 -36.6893 -36.6839 -36.6779 -36.6635 -36.6540 -36.6451
   -36.6308 -36.6213 -36.4251 -36.4227 -36.4021 -36.3741 -36.3721 -29.4335
   -29.4275 -29.4218 -29.4155 -29.4099 -29.4094 -29.4043 -29.4037 -29.3919
   -29.3863 -11.1947 -11.0259 -10.8148  -9.3050  -8.9042  -4.3259  -3.3929
    -3.2670  -2.7290  -2.0626  -1.9882  -0.5078  -0.1720   0.3827   2.6256
     3.1521   3.3191   4.4913   4.8985   5.5494   6.1334   7.5650   8.2068
     8.4767   8.8730   9.0672   9.3332   9.6251   9.8582   9.9895  10.3417
    10.4752  10.6781  10.9576  11.5545  11.6243  11.9665  12.0914  12.3368
    12.4988  12.7545  12.7824  13.0593  13.1894  13.5224  13.9445  14.2164
    14.3959  14.5253  14.8388  15.0135  15.1379  15.5176  15.6329  15.8431
    16.2893  16.3494  16.8466  16.9939  17.0531  17.2476  17.4378  17.5109
    17.7817  17.9911  18.2263  18.2583  18.4179  18.5373  18.6601  19.0096
    19.0829  19.2345  19.4789  19.7611

     occupation numbers 
     1.0000   1.0000   1.0000   1.0000   1.0000   1.0000   1.0000   1.0000
     1.0000   1.0000   1.0000   1.0000   1.0000   1.0000   1.0000   1.0000
     1.0000   1.0000   1.0000   1.0000   1.0000   1.0000   1.0000   1.0000
     1.0000   1.0000   1.0000   1.0000   1.0000   1.0000   1.0000   1.0000
     1.0000   1.0000   1.0000   1.0000   1.0000   1.0000   1.0000   0.0000
     0.0000   0.0000   0.0000   0.0000   0.0000   0.0000   0.0000   0.0000
     0.0000   0.0000   0.0000   0.0000   0.0000   0.0000   0.0000   0.0000
     0.0000   0.0000   0.0000   0.0000   0.0000   0.0000   0.0000   0.0000
     0.0000   0.0000   0.0000   0.0000   0.0000   0.0000   0.0000   0.0000
     0.0000   0.0000   0.0000   0.0000   0.0000   0.0000   0.0000   0.0000
     0.0000   0.0000   0.0000   0.0000   0.0000   0.0000   0.0000   0.0000
     0.0000   0.0000   0.0000   0.0000   0.0000   0.0000   0.0000   0.0000
     0.0000   0.0000   0.0000   0.0000

          k = 0.4615 0.8261 0.0000 ( 24998 PWs)   bands (ev):

   -36.7218 -36.7144 -36.6887 -36.6813 -36.6787 -36.6651 -36.6559 -36.6459
   -36.6324 -36.6232 -36.4264 -36.4228 -36.3967 -36.3742 -36.3699 -29.4382
   -29.4317 -29.4230 -29.4201 -29.4137 -29.4109 -29.4049 -29.4017 -29.3930
   -29.3838 -11.1181 -11.0756 -10.9863  -9.3285  -8.7370  -4.4590  -3.1458
    -2.9569  -2.7745  -2.1950  -1.5863  -0.4722  -0.4046   0.2033   2.6048
     2.7491   3.2952   4.5371   4.5890   5.5857   5.6752   7.4073   8.3747
     8.6202   8.6592   8.8338   9.5959   9.6816   9.8041  10.3340  10.3953
    10.9227  11.1996  11.3790  11.6551  11.8793  12.0741  12.2724  12.3773
    12.5020  12.6083  13.0502  13.1007  13.5439  13.8045  13.9492  14.2625
    14.3097  14.6688  14.7051  14.7232  15.0422  15.1798  15.2936  15.6759
    15.8484  15.8621  16.1812  16.3742  16.7539  16.8700  16.9785  17.4501
    17.8718  17.9977  18.2627  18.3361  18.4942  18.6531  18.6845  18.9230
    19.0121  19.1618  19.2076  19.4917

     occupation numbers 
     1.0000   1.0000   1.0000   1.0000   1.0000   1.0000   1.0000   1.0000
     1.0000   1.0000   1.0000   1.0000   1.0000   1.0000   1.0000   1.0000
     1.0000   1.0000   1.0000   1.0000   1.0000   1.0000   1.0000   1.0000
     1.0000   1.0000   1.0000   1.0000   1.0000   1.0000   1.0000   1.0000
     1.0000   1.0000   1.0000   1.0000   1.0000   1.0000   1.0000   0.0000
     0.0000   0.0000   0.0000   0.0000   0.0000   0.0000   0.0000   0.0000
     0.0000   0.0000   0.0000   0.0000   0.0000   0.0000   0.0000   0.0000
     0.0000   0.0000   0.0000   0.0000   0.0000   0.0000   0.0000   0.0000
     0.0000   0.0000   0.0000   0.0000   0.0000   0.0000   0.0000   0.0000
     0.0000   0.0000   0.0000   0.0000   0.0000   0.0000   0.0000   0.0000
     0.0000   0.0000   0.0000   0.0000   0.0000   0.0000   0.0000   0.0000
     0.0000   0.0000   0.0000   0.0000   0.0000   0.0000   0.0000   0.0000
     0.0000   0.0000   0.0000   0.0000

          k = 0.4615-0.2931 0.0000 ( 24997 PWs)   bands (ev):

   -36.7230 -36.7151 -36.6899 -36.6820 -36.6798 -36.6648 -36.6553 -36.6471
   -36.6320 -36.6226 -36.4278 -36.4228 -36.3949 -36.3766 -36.3706 -29.4390
   -29.4331 -29.4234 -29.4209 -29.4151 -29.4116 -29.4053 -29.4006 -29.3937
   -29.3827 -11.2852 -11.1233 -10.9260  -9.2777  -8.6311  -4.4703  -3.0052
    -2.9071  -2.6757  -2.1978  -1.4920  -0.4659  -0.3974   0.0628   2.3468
     2.9123   3.3029   4.3518   4.6043   5.5035   5.6403   7.3437   8.1967
     8.4652   8.8002   8.9881   9.3721   9.7724   9.9946  10.3866  10.6098
    10.9912  11.2532  11.4186  11.6999  11.8755  11.9649  12.1584  12.2879
    12.6548  12.8006  13.1561  13.3513  13.4492  13.8842  14.0438  14.2313
    14.3749  14.4943  14.5694  14.7840  14.9178  15.0829  15.1913  15.3686
    15.5389  15.8175  16.2271  16.5837  16.6368  16.9336  17.0970  17.2782
    17.5423  17.8091  17.8859  18.0338  18.2636  18.5237  18.6944  18.7508
    18.9681  19.5097  19.6104  19.6854

     occupation numbers 
     1.0000   1.0000   1.0000   1.0000   1.0000   1.0000   1.0000   1.0000
     1.0000   1.0000   1.0000   1.0000   1.0000   1.0000   1.0000   1.0000
     1.0000   1.0000   1.0000   1.0000   1.0000   1.0000   1.0000   1.0000
     1.0000   1.0000   1.0000   1.0000   1.0000   1.0000   1.0000   1.0000
     1.0000   1.0000   1.0000   1.0000   1.0000   1.0000   1.0000   0.0000
     0.0000   0.0000   0.0000   0.0000   0.0000   0.0000   0.0000   0.0000
     0.0000   0.0000   0.0000   0.0000   0.0000   0.0000   0.0000   0.0000
     0.0000   0.0000   0.0000   0.0000   0.0000   0.0000   0.0000   0.0000
     0.0000   0.0000   0.0000   0.0000   0.0000   0.0000   0.0000   0.0000
     0.0000   0.0000   0.0000   0.0000   0.0000   0.0000   0.0000   0.0000
     0.0000   0.0000   0.0000   0.0000   0.0000   0.0000   0.0000   0.0000
     0.0000   0.0000   0.0000   0.0000   0.0000   0.0000   0.0000   0.0000
     0.0000   0.0000   0.0000   0.0000

          k = 0.4615-0.1999 0.0000 ( 24964 PWs)   bands (ev):

   -36.7228 -36.7157 -36.6897 -36.6827 -36.6776 -36.6673 -36.6556 -36.6449
   -36.6346 -36.6229 -36.4249 -36.4218 -36.3984 -36.3761 -36.3717 -29.4383
   -29.4313 -29.4240 -29.4202 -29.4133 -29.4111 -29.4058 -29.4026 -29.3932
   -29.3847 -11.4655 -11.1893 -10.7970  -9.1711  -8.6238  -4.3594  -3.0741
    -2.9682  -2.7280  -2.0719  -1.5749  -0.5510  -0.2844   0.2719   2.6316
     2.7362   3.3523   4.4665   4.6067   5.5237   5.8143   7.3505   7.9311
     8.2587   8.9590   9.1832   9.2003   9.7349  10.0790  10.3572  10.5556
    10.9477  10.9829  11.1390  11.3545  11.6409  11.7809  12.1329  12.3125
    12.4729  12.6566  12.9808  13.1071  13.3324  13.6839  13.8372  14.2385
    14.3413  14.4818  14.6816  15.0396  15.2379  15.3398  15.7234  15.7797
    15.9673  16.1214  16.2223  16.5911  16.8393  16.8591  17.1171  17.3441
    17.4959  17.5873  17.9761  17.9998  18.2842  18.4003  18.5340  18.8612
    19.1308  19.1629  19.4645  19.7710

     occupation numbers 
     1.0000   1.0000   1.0000   1.0000   1.0000   1.0000   1.0000   1.0000
     1.0000   1.0000   1.0000   1.0000   1.0000   1.0000   1.0000   1.0000
     1.0000   1.0000   1.0000   1.0000   1.0000   1.0000   1.0000   1.0000
     1.0000   1.0000   1.0000   1.0000   1.0000   1.0000   1.0000   1.0000
     1.0000   1.0000   1.0000   1.0000   1.0000   1.0000   1.0000   0.0000
     0.0000   0.0000   0.0000   0.0000   0.0000   0.0000   0.0000   0.0000
     0.0000   0.0000   0.0000   0.0000   0.0000   0.0000   0.0000   0.0000
     0.0000   0.0000   0.0000   0.0000   0.0000   0.0000   0.0000   0.0000
     0.0000   0.0000   0.0000   0.0000   0.0000   0.0000   0.0000   0.0000
     0.0000   0.0000   0.0000   0.0000   0.0000   0.0000   0.0000   0.0000
     0.0000   0.0000   0.0000   0.0000   0.0000   0.0000   0.0000   0.0000
     0.0000   0.0000   0.0000   0.0000   0.0000   0.0000   0.0000   0.0000
     0.0000   0.0000   0.0000   0.0000

          k = 0.4615-0.1066 0.0000 ( 24940 PWs)   bands (ev):

   -36.7241 -36.7185 -36.6910 -36.6854 -36.6791 -36.6657 -36.6549 -36.6463
   -36.6330 -36.6223 -36.4247 -36.4218 -36.4064 -36.3769 -36.3749 -29.4331
   -29.4262 -29.4229 -29.4151 -29.4109 -29.4082 -29.4057 -29.4049 -29.3930
   -29.3878 -11.5884 -11.2414 -10.7165  -9.0237  -8.6913  -4.1351  -3.4152
    -2.9527  -2.7766  -2.0452  -1.7936  -0.4402  -0.0955   0.4521   2.5735
     3.1806   3.4580   4.3233   4.8978   5.4790   6.2978   7.4622   7.7239
     8.1788   8.4543   8.8722   9.1316   9.6273   9.8045  10.2119  10.5102
    10.8268  11.0212  11.0593  11.3930  11.5972  11.8218  11.8647  12.3647
    12.4971  12.6157  12.8865  13.0225  13.2687  13.4259  13.7230  13.9835
    14.0832  14.1893  14.5708  14.8362  15.1038  15.6049  15.8138  15.8910
    16.4606  16.5383  16.7362  16.7642  16.8676  17.0245  17.4722  17.5461
    17.7336  17.8970  17.9663  18.2946  18.4345  18.7726  18.8374  19.0204
    19.2660  19.6339  19.8838  19.9667

     occupation numbers 
     1.0000   1.0000   1.0000   1.0000   1.0000   1.0000   1.0000   1.0000
     1.0000   1.0000   1.0000   1.0000   1.0000   1.0000   1.0000   1.0000
     1.0000   1.0000   1.0000   1.0000   1.0000   1.0000   1.0000   1.0000
     1.0000   1.0000   1.0000   1.0000   1.0000   1.0000   1.0000   1.0000
     1.0000   1.0000   1.0000   1.0000   1.0000   1.0000   1.0000   0.0000
     0.0000   0.0000   0.0000   0.0000   0.0000   0.0000   0.0000   0.0000
     0.0000   0.0000   0.0000   0.0000   0.0000   0.0000   0.0000   0.0000
     0.0000   0.0000   0.0000   0.0000   0.0000   0.0000   0.0000   0.0000
     0.0000   0.0000   0.0000   0.0000   0.0000   0.0000   0.0000   0.0000
     0.0000   0.0000   0.0000   0.0000   0.0000   0.0000   0.0000   0.0000
     0.0000   0.0000   0.0000   0.0000   0.0000   0.0000   0.0000   0.0000
     0.0000   0.0000   0.0000   0.0000   0.0000   0.0000   0.0000   0.0000
     0.0000   0.0000   0.0000   0.0000

          k = 0.4615-0.0133 0.0000 ( 24971 PWs)   bands (ev):

   -36.7279 -36.7109 -36.6948 -36.6779 -36.6776 -36.6670 -36.6545 -36.6449
   -36.6343 -36.6218 -36.4235 -36.4192 -36.4088 -36.3757 -36.3738 -29.4295
   -29.4266 -29.4227 -29.4160 -29.4123 -29.4114 -29.4086 -29.4048 -29.3981
   -29.3943 -11.6363 -11.2689 -10.6936  -8.9447  -8.7513  -3.8650  -3.7742
    -2.9091  -2.5283  -2.4321  -1.7562  -0.2955   0.2127   0.2544   2.9584
     3.1129   3.4515   4.4845   5.0597   5.3363   7.0443   7.2480   7.5977
     7.7397   8.2915   8.6940   8.8619   9.5705   9.6763  10.2863  10.5375
    10.6871  10.8406  11.3004  11.4436  11.5220  12.0713  12.1201  12.1728
    12.2285  12.6815  12.7671  13.1285  13.1870  13.5569  13.8409  13.9230
    14.0240  14.2700  14.3917  14.6192  14.8147  15.2631  15.7078  16.0711
    16.3468  16.5467  16.8353  16.8909  16.9496  17.2951  17.5607  17.6124
    18.0166  18.0747  18.3652  18.6055  18.8891  18.9421  19.1351  19.2451
    19.4076  19.6333  19.7974  19.8661

     occupation numbers 
     1.0000   1.0000   1.0000   1.0000   1.0000   1.0000   1.0000   1.0000
     1.0000   1.0000   1.0000   1.0000   1.0000   1.0000   1.0000   1.0000
     1.0000   1.0000   1.0000   1.0000   1.0000   1.0000   1.0000   1.0000
     1.0000   1.0000   1.0000   1.0000   1.0000   1.0000   1.0000   1.0000
     1.0000   1.0000   1.0000   1.0000   1.0000   1.0000   1.0000   0.0000
     0.0000   0.0000   0.0000   0.0000   0.0000   0.0000   0.0000   0.0000
     0.0000   0.0000   0.0000   0.0000   0.0000   0.0000   0.0000   0.0000
     0.0000   0.0000   0.0000   0.0000   0.0000   0.0000   0.0000   0.0000
     0.0000   0.0000   0.0000   0.0000   0.0000   0.0000   0.0000   0.0000
     0.0000   0.0000   0.0000   0.0000   0.0000   0.0000   0.0000   0.0000
     0.0000   0.0000   0.0000   0.0000   0.0000   0.0000   0.0000   0.0000
     0.0000   0.0000   0.0000   0.0000   0.0000   0.0000   0.0000   0.0000
     0.0000   0.0000   0.0000   0.0000

          k = 0.4615 0.0799 0.0000 ( 24968 PWs)   bands (ev):

   -36.7264 -36.7189 -36.6934 -36.6859 -36.6757 -36.6706 -36.6561 -36.6430
   -36.6378 -36.6235 -36.4249 -36.4183 -36.4121 -36.3781 -36.3745 -29.4294
   -29.4281 -29.4228 -29.4148 -29.4114 -29.4101 -29.4048 -29.4018 -29.3968
   -29.3839 -11.6181 -11.2827 -10.7592  -9.0621  -8.6733  -4.1344  -3.3952
    -2.8847  -2.7374  -2.0632  -1.7177  -0.3802  -0.0521   0.5655   2.7489
     3.3028   3.4266   4.3773   5.0330   5.4325   6.3843   7.4264   7.6815
     8.1659   8.2259   8.8084   8.9906   9.5185   9.8052  10.1489  10.4296
    10.8599  10.8859  11.1114  11.2976  11.6224  12.0272  12.1104  12.3670
    12.6444  12.8030  12.9880  13.0951  13.2333  13.3324  13.6960  13.9219
    13.9607  14.2483  14.7305  14.9299  15.1710  15.5383  15.7002  15.8409
    16.2756  16.3703  16.7112  16.8814  16.9590  16.9694  17.4300  17.6105
    17.7797  17.9085  17.9948  18.1219  18.1991  18.4658  18.7541  18.9292
    19.0538  19.6172  19.7837  19.8114

     occupation numbers 
     1.0000   1.0000   1.0000   1.0000   1.0000   1.0000   1.0000   1.0000
     1.0000   1.0000   1.0000   1.0000   1.0000   1.0000   1.0000   1.0000
     1.0000   1.0000   1.0000   1.0000   1.0000   1.0000   1.0000   1.0000
     1.0000   1.0000   1.0000   1.0000   1.0000   1.0000   1.0000   1.0000
     1.0000   1.0000   1.0000   1.0000   1.0000   1.0000   1.0000   0.0000
     0.0000   0.0000   0.0000   0.0000   0.0000   0.0000   0.0000   0.0000
     0.0000   0.0000   0.0000   0.0000   0.0000   0.0000   0.0000   0.0000
     0.0000   0.0000   0.0000   0.0000   0.0000   0.0000   0.0000   0.0000
     0.0000   0.0000   0.0000   0.0000   0.0000   0.0000   0.0000   0.0000
     0.0000   0.0000   0.0000   0.0000   0.0000   0.0000   0.0000   0.0000
     0.0000   0.0000   0.0000   0.0000   0.0000   0.0000   0.0000   0.0000
     0.0000   0.0000   0.0000   0.0000   0.0000   0.0000   0.0000   0.0000
     0.0000   0.0000   0.0000   0.0000

          k = 0.4615 0.1732 0.0000 ( 24992 PWs)   bands (ev):

   -36.7268 -36.7187 -36.6938 -36.6856 -36.6748 -36.6723 -36.6564 -36.6422
   -36.6394 -36.6237 -36.4220 -36.4161 -36.4098 -36.3795 -36.3739 -29.4345
   -29.4324 -29.4234 -29.4165 -29.4145 -29.4141 -29.4053 -29.3975 -29.3962
   -29.3796 -11.5260 -11.2676 -10.8677  -9.2105  -8.6172  -4.3513  -3.0992
    -2.8546  -2.6233  -1.9896  -1.5055  -0.4437  -0.1986   0.4586   2.8318
     2.9386   3.3752   4.5103   4.7969   5.5404   5.8450   7.2794   7.8672
     8.2171   8.8254   9.0104   9.1145   9.6585   9.9299  10.2754  10.4031
    10.7971  11.0410  11.2736  11.4722  11.6429  11.9173  12.0737  12.4742
    12.5264  12.6475  13.0647  13.1616  13.5490  13.7356  13.9673  14.2009
    14.3384  14.4134  14.6773  15.0153  15.2349  15.2941  15.6505  15.8833
    16.0226  16.1551  16.3099  16.4335  16.7164  16.8458  16.9044  17.0293
    17.2610  17.4191  17.7724  17.9242  17.9464  18.5722  18.6534  18.8223
    19.0901  19.2049  19.3457  19.4446

     occupation numbers 
     1.0000   1.0000   1.0000   1.0000   1.0000   1.0000   1.0000   1.0000
     1.0000   1.0000   1.0000   1.0000   1.0000   1.0000   1.0000   1.0000
     1.0000   1.0000   1.0000   1.0000   1.0000   1.0000   1.0000   1.0000
     1.0000   1.0000   1.0000   1.0000   1.0000   1.0000   1.0000   1.0000
     1.0000   1.0000   1.0000   1.0000   1.0000   1.0000   1.0000   0.0000
     0.0000   0.0000   0.0000   0.0000   0.0000   0.0000   0.0000   0.0000
     0.0000   0.0000   0.0000   0.0000   0.0000   0.0000   0.0000   0.0000
     0.0000   0.0000   0.0000   0.0000   0.0000   0.0000   0.0000   0.0000
     0.0000   0.0000   0.0000   0.0000   0.0000   0.0000   0.0000   0.0000
     0.0000   0.0000   0.0000   0.0000   0.0000   0.0000   0.0000   0.0000
     0.0000   0.0000   0.0000   0.0000   0.0000   0.0000   0.0000   0.0000
     0.0000   0.0000   0.0000   0.0000   0.0000   0.0000   0.0000   0.0000
     0.0000   0.0000   0.0000   0.0000

     highest occupied, lowest unoccupied level (ev):     0.7334    1.6323

     Writing all to output data dir tmp/Sb2Te3-uatsx-c4-5.0.save/ :
     XML data file, pseudopotentials, collected wavefunctions

     init_run     :     12.46s CPU     12.95s WALL (       1 calls)
     electrons    :    836.72s CPU    845.49s WALL (       1 calls)

     Called by init_run:
     aceinit0     :     11.60s CPU     12.01s WALL (       1 calls)
     wfcinit      :      0.00s CPU      0.06s WALL (       1 calls)
     wfcinit:wfcr :      5.90s CPU      5.99s WALL (      86 calls)
     potinit      :      0.65s CPU      0.65s WALL (       1 calls)
     hinit0       :      0.15s CPU      0.15s WALL (       1 calls)

     Called by electrons:
     c_bands      :    260.80s CPU    263.98s WALL (       2 calls)
     sum_band     :      1.27s CPU      1.31s WALL (       1 calls)
     v_of_rho     :      0.02s CPU      0.02s WALL (       2 calls)
     v_h          :      0.00s CPU      0.00s WALL (       2 calls)
     v_xc         :      0.02s CPU      0.02s WALL (       2 calls)

     Called by c_bands:
     init_us_2    :      0.03s CPU      0.04s WALL (     129 calls)
     cegterg      :    243.14s CPU    246.12s WALL (     271 calls)

     Called by sum_band:
     sum_band:wei :      0.00s CPU      0.00s WALL (       1 calls)
     sum_band:loo :      1.27s CPU      1.31s WALL (       1 calls)
     sum_band:buf :      0.01s CPU      0.01s WALL (      43 calls)
     sum_band:ini :      0.01s CPU      0.01s WALL (      43 calls)

     Called by *egterg:
     cdiaghg      :     75.76s CPU     76.13s WALL (    4706 calls)
     cegterg:over :     17.11s CPU     17.26s WALL (    4620 calls)
     cegterg:upda :      4.09s CPU      4.13s WALL (    4620 calls)
     cegterg:last :      7.72s CPU      7.78s WALL (    2337 calls)
     h_psi        :    134.76s CPU    137.16s WALL (    4977 calls)
     g_psi        :      0.76s CPU      0.76s WALL (    4620 calls)

     Called by h_psi:
     h_psi:calbec :      6.92s CPU      6.99s WALL (    4977 calls)
     vloc_psi     :    114.78s CPU    117.00s WALL (    4977 calls)
     add_vuspsi   :      1.90s CPU      1.92s WALL (    4977 calls)

     General routines
     calbec       :     15.30s CPU     15.45s WALL (    9997 calls)
     fft          :      0.16s CPU      0.16s WALL (      19 calls)
     ffts         :      0.00s CPU      0.00s WALL (       1 calls)
     fftw         :    111.32s CPU    113.47s WALL (  481500 calls)
     fftc         :    471.23s CPU    475.54s WALL (  860000 calls)
     fftcw        :      4.71s CPU      4.77s WALL (   12900 calls)
     davcio       :      0.04s CPU      0.08s WALL (     258 calls)

     Parallel routines

     EXX routines
     exx_grid     :      0.01s CPU      0.01s WALL (       1 calls)
     exxinit      :     23.71s CPU     24.19s WALL (       1 calls)
     vexx         :    528.62s CPU    533.50s WALL (      43 calls)
     matcalc      :      8.44s CPU      8.50s WALL (    5020 calls)
     aceupdate    :      0.04s CPU      0.04s WALL (      43 calls)
     vexxace      :     10.81s CPU     10.90s WALL (    4977 calls)
     aceinit      :    528.80s CPU    533.69s WALL (      43 calls)

     PWSCF        :  14m31.53s CPU  15m22.05s WALL


   This run was terminated on:   8:21:42  20May2025            

=------------------------------------------------------------------------------=
   JOB DONE.
=------------------------------------------------------------------------------=
