
     Program PWSCF v.7.3.1 starts on 20May2025 at  3:43:10 

     This program is part of the open-source Quantum ESPRESSO suite
     for quantum simulation of materials; please cite
         "P. Giannozzi et al., J. Phys.:Condens. Matter 21 395502 (2009);
         "P. Giannozzi et al., J. Phys.:Condens. Matter 29 465901 (2017);
         "P. Giannozzi et al., J. Chem. Phys. 152 154105 (2020);
          URL http://www.quantum-espresso.org", 
     in publications or presentations arising from this work. More details at
     http://www.quantum-espresso.org/quote

     Parallel version (MPI & OpenMP), running on     168 processor cores
     Number of MPI processes:               168
     Threads/MPI process:                     1

     MPI processes distributed on     7 nodes
     102395 MiB available memory on the printing compute node when the environment starts

     Waiting for input...
     Reading input from standard input

     Current dimensions of program PWSCF are:
     Max number of different atomic species (ntypx) = 10
     Max number of k-points (npk) =  40000
     Max angular momentum in pseudopotentials (lmaxx) =  4

     IMPORTANT: XC functional enforced from input :
     Exchange-correlation= GAUP
                           (   1   4  20   4   0   0   0)
     EXX-fraction              =        0.24
     Any further DFT definition will be discarded
     Please, verify this is what you really want


     Atomic positions and unit cell read from directory:
     tmp/Sb2Te3-uatsx-c4-2.0.save/


     K-points division:     npool     =       2
     R & G space division:  proc/nbgrp/npool/nimage =      84
     Subspace diagonalization in iterative solution of the eigenvalue problem:
     a serial algorithm will be used

     EXX: q-point mesh:     1    1    1
     EXX: setup a grid of 85 q-points centered on each k-point
     (k+q)-points:
   0.0000000   0.0000000   0.0000000         1    1
   0.0000000   0.0906005   0.0000000         2    1
   0.0000000   0.1812009   0.0000000         3    1
   0.0000000   0.2718014   0.0000000         4    1
   0.0000000   0.3624018   0.0000000         5    1
   0.0000000   0.4530023   0.0000000         6    1
   0.0000000   0.5436027   0.0000000         7    1
   0.0769231   0.0444120   0.0000000         8    1
   0.0769231   0.1350124   0.0000000         9    1
   0.0769231   0.2256129   0.0000000        10    1
   0.0769231   0.3162134   0.0000000        11    1
   0.0769231   0.4068138   0.0000000        12    1
   0.0769231   0.4974143   0.0000000        13    1
   0.0769231   0.5880147   0.0000000        14    1
   0.0769231  -0.4991908   0.0000000        15    1
   0.0769231  -0.4085903   0.0000000        16    1
   0.0769231  -0.3179898   0.0000000        17    1
   0.0769231  -0.2273894   0.0000000        18    1
   0.0769231  -0.1367889   0.0000000        19    1
   0.0769231  -0.0461885   0.0000000        20    1
   0.1538462   0.0888240   0.0000000        21    1
   0.1538462   0.1794244   0.0000000        22    1
   0.1538462   0.2700249   0.0000000        23    1
   0.1538462   0.3606253   0.0000000        24    1
   0.1538462   0.4512258   0.0000000        25    1
   0.1538462   0.5418263   0.0000000        26    1
   0.1538462   0.6324267   0.0000000        27    1
   0.1538462  -0.4547788   0.0000000        28    1
   0.1538462  -0.3641783   0.0000000        29    1
   0.1538462  -0.2735779   0.0000000        30    1
   0.1538462  -0.1829774   0.0000000        31    1
   0.1538462  -0.0923769   0.0000000        32    1
   0.1538462  -0.0017765   0.0000000        33    1
   0.2307692   0.1332360   0.0000000        34    1
   0.2307692   0.2238364   0.0000000        35    1
   0.2307692   0.3144369   0.0000000        36    1
   0.2307692   0.4050373   0.0000000        37    1
   0.2307692   0.4956378   0.0000000        38    1
   0.2307692   0.5862383   0.0000000        39    1
   0.2307692   0.6768387   0.0000000        40    1
   0.2307692  -0.4103668   0.0000000        41    1
   0.2307692  -0.3197663   0.0000000        42    1
   0.2307692  -0.2291659   0.0000000        43    1
   0.2307692  -0.1385654   0.0000000        44    1
   0.2307692  -0.0479649   0.0000000        45    1
   0.2307692   0.0426355   0.0000000        46    1
   0.3076923   0.1776480   0.0000000        47    1
   0.3076923   0.2682484   0.0000000        48    1
   0.3076923   0.3588489   0.0000000        49    1
   0.3076923   0.4494493   0.0000000        50    1
   0.3076923   0.5400498   0.0000000        51    1
   0.3076923   0.6306502   0.0000000        52    1
   0.3076923   0.7212507   0.0000000        53    1
   0.3076923  -0.3659548   0.0000000        54    1
   0.3076923  -0.2753543   0.0000000        55    1
   0.3076923  -0.1847539   0.0000000        56    1
   0.3076923  -0.0941534   0.0000000        57    1
   0.3076923  -0.0035530   0.0000000        58    1
   0.3076923   0.0870475   0.0000000        59    1
   0.3846154   0.2220599   0.0000000        60    1
   0.3846154   0.3126604   0.0000000        61    1
   0.3846154   0.4032609   0.0000000        62    1
   0.3846154   0.4938613   0.0000000        63    1
   0.3846154   0.5844618   0.0000000        64    1
   0.3846154   0.6750622   0.0000000        65    1
   0.3846154   0.7656627   0.0000000        66    1
   0.3846154  -0.3215428   0.0000000        67    1
   0.3846154  -0.2309423   0.0000000        68    1
   0.3846154  -0.1403419   0.0000000        69    1
   0.3846154  -0.0497414   0.0000000        70    1
   0.3846154   0.0408590   0.0000000        71    1
   0.3846154   0.1314595   0.0000000        72    1
   0.4615385   0.2664719   0.0000000        73    1
   0.4615385   0.3570724   0.0000000        74    1
   0.4615385   0.4476728   0.0000000        75    1
   0.4615385   0.5382733   0.0000000        76    1
   0.4615385   0.6288738   0.0000000        77    1
   0.4615385   0.7194742   0.0000000        78    1
   0.4615385   0.8100747   0.0000000        79    1
   0.4615385  -0.2771308   0.0000000        80    1
   0.4615385  -0.1865304   0.0000000        81    1
   0.4615385  -0.0959299   0.0000000        82    1
   0.4615385  -0.0053294   0.0000000        83    1
   0.4615385   0.0852710   0.0000000        84    1
   0.4615385   0.1758715   0.0000000        85    1

     Parallelization info
     --------------------
     sticks:   dense  smooth     PW     G-vecs:    dense   smooth      PW
     Min          15      15      4                 2299     2299     352
     Max          16      16      5                 2332     2332     387
     Sum        1305    1305    379               194215   194215   30887

     Using Slab Decomposition



     bravais-lattice index     =            0
     lattice parameter (alat)  =       8.3085  a.u.
     unit-cell volume          =    2454.7283 (a.u.)^3
     number of atoms/cell      =            5
     number of atomic types    =            2
     number of electrons       =        78.00
     number of Kohn-Sham states=          100
     kinetic-energy cutoff     =      70.0000  Ry
     charge density cutoff     =     280.0000  Ry
     cutoff for Fock operator  =     280.0000  Ry
     Exchange-correlation= GAUP
                           (   1   4  20   4   0   0   0)
     EXX-fraction              =        0.24

     celldm(1)=   8.308546  celldm(2)=   0.000000  celldm(3)=   0.000000
     celldm(4)=   0.000000  celldm(5)=   0.000000  celldm(6)=   0.000000

     crystal axes: (cart. coord. in units of alat)
               a(1) = (   1.000000   0.000000   0.000000 )  
               a(2) = (  -0.490196   0.849036   0.000000 )  
               a(3) = (   0.000000   0.000000   5.040830 )  

     reciprocal axes: (cart. coord. in units 2 pi/alat)
               b(1) = (  1.000000  0.577356 -0.000000 )  
               b(2) = (  0.000000  1.177806  0.000000 )  
               b(3) = (  0.000000 -0.000000  0.198380 )  


     PseudoPot. # 1 for Sb read from file:
     /zfs-home/202401017n/pseudos/Sb_ONCV_PBE-1.2.upf
     MD5 check sum: 0417cd6c0fe8ce4611e2b23135f1abd9
     Pseudo is Norm-conserving, Zval = 15.0
     Generated using ONCVPSP code by D. R. Hamann
     Using radial grid of  602 points,  6 beta functions with: 
                l(1) =   0
                l(2) =   0
                l(3) =   1
                l(4) =   1
                l(5) =   2
                l(6) =   2

     PseudoPot. # 2 for Te read from file:
     /zfs-home/202401017n/pseudos/Te_ONCV_PBE-1.2.upf
     MD5 check sum: dd4de4dac1e38587f63aaf3700bb29d3
     Pseudo is Norm-conserving, Zval = 16.0
     Generated using ONCVPSP code by D. R. Hamann
     Using radial grid of  602 points,  6 beta functions with: 
                l(1) =   0
                l(2) =   0
                l(3) =   1
                l(4) =   1
                l(5) =   2
                l(6) =   2

     atomic species   valence    mass     pseudopotential
     Sb               15.00   121.76000     Sb( 1.00)
     Te               16.00   127.60000     Te( 1.00)

     No symmetry found


                                    s                        frac. trans.

      isym =  1     identity                                     

 cryst.   s( 1) = (     1          0          0      )
                  (     0          1          0      )
                  (     0          0          1      )

 cart.    s( 1) = (  1.0000000  0.0000000  0.0000000 )
                  (  0.0000000  1.0000000  0.0000000 )
                  (  0.0000000  0.0000000  1.0000000 )


   Cartesian axes

     site n.     atom                  positions (alat units)
         1        Sb     tau(   1) = (   0.5829733   0.4189608   2.9724649  )
         2        Te     tau(   2) = (   0.5752175   0.4057666   1.6850437  )
         3        Sb     tau(   3) = (   0.0736071   0.1257310   2.0683360  )
         4        Te     tau(   4) = (   0.0811854   0.1390911   3.3558017  )
         5        Te     tau(   5) = (   0.0831178   0.6970014   2.5203330  )

     -------------------------------------------------
     Parameters for Dispersion (Grimme-D2) Correction:
     -------------------------------------------------
       atom      VdW radius       C_6     

        Sb         3.555       1333.532
        Te         3.575       1101.101

   Crystallographic axes

     site n.     atom                  positions (cryst. coord.)
         1        Sb     tau(   1) = (  0.8248627  0.4934545  0.5896776  )
         2        Te     tau(   2) = (  0.8094892  0.4779143  0.3342790  )
         3        Sb     tau(   3) = (  0.1461986  0.1480867  0.4103165  )
         4        Te     tau(   4) = (  0.1614904  0.1638223  0.6657240  )
         5        Te     tau(   5) = (  0.4855356  0.8209324  0.4999837  )

     number of k points=    85
                       cart. coord. in units 2pi/alat
        k(    1) = (   0.0000000   0.0000000   0.0000000), wk =   0.0118343
        k(    2) = (   0.0000000   0.0906005   0.0000000), wk =   0.0236686
        k(    3) = (   0.0000000   0.1812009   0.0000000), wk =   0.0236686
        k(    4) = (   0.0000000   0.2718014   0.0000000), wk =   0.0236686
        k(    5) = (   0.0000000   0.3624018   0.0000000), wk =   0.0236686
        k(    6) = (   0.0000000   0.4530023   0.0000000), wk =   0.0236686
        k(    7) = (   0.0000000   0.5436027   0.0000000), wk =   0.0236686
        k(    8) = (   0.0769231   0.0444120   0.0000000), wk =   0.0236686
        k(    9) = (   0.0769231   0.1350124   0.0000000), wk =   0.0236686
        k(   10) = (   0.0769231   0.2256129   0.0000000), wk =   0.0236686
        k(   11) = (   0.0769231   0.3162134   0.0000000), wk =   0.0236686
        k(   12) = (   0.0769231   0.4068138   0.0000000), wk =   0.0236686
        k(   13) = (   0.0769231   0.4974143   0.0000000), wk =   0.0236686
        k(   14) = (   0.0769231   0.5880147   0.0000000), wk =   0.0236686
        k(   15) = (   0.0769231  -0.4991908   0.0000000), wk =   0.0236686
        k(   16) = (   0.0769231  -0.4085903   0.0000000), wk =   0.0236686
        k(   17) = (   0.0769231  -0.3179898   0.0000000), wk =   0.0236686
        k(   18) = (   0.0769231  -0.2273894   0.0000000), wk =   0.0236686
        k(   19) = (   0.0769231  -0.1367889   0.0000000), wk =   0.0236686
        k(   20) = (   0.0769231  -0.0461885   0.0000000), wk =   0.0236686
        k(   21) = (   0.1538462   0.0888240   0.0000000), wk =   0.0236686
        k(   22) = (   0.1538462   0.1794244   0.0000000), wk =   0.0236686
        k(   23) = (   0.1538462   0.2700249   0.0000000), wk =   0.0236686
        k(   24) = (   0.1538462   0.3606253   0.0000000), wk =   0.0236686
        k(   25) = (   0.1538462   0.4512258   0.0000000), wk =   0.0236686
        k(   26) = (   0.1538462   0.5418263   0.0000000), wk =   0.0236686
        k(   27) = (   0.1538462   0.6324267   0.0000000), wk =   0.0236686
        k(   28) = (   0.1538462  -0.4547788   0.0000000), wk =   0.0236686
        k(   29) = (   0.1538462  -0.3641783   0.0000000), wk =   0.0236686
        k(   30) = (   0.1538462  -0.2735779   0.0000000), wk =   0.0236686
        k(   31) = (   0.1538462  -0.1829774   0.0000000), wk =   0.0236686
        k(   32) = (   0.1538462  -0.0923769   0.0000000), wk =   0.0236686
        k(   33) = (   0.1538462  -0.0017765   0.0000000), wk =   0.0236686
        k(   34) = (   0.2307692   0.1332360   0.0000000), wk =   0.0236686
        k(   35) = (   0.2307692   0.2238364   0.0000000), wk =   0.0236686
        k(   36) = (   0.2307692   0.3144369   0.0000000), wk =   0.0236686
        k(   37) = (   0.2307692   0.4050373   0.0000000), wk =   0.0236686
        k(   38) = (   0.2307692   0.4956378   0.0000000), wk =   0.0236686
        k(   39) = (   0.2307692   0.5862383   0.0000000), wk =   0.0236686
        k(   40) = (   0.2307692   0.6768387   0.0000000), wk =   0.0236686
        k(   41) = (   0.2307692  -0.4103668   0.0000000), wk =   0.0236686
        k(   42) = (   0.2307692  -0.3197663   0.0000000), wk =   0.0236686
        k(   43) = (   0.2307692  -0.2291659   0.0000000), wk =   0.0236686
        k(   44) = (   0.2307692  -0.1385654   0.0000000), wk =   0.0236686
        k(   45) = (   0.2307692  -0.0479649   0.0000000), wk =   0.0236686
        k(   46) = (   0.2307692   0.0426355   0.0000000), wk =   0.0236686
        k(   47) = (   0.3076923   0.1776480   0.0000000), wk =   0.0236686
        k(   48) = (   0.3076923   0.2682484   0.0000000), wk =   0.0236686
        k(   49) = (   0.3076923   0.3588489   0.0000000), wk =   0.0236686
        k(   50) = (   0.3076923   0.4494493   0.0000000), wk =   0.0236686
        k(   51) = (   0.3076923   0.5400498   0.0000000), wk =   0.0236686
        k(   52) = (   0.3076923   0.6306502   0.0000000), wk =   0.0236686
        k(   53) = (   0.3076923   0.7212507   0.0000000), wk =   0.0236686
        k(   54) = (   0.3076923  -0.3659548   0.0000000), wk =   0.0236686
        k(   55) = (   0.3076923  -0.2753543   0.0000000), wk =   0.0236686
        k(   56) = (   0.3076923  -0.1847539   0.0000000), wk =   0.0236686
        k(   57) = (   0.3076923  -0.0941534   0.0000000), wk =   0.0236686
        k(   58) = (   0.3076923  -0.0035530   0.0000000), wk =   0.0236686
        k(   59) = (   0.3076923   0.0870475   0.0000000), wk =   0.0236686
        k(   60) = (   0.3846154   0.2220599   0.0000000), wk =   0.0236686
        k(   61) = (   0.3846154   0.3126604   0.0000000), wk =   0.0236686
        k(   62) = (   0.3846154   0.4032609   0.0000000), wk =   0.0236686
        k(   63) = (   0.3846154   0.4938613   0.0000000), wk =   0.0236686
        k(   64) = (   0.3846154   0.5844618   0.0000000), wk =   0.0236686
        k(   65) = (   0.3846154   0.6750622   0.0000000), wk =   0.0236686
        k(   66) = (   0.3846154   0.7656627   0.0000000), wk =   0.0236686
        k(   67) = (   0.3846154  -0.3215428   0.0000000), wk =   0.0236686
        k(   68) = (   0.3846154  -0.2309423   0.0000000), wk =   0.0236686
        k(   69) = (   0.3846154  -0.1403419   0.0000000), wk =   0.0236686
        k(   70) = (   0.3846154  -0.0497414   0.0000000), wk =   0.0236686
        k(   71) = (   0.3846154   0.0408590   0.0000000), wk =   0.0236686
        k(   72) = (   0.3846154   0.1314595   0.0000000), wk =   0.0236686
        k(   73) = (   0.4615385   0.2664719   0.0000000), wk =   0.0236686
        k(   74) = (   0.4615385   0.3570724   0.0000000), wk =   0.0236686
        k(   75) = (   0.4615385   0.4476728   0.0000000), wk =   0.0236686
        k(   76) = (   0.4615385   0.5382733   0.0000000), wk =   0.0236686
        k(   77) = (   0.4615385   0.6288738   0.0000000), wk =   0.0236686
        k(   78) = (   0.4615385   0.7194742   0.0000000), wk =   0.0236686
        k(   79) = (   0.4615385   0.8100747   0.0000000), wk =   0.0236686
        k(   80) = (   0.4615385  -0.2771308   0.0000000), wk =   0.0236686
        k(   81) = (   0.4615385  -0.1865304   0.0000000), wk =   0.0236686
        k(   82) = (   0.4615385  -0.0959299   0.0000000), wk =   0.0236686
        k(   83) = (   0.4615385  -0.0053294   0.0000000), wk =   0.0236686
        k(   84) = (   0.4615385   0.0852710   0.0000000), wk =   0.0236686
        k(   85) = (   0.4615385   0.1758715   0.0000000), wk =   0.0236686

                       cryst. coord.
        k(    1) = (   0.0000000   0.0000000   0.0000000), wk =   0.0118343
        k(    2) = (   0.0000000   0.0769231   0.0000000), wk =   0.0236686
        k(    3) = (   0.0000000   0.1538462   0.0000000), wk =   0.0236686
        k(    4) = (   0.0000000   0.2307692   0.0000000), wk =   0.0236686
        k(    5) = (   0.0000000   0.3076923   0.0000000), wk =   0.0236686
        k(    6) = (   0.0000000   0.3846154   0.0000000), wk =   0.0236686
        k(    7) = (   0.0000000   0.4615385   0.0000000), wk =   0.0236686
        k(    8) = (   0.0769231   0.0000000   0.0000000), wk =   0.0236686
        k(    9) = (   0.0769231   0.0769231   0.0000000), wk =   0.0236686
        k(   10) = (   0.0769231   0.1538462   0.0000000), wk =   0.0236686
        k(   11) = (   0.0769231   0.2307692   0.0000000), wk =   0.0236686
        k(   12) = (   0.0769231   0.3076923   0.0000000), wk =   0.0236686
        k(   13) = (   0.0769231   0.3846154   0.0000000), wk =   0.0236686
        k(   14) = (   0.0769231   0.4615385   0.0000000), wk =   0.0236686
        k(   15) = (   0.0769231  -0.4615385   0.0000000), wk =   0.0236686
        k(   16) = (   0.0769231  -0.3846154   0.0000000), wk =   0.0236686
        k(   17) = (   0.0769231  -0.3076923   0.0000000), wk =   0.0236686
        k(   18) = (   0.0769231  -0.2307692   0.0000000), wk =   0.0236686
        k(   19) = (   0.0769231  -0.1538462   0.0000000), wk =   0.0236686
        k(   20) = (   0.0769231  -0.0769231   0.0000000), wk =   0.0236686
        k(   21) = (   0.1538462   0.0000000   0.0000000), wk =   0.0236686
        k(   22) = (   0.1538462   0.0769231   0.0000000), wk =   0.0236686
        k(   23) = (   0.1538462   0.1538462   0.0000000), wk =   0.0236686
        k(   24) = (   0.1538462   0.2307692   0.0000000), wk =   0.0236686
        k(   25) = (   0.1538462   0.3076923   0.0000000), wk =   0.0236686
        k(   26) = (   0.1538462   0.3846154   0.0000000), wk =   0.0236686
        k(   27) = (   0.1538462   0.4615385   0.0000000), wk =   0.0236686
        k(   28) = (   0.1538462  -0.4615385   0.0000000), wk =   0.0236686
        k(   29) = (   0.1538462  -0.3846154   0.0000000), wk =   0.0236686
        k(   30) = (   0.1538462  -0.3076923   0.0000000), wk =   0.0236686
        k(   31) = (   0.1538462  -0.2307692   0.0000000), wk =   0.0236686
        k(   32) = (   0.1538462  -0.1538462   0.0000000), wk =   0.0236686
        k(   33) = (   0.1538462  -0.0769231   0.0000000), wk =   0.0236686
        k(   34) = (   0.2307692   0.0000000   0.0000000), wk =   0.0236686
        k(   35) = (   0.2307692   0.0769231   0.0000000), wk =   0.0236686
        k(   36) = (   0.2307692   0.1538462   0.0000000), wk =   0.0236686
        k(   37) = (   0.2307692   0.2307692   0.0000000), wk =   0.0236686
        k(   38) = (   0.2307692   0.3076923   0.0000000), wk =   0.0236686
        k(   39) = (   0.2307692   0.3846154   0.0000000), wk =   0.0236686
        k(   40) = (   0.2307692   0.4615385   0.0000000), wk =   0.0236686
        k(   41) = (   0.2307692  -0.4615385   0.0000000), wk =   0.0236686
        k(   42) = (   0.2307692  -0.3846154   0.0000000), wk =   0.0236686
        k(   43) = (   0.2307692  -0.3076923   0.0000000), wk =   0.0236686
        k(   44) = (   0.2307692  -0.2307692   0.0000000), wk =   0.0236686
        k(   45) = (   0.2307692  -0.1538462   0.0000000), wk =   0.0236686
        k(   46) = (   0.2307692  -0.0769231   0.0000000), wk =   0.0236686
        k(   47) = (   0.3076923   0.0000000   0.0000000), wk =   0.0236686
        k(   48) = (   0.3076923   0.0769231   0.0000000), wk =   0.0236686
        k(   49) = (   0.3076923   0.1538462   0.0000000), wk =   0.0236686
        k(   50) = (   0.3076923   0.2307692   0.0000000), wk =   0.0236686
        k(   51) = (   0.3076923   0.3076923   0.0000000), wk =   0.0236686
        k(   52) = (   0.3076923   0.3846154   0.0000000), wk =   0.0236686
        k(   53) = (   0.3076923   0.4615385   0.0000000), wk =   0.0236686
        k(   54) = (   0.3076923  -0.4615385   0.0000000), wk =   0.0236686
        k(   55) = (   0.3076923  -0.3846154   0.0000000), wk =   0.0236686
        k(   56) = (   0.3076923  -0.3076923   0.0000000), wk =   0.0236686
        k(   57) = (   0.3076923  -0.2307692   0.0000000), wk =   0.0236686
        k(   58) = (   0.3076923  -0.1538462   0.0000000), wk =   0.0236686
        k(   59) = (   0.3076923  -0.0769231   0.0000000), wk =   0.0236686
        k(   60) = (   0.3846154   0.0000000   0.0000000), wk =   0.0236686
        k(   61) = (   0.3846154   0.0769231   0.0000000), wk =   0.0236686
        k(   62) = (   0.3846154   0.1538462   0.0000000), wk =   0.0236686
        k(   63) = (   0.3846154   0.2307692   0.0000000), wk =   0.0236686
        k(   64) = (   0.3846154   0.3076923   0.0000000), wk =   0.0236686
        k(   65) = (   0.3846154   0.3846154   0.0000000), wk =   0.0236686
        k(   66) = (   0.3846154   0.4615385   0.0000000), wk =   0.0236686
        k(   67) = (   0.3846154  -0.4615385   0.0000000), wk =   0.0236686
        k(   68) = (   0.3846154  -0.3846154   0.0000000), wk =   0.0236686
        k(   69) = (   0.3846154  -0.3076923   0.0000000), wk =   0.0236686
        k(   70) = (   0.3846154  -0.2307692   0.0000000), wk =   0.0236686
        k(   71) = (   0.3846154  -0.1538462   0.0000000), wk =   0.0236686
        k(   72) = (   0.3846154  -0.0769231   0.0000000), wk =   0.0236686
        k(   73) = (   0.4615385   0.0000000   0.0000000), wk =   0.0236686
        k(   74) = (   0.4615385   0.0769231   0.0000000), wk =   0.0236686
        k(   75) = (   0.4615385   0.1538462   0.0000000), wk =   0.0236686
        k(   76) = (   0.4615385   0.2307692   0.0000000), wk =   0.0236686
        k(   77) = (   0.4615385   0.3076923   0.0000000), wk =   0.0236686
        k(   78) = (   0.4615385   0.3846154   0.0000000), wk =   0.0236686
        k(   79) = (   0.4615385   0.4615385   0.0000000), wk =   0.0236686
        k(   80) = (   0.4615385  -0.4615385   0.0000000), wk =   0.0236686
        k(   81) = (   0.4615385  -0.3846154   0.0000000), wk =   0.0236686
        k(   82) = (   0.4615385  -0.3076923   0.0000000), wk =   0.0236686
        k(   83) = (   0.4615385  -0.2307692   0.0000000), wk =   0.0236686
        k(   84) = (   0.4615385  -0.1538462   0.0000000), wk =   0.0236686
        k(   85) = (   0.4615385  -0.0769231   0.0000000), wk =   0.0236686

     Dense  grid:   194215 G-vectors     FFT dimensions: (  45,  45, 225)

     Dynamical RAM for                 wfc:       0.44 MB

     Dynamical RAM for     wfc (w. buffer):       0.44 MB

     Dynamical RAM for                 EXX:     630.69 MB

     Dynamical RAM for           str. fact:       0.07 MB

     Dynamical RAM for           local pot:       0.00 MB

     Dynamical RAM for          nlocal pot:       0.40 MB

     Dynamical RAM for                qrad:       2.85 MB

     Dynamical RAM for          rho,v,vnew:       0.25 MB

     Dynamical RAM for           G-vectors:       0.15 MB

     Dynamical RAM for          h,s,v(r/c):       1.83 MB

     Dynamical RAM for          <psi|beta>:       0.14 MB

     Dynamical RAM for                 psi:       0.88 MB

     Dynamical RAM for                hpsi:       0.88 MB

     Dynamical RAM for      wfcinit/wfcrot:       1.11 MB

     Estimated static dynamical RAM per process >     635.18 MB

     Estimated max dynamical RAM per process >     638.92 MB

     Estimated total dynamical RAM >     104.82 GB
     EXX: initializing ACE and reading from file
     ACE potential read for      100 bands
     ACE potential read for      100 bands
     ACE potential read for      100 bands
     ACE potential read for      100 bands
     ACE potential read for      100 bands
     ACE potential read for      100 bands
     ACE potential read for      100 bands
     ACE potential read for      100 bands
     ACE potential read for      100 bands
     ACE potential read for      100 bands
     ACE potential read for      100 bands
     ACE potential read for      100 bands
     ACE potential read for      100 bands
     ACE potential read for      100 bands
     ACE potential read for      100 bands
     ACE potential read for      100 bands
     ACE potential read for      100 bands
     ACE potential read for      100 bands
     ACE potential read for      100 bands
     ACE potential read for      100 bands
     ACE potential read for      100 bands
     ACE potential read for      100 bands
     ACE potential read for      100 bands
     ACE potential read for      100 bands
     ACE potential read for      100 bands
     ACE potential read for      100 bands
     ACE potential read for      100 bands
     ACE potential read for      100 bands
     ACE potential read for      100 bands
     ACE potential read for      100 bands
     ACE potential read for      100 bands
     ACE potential read for      100 bands
     ACE potential read for      100 bands
     ACE potential read for      100 bands
     ACE potential read for      100 bands
     ACE potential read for      100 bands
     ACE potential read for      100 bands
     ACE potential read for      100 bands
     ACE potential read for      100 bands
     ACE potential read for      100 bands
     ACE potential read for      100 bands
     ACE potential read for      100 bands
     ACE potential read for      100 bands
     Starting ACE correctly read from file

     The potential is recalculated from file :
     tmp/Sb2Te3-uatsx-c4-2.0.save/charge-density

     Starting wfcs are random

     Band Structure Calculation
     Davidson diagonalization with overlap

     Computing kpt #:     1  of    43 on this pool
     total cpu time spent up to now is       16.7 secs

     Computing kpt #:     2  of    43 on this pool
     total cpu time spent up to now is       20.0 secs

     Computing kpt #:     3  of    43 on this pool
     total cpu time spent up to now is       23.0 secs

     Computing kpt #:     4  of    43 on this pool
     total cpu time spent up to now is       26.0 secs

     Computing kpt #:     5  of    43 on this pool
     total cpu time spent up to now is       29.1 secs

     Computing kpt #:     6  of    43 on this pool
     total cpu time spent up to now is       32.1 secs

     Computing kpt #:     7  of    43 on this pool
     total cpu time spent up to now is       35.1 secs

     Computing kpt #:     8  of    43 on this pool
     total cpu time spent up to now is       38.4 secs

     Computing kpt #:     9  of    43 on this pool
     total cpu time spent up to now is       41.5 secs

     Computing kpt #:    10  of    43 on this pool
     total cpu time spent up to now is       44.6 secs

     Computing kpt #:    11  of    43 on this pool
     total cpu time spent up to now is       47.8 secs

     Computing kpt #:    12  of    43 on this pool
     total cpu time spent up to now is       50.6 secs

     Computing kpt #:    13  of    43 on this pool
     total cpu time spent up to now is       54.0 secs

     Computing kpt #:    14  of    43 on this pool
     total cpu time spent up to now is       56.8 secs

     Computing kpt #:    15  of    43 on this pool
     total cpu time spent up to now is       59.7 secs

     Computing kpt #:    16  of    43 on this pool
     total cpu time spent up to now is       62.6 secs

     Computing kpt #:    17  of    43 on this pool
     total cpu time spent up to now is       65.3 secs

     Computing kpt #:    18  of    43 on this pool
     total cpu time spent up to now is       68.4 secs

     Computing kpt #:    19  of    43 on this pool
     total cpu time spent up to now is       71.4 secs

     Computing kpt #:    20  of    43 on this pool
     total cpu time spent up to now is       74.4 secs

     Computing kpt #:    21  of    43 on this pool
     total cpu time spent up to now is       77.5 secs

     Computing kpt #:    22  of    43 on this pool
     total cpu time spent up to now is       80.4 secs

     Computing kpt #:    23  of    43 on this pool
     total cpu time spent up to now is       83.3 secs

     Computing kpt #:    24  of    43 on this pool
     total cpu time spent up to now is       86.1 secs

     Computing kpt #:    25  of    43 on this pool
     total cpu time spent up to now is       88.9 secs

     Computing kpt #:    26  of    43 on this pool
     total cpu time spent up to now is       91.7 secs

     Computing kpt #:    27  of    43 on this pool
     total cpu time spent up to now is       94.6 secs

     Computing kpt #:    28  of    43 on this pool
     total cpu time spent up to now is       97.6 secs

     Computing kpt #:    29  of    43 on this pool
     total cpu time spent up to now is      100.5 secs

     Computing kpt #:    30  of    43 on this pool
     total cpu time spent up to now is      103.3 secs

     Computing kpt #:    31  of    43 on this pool
     total cpu time spent up to now is      106.2 secs

     Computing kpt #:    32  of    43 on this pool
     total cpu time spent up to now is      108.9 secs

     Computing kpt #:    33  of    43 on this pool
     total cpu time spent up to now is      111.9 secs

     Computing kpt #:    34  of    43 on this pool
     total cpu time spent up to now is      115.4 secs

     Computing kpt #:    35  of    43 on this pool
     total cpu time spent up to now is      118.3 secs

     Computing kpt #:    36  of    43 on this pool
     total cpu time spent up to now is      121.4 secs

     Computing kpt #:    37  of    43 on this pool
     total cpu time spent up to now is      124.3 secs

     Computing kpt #:    38  of    43 on this pool
     total cpu time spent up to now is      127.2 secs

     Computing kpt #:    39  of    43 on this pool
     total cpu time spent up to now is      130.2 secs

     Computing kpt #:    40  of    43 on this pool
     total cpu time spent up to now is      133.5 secs

     Computing kpt #:    41  of    43 on this pool
     total cpu time spent up to now is      136.5 secs

     Computing kpt #:    42  of    43 on this pool
     total cpu time spent up to now is      139.4 secs

     Computing kpt #:    43  of    43 on this pool
     total cpu time spent up to now is      142.2 secs

     ethr =  1.28E-10,  avg # of iterations = 50.2

     total cpu time spent up to now is      143.3 secs

     End of band structure calculation

          k = 0.0000 0.0000 0.0000 ( 24159 PWs)   bands (ev):

   -36.5349 -36.5320 -36.5316 -36.5286 -36.5067 -36.5033 -36.5021 -36.4987
   -36.4865 -36.4832 -36.2354 -36.2311 -36.2199 -36.2075 -36.2062 -29.2200
   -29.2182 -29.2179 -29.2162 -29.1718 -29.1710 -29.1702 -29.1693 -29.1544
   -29.1535 -12.8949 -12.3656 -11.0698  -7.8336  -6.2960  -1.2386  -1.1439
    -1.0006  -0.9092  -0.7865  -0.2363  -0.1069  -0.0231   0.4456   2.1167
     2.4538   2.5208   3.5203   3.5552   3.7749   6.2568   6.4297   7.3616
     7.8530   8.2752   8.5573   8.6376   9.2067   9.2163   9.5422   9.8372
    10.2546  10.3483  10.4071  10.5245  11.1144  11.7545  11.9009  12.0618
    12.2044  12.3420  13.1479  13.3153  14.5097  14.7097  14.7812  14.8238
    14.9365  15.5222  16.1307  16.3262  16.4120  16.4222  16.5852  16.7055
    17.0103  17.2464  17.2615  17.3376  17.4734  17.5667  17.5954  17.6364
    17.6932  17.7671  17.8543  17.9450  18.1138  18.3830  19.3015  19.3351
    19.5027  19.5457  19.5647  19.6610

     occupation numbers 
     1.0000   1.0000   1.0000   1.0000   1.0000   1.0000   1.0000   1.0000
     1.0000   1.0000   1.0000   1.0000   1.0000   1.0000   1.0000   1.0000
     1.0000   1.0000   1.0000   1.0000   1.0000   1.0000   1.0000   1.0000
     1.0000   1.0000   1.0000   1.0000   1.0000   1.0000   1.0000   1.0000
     1.0000   1.0000   1.0000   1.0000   1.0000   1.0000   1.0000   0.0000
     0.0000   0.0000   0.0000   0.0000   0.0000   0.0000   0.0000   0.0000
     0.0000   0.0000   0.0000   0.0000   0.0000   0.0000   0.0000   0.0000
     0.0000   0.0000   0.0000   0.0000   0.0000   0.0000   0.0000   0.0000
     0.0000   0.0000   0.0000   0.0000   0.0000   0.0000   0.0000   0.0000
     0.0000   0.0000   0.0000   0.0000   0.0000   0.0000   0.0000   0.0000
     0.0000   0.0000   0.0000   0.0000   0.0000   0.0000   0.0000   0.0000
     0.0000   0.0000   0.0000   0.0000   0.0000   0.0000   0.0000   0.0000
     0.0000   0.0000   0.0000   0.0000

          k = 0.0000 0.0906 0.0000 ( 24176 PWs)   bands (ev):

   -36.5370 -36.5356 -36.5336 -36.5323 -36.5050 -36.5018 -36.4998 -36.4964
   -36.4790 -36.4756 -36.2384 -36.2300 -36.2232 -36.2012 -36.1968 -29.2137
   -29.2122 -29.2117 -29.2103 -29.1751 -29.1739 -29.1735 -29.1727 -29.1500
   -29.1491 -12.8162 -12.2819 -11.0331  -7.8727  -6.4437  -1.6338  -1.3763
    -1.2700  -1.0322  -0.9806  -0.5900  -0.0405   0.2736   0.7481   2.2085
     2.5423   2.7290   3.4933   3.6594   4.0426   6.3446   6.4815   7.4364
     7.7605   8.0966   8.3853   8.7725   9.1272   9.3251   9.5373   9.7315
    10.1709  10.4671  10.7942  11.0144  11.3957  11.5101  11.5798  12.0749
    12.6571  12.8036  13.3087  13.4265  14.0537  14.0905  14.8262  15.0802
    15.0889  15.5463  15.7473  15.8845  16.1534  16.3537  16.5394  16.5695
    16.6904  16.8094  16.9709  17.1012  17.2244  17.2775  17.6842  18.1268
    18.2607  18.2860  18.4237  18.4963  18.5938  18.6604  18.7644  18.9882
    19.0733  19.1739  19.4657  19.7146

     occupation numbers 
     1.0000   1.0000   1.0000   1.0000   1.0000   1.0000   1.0000   1.0000
     1.0000   1.0000   1.0000   1.0000   1.0000   1.0000   1.0000   1.0000
     1.0000   1.0000   1.0000   1.0000   1.0000   1.0000   1.0000   1.0000
     1.0000   1.0000   1.0000   1.0000   1.0000   1.0000   1.0000   1.0000
     1.0000   1.0000   1.0000   1.0000   1.0000   1.0000   1.0000   0.0000
     0.0000   0.0000   0.0000   0.0000   0.0000   0.0000   0.0000   0.0000
     0.0000   0.0000   0.0000   0.0000   0.0000   0.0000   0.0000   0.0000
     0.0000   0.0000   0.0000   0.0000   0.0000   0.0000   0.0000   0.0000
     0.0000   0.0000   0.0000   0.0000   0.0000   0.0000   0.0000   0.0000
     0.0000   0.0000   0.0000   0.0000   0.0000   0.0000   0.0000   0.0000
     0.0000   0.0000   0.0000   0.0000   0.0000   0.0000   0.0000   0.0000
     0.0000   0.0000   0.0000   0.0000   0.0000   0.0000   0.0000   0.0000
     0.0000   0.0000   0.0000   0.0000

          k = 0.0000 0.1812 0.0000 ( 24196 PWs)   bands (ev):

   -36.5275 -36.5242 -36.5240 -36.5209 -36.4914 -36.4880 -36.4868 -36.4835
   -36.4686 -36.4652 -36.2331 -36.2251 -36.2150 -36.1949 -36.1900 -29.2122
   -29.2106 -29.2088 -29.2074 -29.1875 -29.1859 -29.1768 -29.1759 -29.1707
   -29.1695 -12.6132 -12.0629 -10.9010  -7.9700  -6.8023  -2.4765  -1.7591
    -1.7164  -1.4767  -1.2264  -0.8811   0.0066   0.3635   0.7942   2.4569
     2.7448   3.1037   3.8136   3.9379   4.5117   6.5482   6.6078   7.2403
     7.7507   7.9488   8.6564   8.8415   9.0441   9.2371   9.7224   9.9989
    10.0389  10.6560  11.1475  11.3861  11.7181  11.8158  12.2478  12.4441
    12.8643  12.9567  13.3083  13.7347  13.8398  14.1159  14.4110  14.7160
    14.8054  15.0011  15.2719  15.5460  15.9731  16.1214  16.1392  16.2270
    16.4344  16.6811  16.7841  17.0785  17.1995  17.6613  17.9080  18.1053
    18.2598  18.3534  18.4418  18.6150  18.7716  19.2249  19.3555  19.4923
    19.6580  19.7212  20.0313  20.2973

     occupation numbers 
     1.0000   1.0000   1.0000   1.0000   1.0000   1.0000   1.0000   1.0000
     1.0000   1.0000   1.0000   1.0000   1.0000   1.0000   1.0000   1.0000
     1.0000   1.0000   1.0000   1.0000   1.0000   1.0000   1.0000   1.0000
     1.0000   1.0000   1.0000   1.0000   1.0000   1.0000   1.0000   1.0000
     1.0000   1.0000   1.0000   1.0000   1.0000   1.0000   1.0000   0.0000
     0.0000   0.0000   0.0000   0.0000   0.0000   0.0000   0.0000   0.0000
     0.0000   0.0000   0.0000   0.0000   0.0000   0.0000   0.0000   0.0000
     0.0000   0.0000   0.0000   0.0000   0.0000   0.0000   0.0000   0.0000
     0.0000   0.0000   0.0000   0.0000   0.0000   0.0000   0.0000   0.0000
     0.0000   0.0000   0.0000   0.0000   0.0000   0.0000   0.0000   0.0000
     0.0000   0.0000   0.0000   0.0000   0.0000   0.0000   0.0000   0.0000
     0.0000   0.0000   0.0000   0.0000   0.0000   0.0000   0.0000   0.0000
     0.0000   0.0000   0.0000   0.0000

          k = 0.0000 0.2718 0.0000 ( 24250 PWs)   bands (ev):

   -36.5230 -36.5196 -36.5177 -36.5144 -36.4844 -36.4810 -36.4777 -36.4745
   -36.4627 -36.4593 -36.2283 -36.2217 -36.2063 -36.1876 -36.1818 -29.2098
   -29.2083 -29.2047 -29.2035 -29.1898 -29.1881 -29.1815 -29.1802 -29.1666
   -29.1651 -12.3152 -11.7986 -10.7441  -8.1246  -7.2845  -3.2181  -2.2503
    -2.1332  -1.8741  -1.5109  -0.8542  -0.2373  -0.0349   0.8616   2.5063
     2.9287   3.4861   4.1549   4.2560   5.0431   6.4660   6.8508   7.1629
     7.9412   8.2418   8.7591   9.1423   9.2226   9.2665  10.1712  10.2113
    10.3675  10.8374  10.9846  11.8715  12.1571  12.4575  12.5241  12.6685
    12.7961  12.8774  13.3990  13.5299  13.9648  14.1585  14.2664  14.7332
    14.8028  14.9054  15.2038  15.4701  15.5580  15.6379  15.7427  15.9367
    16.1593  16.7177  16.9446  17.1899  17.6412  17.7160  17.7931  17.9053
    17.9961  18.4166  18.7840  18.8774  18.9466  19.0956  19.3545  19.5170
    19.6832  20.0550  20.1758  20.2349

     occupation numbers 
     1.0000   1.0000   1.0000   1.0000   1.0000   1.0000   1.0000   1.0000
     1.0000   1.0000   1.0000   1.0000   1.0000   1.0000   1.0000   1.0000
     1.0000   1.0000   1.0000   1.0000   1.0000   1.0000   1.0000   1.0000
     1.0000   1.0000   1.0000   1.0000   1.0000   1.0000   1.0000   1.0000
     1.0000   1.0000   1.0000   1.0000   1.0000   1.0000   1.0000   0.0000
     0.0000   0.0000   0.0000   0.0000   0.0000   0.0000   0.0000   0.0000
     0.0000   0.0000   0.0000   0.0000   0.0000   0.0000   0.0000   0.0000
     0.0000   0.0000   0.0000   0.0000   0.0000   0.0000   0.0000   0.0000
     0.0000   0.0000   0.0000   0.0000   0.0000   0.0000   0.0000   0.0000
     0.0000   0.0000   0.0000   0.0000   0.0000   0.0000   0.0000   0.0000
     0.0000   0.0000   0.0000   0.0000   0.0000   0.0000   0.0000   0.0000
     0.0000   0.0000   0.0000   0.0000   0.0000   0.0000   0.0000   0.0000
     0.0000   0.0000   0.0000   0.0000

          k = 0.0000 0.3624 0.0000 ( 24287 PWs)   bands (ev):

   -36.5181 -36.5147 -36.5116 -36.5082 -36.4785 -36.4750 -36.4706 -36.4674
   -36.4548 -36.4514 -36.2255 -36.2205 -36.1975 -36.1782 -36.1702 -29.2111
   -29.2099 -29.2049 -29.2039 -29.1910 -29.1888 -29.1833 -29.1820 -29.1684
   -29.1667 -11.9403 -11.4810 -10.6056  -8.4089  -7.7853  -3.7914  -2.7238
    -2.4415  -2.0562  -1.7659  -1.0737  -0.4229  -0.1197   0.6085   2.5854
     3.0357   3.4946   4.4039   4.5453   5.4994   6.1167   7.2361   7.4152
     8.1140   8.5862   8.9718   9.5008   9.7307   9.8923  10.3825  10.6000
    10.7097  10.9912  11.3571  11.4099  12.0208  12.3357  12.4245  12.6973
    13.0682  13.2704  13.3955  13.6491  13.9419  14.2448  14.4483  14.6131
    15.0318  15.0733  15.3113  15.3866  15.4897  15.6899  15.9160  16.1541
    16.5900  16.7656  17.0352  17.0909  17.2325  17.3524  17.4259  17.4900
    17.5860  17.7687  17.9105  18.1781  18.7867  18.9593  19.0685  19.2809
    19.5736  20.0785  20.1143  20.3808

     occupation numbers 
     1.0000   1.0000   1.0000   1.0000   1.0000   1.0000   1.0000   1.0000
     1.0000   1.0000   1.0000   1.0000   1.0000   1.0000   1.0000   1.0000
     1.0000   1.0000   1.0000   1.0000   1.0000   1.0000   1.0000   1.0000
     1.0000   1.0000   1.0000   1.0000   1.0000   1.0000   1.0000   1.0000
     1.0000   1.0000   1.0000   1.0000   1.0000   1.0000   1.0000   0.0000
     0.0000   0.0000   0.0000   0.0000   0.0000   0.0000   0.0000   0.0000
     0.0000   0.0000   0.0000   0.0000   0.0000   0.0000   0.0000   0.0000
     0.0000   0.0000   0.0000   0.0000   0.0000   0.0000   0.0000   0.0000
     0.0000   0.0000   0.0000   0.0000   0.0000   0.0000   0.0000   0.0000
     0.0000   0.0000   0.0000   0.0000   0.0000   0.0000   0.0000   0.0000
     0.0000   0.0000   0.0000   0.0000   0.0000   0.0000   0.0000   0.0000
     0.0000   0.0000   0.0000   0.0000   0.0000   0.0000   0.0000   0.0000
     0.0000   0.0000   0.0000   0.0000

          k = 0.0000 0.4530 0.0000 ( 24287 PWs)   bands (ev):

   -36.5133 -36.5099 -36.5058 -36.5024 -36.4773 -36.4738 -36.4668 -36.4636
   -36.4532 -36.4498 -36.2247 -36.2213 -36.1938 -36.1727 -36.1631 -29.2109
   -29.2097 -29.2044 -29.2035 -29.1909 -29.1884 -29.1812 -29.1797 -29.1692
   -29.1672 -11.5163 -11.1589 -10.5736  -8.7865  -8.1907  -4.1766  -2.9376
    -2.6565  -2.2874  -1.9520  -1.3118  -0.3782  -0.2032   0.3222   2.5888
     3.0744   3.4038   4.5488   4.7486   5.6512   5.9281   7.4000   7.9003
     8.3447   9.0169   9.4977   9.6969   9.9416  10.4246  10.6379  10.8824
    11.0728  11.2627  11.3053  11.6357  11.7881  12.0839  12.4880  12.8003
    13.1093  13.3896  13.7917  13.8686  14.0442  14.1461  14.3354  14.5666
    14.7921  14.8552  15.1988  15.2810  15.4788  15.8412  16.0067  16.2276
    16.3426  16.4594  16.7681  16.8415  17.0433  17.1006  17.2970  17.5215
    17.5611  17.7620  17.9119  17.9846  18.2731  18.8582  19.2049  19.3886
    19.5302  19.9112  20.0682  20.2710

     occupation numbers 
     1.0000   1.0000   1.0000   1.0000   1.0000   1.0000   1.0000   1.0000
     1.0000   1.0000   1.0000   1.0000   1.0000   1.0000   1.0000   1.0000
     1.0000   1.0000   1.0000   1.0000   1.0000   1.0000   1.0000   1.0000
     1.0000   1.0000   1.0000   1.0000   1.0000   1.0000   1.0000   1.0000
     1.0000   1.0000   1.0000   1.0000   1.0000   1.0000   1.0000   0.0000
     0.0000   0.0000   0.0000   0.0000   0.0000   0.0000   0.0000   0.0000
     0.0000   0.0000   0.0000   0.0000   0.0000   0.0000   0.0000   0.0000
     0.0000   0.0000   0.0000   0.0000   0.0000   0.0000   0.0000   0.0000
     0.0000   0.0000   0.0000   0.0000   0.0000   0.0000   0.0000   0.0000
     0.0000   0.0000   0.0000   0.0000   0.0000   0.0000   0.0000   0.0000
     0.0000   0.0000   0.0000   0.0000   0.0000   0.0000   0.0000   0.0000
     0.0000   0.0000   0.0000   0.0000   0.0000   0.0000   0.0000   0.0000
     0.0000   0.0000   0.0000   0.0000

          k = 0.0000 0.5436 0.0000 ( 24293 PWs)   bands (ev):

   -36.5104 -36.5070 -36.5025 -36.4991 -36.4779 -36.4744 -36.4636 -36.4604
   -36.4560 -36.4526 -36.2249 -36.2226 -36.1930 -36.1703 -36.1600 -29.2102
   -29.2091 -29.2037 -29.2028 -29.1902 -29.1874 -29.1783 -29.1768 -29.1689
   -29.1667 -11.0896 -10.9293 -10.7231  -9.0717  -8.4288  -4.3766  -2.9127
    -2.7673  -2.5645  -2.0493  -1.3742  -0.3625  -0.2536   0.1679   2.5257
     3.0820   3.3976   4.5693   4.8477   5.6695   5.8239   7.5112   8.4710
     8.7294   9.1097   9.3160   9.6602  10.0392  10.3382  10.7727  11.2223
    11.4710  11.6385  11.8108  12.0451  12.1841  12.2331  12.4895  12.8766
    13.0236  13.3013  13.3636  13.5729  14.0757  14.1181  14.4234  14.5092
    14.6176  14.6865  14.8193  15.0905  15.2364  15.3522  15.5864  15.8072
    16.0150  16.1763  16.7558  16.8601  16.9910  17.1714  17.4546  17.8838
    18.0952  18.1576  18.2329  18.6396  18.8436  18.9105  19.0294  19.3709
    19.3914  19.9202  20.0054  20.1778

     occupation numbers 
     1.0000   1.0000   1.0000   1.0000   1.0000   1.0000   1.0000   1.0000
     1.0000   1.0000   1.0000   1.0000   1.0000   1.0000   1.0000   1.0000
     1.0000   1.0000   1.0000   1.0000   1.0000   1.0000   1.0000   1.0000
     1.0000   1.0000   1.0000   1.0000   1.0000   1.0000   1.0000   1.0000
     1.0000   1.0000   1.0000   1.0000   1.0000   1.0000   1.0000   0.0000
     0.0000   0.0000   0.0000   0.0000   0.0000   0.0000   0.0000   0.0000
     0.0000   0.0000   0.0000   0.0000   0.0000   0.0000   0.0000   0.0000
     0.0000   0.0000   0.0000   0.0000   0.0000   0.0000   0.0000   0.0000
     0.0000   0.0000   0.0000   0.0000   0.0000   0.0000   0.0000   0.0000
     0.0000   0.0000   0.0000   0.0000   0.0000   0.0000   0.0000   0.0000
     0.0000   0.0000   0.0000   0.0000   0.0000   0.0000   0.0000   0.0000
     0.0000   0.0000   0.0000   0.0000   0.0000   0.0000   0.0000   0.0000
     0.0000   0.0000   0.0000   0.0000

          k = 0.0769 0.0444 0.0000 ( 24182 PWs)   bands (ev):

   -36.5392 -36.5358 -36.5352 -36.5318 -36.5080 -36.5047 -36.4962 -36.4928
   -36.4788 -36.4755 -36.2346 -36.2307 -36.2260 -36.2010 -36.1989 -29.2137
   -29.2121 -29.2116 -29.2102 -29.1762 -29.1749 -29.1726 -29.1718 -29.1501
   -29.1490 -12.8192 -12.2859 -11.0369  -7.8762  -6.4538  -1.6900  -1.4417
    -1.2238  -1.0177  -0.8664  -0.6178   0.0389   0.2575   0.7433   2.2988
     2.5548   2.6274   3.5607   3.6486   3.9822   6.3416   6.4776   7.4392
     7.7393   7.9834   8.6204   8.7595   9.0644   9.2567   9.5726   9.7889
    10.2073  10.5503  10.7289  10.8942  11.3921  11.4031  11.7977  11.8874
    12.7654  12.8101  13.2495  13.3373  13.9497  14.3097  14.7495  14.9456
    15.2309  15.4561  15.7580  15.8598  16.0687  16.2063  16.4649  16.6852
    16.8915  16.9490  17.0470  17.2031  17.2898  17.3815  17.6760  17.9641
    18.1703  18.1931  18.3785  18.5631  18.6306  18.8459  18.8959  19.0146
    19.1276  19.2191  19.3015  19.4767

     occupation numbers 
     1.0000   1.0000   1.0000   1.0000   1.0000   1.0000   1.0000   1.0000
     1.0000   1.0000   1.0000   1.0000   1.0000   1.0000   1.0000   1.0000
     1.0000   1.0000   1.0000   1.0000   1.0000   1.0000   1.0000   1.0000
     1.0000   1.0000   1.0000   1.0000   1.0000   1.0000   1.0000   1.0000
     1.0000   1.0000   1.0000   1.0000   1.0000   1.0000   1.0000   0.0000
     0.0000   0.0000   0.0000   0.0000   0.0000   0.0000   0.0000   0.0000
     0.0000   0.0000   0.0000   0.0000   0.0000   0.0000   0.0000   0.0000
     0.0000   0.0000   0.0000   0.0000   0.0000   0.0000   0.0000   0.0000
     0.0000   0.0000   0.0000   0.0000   0.0000   0.0000   0.0000   0.0000
     0.0000   0.0000   0.0000   0.0000   0.0000   0.0000   0.0000   0.0000
     0.0000   0.0000   0.0000   0.0000   0.0000   0.0000   0.0000   0.0000
     0.0000   0.0000   0.0000   0.0000   0.0000   0.0000   0.0000   0.0000
     0.0000   0.0000   0.0000   0.0000

          k = 0.0769 0.1350 0.0000 ( 24189 PWs)   bands (ev):

   -36.5402 -36.5368 -36.5243 -36.5210 -36.4978 -36.4944 -36.4890 -36.4858
   -36.4727 -36.4694 -36.2336 -36.2282 -36.2246 -36.1939 -36.1931 -29.2160
   -29.2149 -29.2021 -29.2007 -29.1836 -29.1826 -29.1739 -29.1731 -29.1606
   -29.1593 -12.6813 -12.1360 -10.9535  -7.9446  -6.7056  -2.2095  -1.8222
    -1.5814  -1.3680  -0.9861  -0.7271  -0.1851   0.6620   0.7347   2.4215
     2.7354   2.9307   3.6841   3.9214   4.3059   6.4866   6.5766   7.4676
     7.6512   7.7118   8.7869   8.8438   9.0298   9.2455   9.4929   9.8841
    10.3551  10.6837  10.9614  11.3635  11.4149  11.7199  11.9273  12.1300
    12.9908  13.0976  13.4930  13.6020  13.7709  14.0752  14.2494  14.5551
    15.1686  15.3055  15.4939  15.5245  15.7168  15.7492  16.1593  16.7453
    16.8856  16.9738  17.1773  17.3168  17.4816  17.5583  17.6908  17.8660
    17.8850  18.0488  18.0763  18.1670  18.8725  19.3978  19.6430  19.7559
    19.8178  19.9168  19.9837  20.1056

     occupation numbers 
     1.0000   1.0000   1.0000   1.0000   1.0000   1.0000   1.0000   1.0000
     1.0000   1.0000   1.0000   1.0000   1.0000   1.0000   1.0000   1.0000
     1.0000   1.0000   1.0000   1.0000   1.0000   1.0000   1.0000   1.0000
     1.0000   1.0000   1.0000   1.0000   1.0000   1.0000   1.0000   1.0000
     1.0000   1.0000   1.0000   1.0000   1.0000   1.0000   1.0000   0.0000
     0.0000   0.0000   0.0000   0.0000   0.0000   0.0000   0.0000   0.0000
     0.0000   0.0000   0.0000   0.0000   0.0000   0.0000   0.0000   0.0000
     0.0000   0.0000   0.0000   0.0000   0.0000   0.0000   0.0000   0.0000
     0.0000   0.0000   0.0000   0.0000   0.0000   0.0000   0.0000   0.0000
     0.0000   0.0000   0.0000   0.0000   0.0000   0.0000   0.0000   0.0000
     0.0000   0.0000   0.0000   0.0000   0.0000   0.0000   0.0000   0.0000
     0.0000   0.0000   0.0000   0.0000   0.0000   0.0000   0.0000   0.0000
     0.0000   0.0000   0.0000   0.0000

          k = 0.0769 0.2256 0.0000 ( 24224 PWs)   bands (ev):

   -36.5270 -36.5235 -36.5220 -36.5187 -36.4872 -36.4837 -36.4807 -36.4776
   -36.4634 -36.4601 -36.2287 -36.2244 -36.2149 -36.1874 -36.1852 -29.2137
   -29.2125 -29.1994 -29.1979 -29.1882 -29.1871 -29.1777 -29.1763 -29.1716
   -29.1699 -12.4340 -11.9014 -10.8090  -8.0631  -7.1239  -2.8518  -2.4104
    -1.8693  -1.7378  -1.3379  -0.9312  -0.2114   0.3666   0.8696   2.5991
     2.8138   3.3673   3.9100   4.3565   4.7856   6.6861   6.7247   7.1874
     7.6516   7.9386   8.8013   8.9578   9.1302   9.3213   9.8938  10.1534
    10.4466  10.7395  11.3094  11.5117  11.8698  12.0157  12.4845  12.6573
    13.0120  13.2977  13.5236  13.6119  13.6890  13.9811  14.1929  14.4533
    14.5604  14.6795  15.0086  15.1384  15.9502  16.1009  16.1971  16.3353
    16.5212  16.7451  16.9454  17.1213  17.2395  17.4311  17.6350  18.0029
    18.4492  18.7114  18.9230  18.9545  19.0345  19.0850  19.2004  19.3910
    19.4849  19.7202  19.8227  19.9161

     occupation numbers 
     1.0000   1.0000   1.0000   1.0000   1.0000   1.0000   1.0000   1.0000
     1.0000   1.0000   1.0000   1.0000   1.0000   1.0000   1.0000   1.0000
     1.0000   1.0000   1.0000   1.0000   1.0000   1.0000   1.0000   1.0000
     1.0000   1.0000   1.0000   1.0000   1.0000   1.0000   1.0000   1.0000
     1.0000   1.0000   1.0000   1.0000   1.0000   1.0000   1.0000   0.0000
     0.0000   0.0000   0.0000   0.0000   0.0000   0.0000   0.0000   0.0000
     0.0000   0.0000   0.0000   0.0000   0.0000   0.0000   0.0000   0.0000
     0.0000   0.0000   0.0000   0.0000   0.0000   0.0000   0.0000   0.0000
     0.0000   0.0000   0.0000   0.0000   0.0000   0.0000   0.0000   0.0000
     0.0000   0.0000   0.0000   0.0000   0.0000   0.0000   0.0000   0.0000
     0.0000   0.0000   0.0000   0.0000   0.0000   0.0000   0.0000   0.0000
     0.0000   0.0000   0.0000   0.0000   0.0000   0.0000   0.0000   0.0000
     0.0000   0.0000   0.0000   0.0000

          k = 0.0769 0.3162 0.0000 ( 24264 PWs)   bands (ev):

   -36.5209 -36.5175 -36.5132 -36.5098 -36.4812 -36.4778 -36.4737 -36.4705
   -36.4581 -36.4548 -36.2248 -36.2219 -36.2053 -36.1793 -36.1751 -29.2107
   -29.2095 -29.2012 -29.2001 -29.1905 -29.1891 -29.1817 -29.1804 -29.1698
   -29.1681 -12.1004 -11.6120 -10.6565  -8.2734  -7.6219  -3.4910  -2.7718
    -2.2043  -2.0830  -1.7140  -1.0370  -0.2247  -0.0486   0.7925   2.7245
     2.9165   3.5012   4.2529   4.6294   5.2882   6.4188   7.0710   7.3176
     7.9477   8.3566   8.4927   9.2605   9.4625   9.9595  10.2386  10.4554
    10.6175  10.9016  11.5690  11.6215  11.9375  12.4498  12.7201  12.8607
    12.9752  13.1186  13.1841  13.2374  13.7251  14.0430  14.4186  14.5827
    14.7583  14.8874  15.1576  15.3771  15.6416  15.7995  16.0778  16.3191
    16.4281  16.7083  16.8008  16.8903  17.1137  17.4193  17.5403  17.8319
    18.2244  18.2664  18.5252  18.7118  19.0100  19.0959  19.2746  19.2876
    19.4886  19.8525  20.0460  20.1074

     occupation numbers 
     1.0000   1.0000   1.0000   1.0000   1.0000   1.0000   1.0000   1.0000
     1.0000   1.0000   1.0000   1.0000   1.0000   1.0000   1.0000   1.0000
     1.0000   1.0000   1.0000   1.0000   1.0000   1.0000   1.0000   1.0000
     1.0000   1.0000   1.0000   1.0000   1.0000   1.0000   1.0000   1.0000
     1.0000   1.0000   1.0000   1.0000   1.0000   1.0000   1.0000   0.0000
     0.0000   0.0000   0.0000   0.0000   0.0000   0.0000   0.0000   0.0000
     0.0000   0.0000   0.0000   0.0000   0.0000   0.0000   0.0000   0.0000
     0.0000   0.0000   0.0000   0.0000   0.0000   0.0000   0.0000   0.0000
     0.0000   0.0000   0.0000   0.0000   0.0000   0.0000   0.0000   0.0000
     0.0000   0.0000   0.0000   0.0000   0.0000   0.0000   0.0000   0.0000
     0.0000   0.0000   0.0000   0.0000   0.0000   0.0000   0.0000   0.0000
     0.0000   0.0000   0.0000   0.0000   0.0000   0.0000   0.0000   0.0000
     0.0000   0.0000   0.0000   0.0000

          k = 0.0769 0.4068 0.0000 ( 24275 PWs)   bands (ev):

   -36.5146 -36.5112 -36.5072 -36.5038 -36.4779 -36.4744 -36.4691 -36.4659
   -36.4557 -36.4524 -36.2232 -36.2217 -36.1992 -36.1730 -36.1664 -29.2097
   -29.2085 -29.2019 -29.2009 -29.1907 -29.1893 -29.1805 -29.1796 -29.1695
   -29.1675 -11.7001 -11.2885 -10.5607  -8.6071  -8.0843  -3.9713  -2.9332
    -2.6244  -2.3666  -1.8311  -1.2432  -0.3995  -0.1411   0.5869   2.7707
     2.9279   3.5229   4.4973   4.7913   5.6128   6.1273   7.4007   7.6589
     8.2172   8.7255   8.9537   9.6161   9.8233  10.1301  10.6379  10.7720
    10.9667  11.1529  11.6076  11.6500  11.7879  12.1673  12.3616  12.8838
    13.0640  13.3828  13.4965  13.7589  13.7678  13.9187  14.1543  14.2756
    14.3235  15.2624  15.4895  15.7955  15.8790  15.9571  16.0164  16.2955
    16.3493  16.5534  16.6515  16.7759  16.9895  17.1153  17.3440  17.5855
    17.8202  18.1142  18.3070  18.3752  18.6910  18.8479  18.9112  19.2600
    19.7625  19.8434  20.0014  20.1742

     occupation numbers 
     1.0000   1.0000   1.0000   1.0000   1.0000   1.0000   1.0000   1.0000
     1.0000   1.0000   1.0000   1.0000   1.0000   1.0000   1.0000   1.0000
     1.0000   1.0000   1.0000   1.0000   1.0000   1.0000   1.0000   1.0000
     1.0000   1.0000   1.0000   1.0000   1.0000   1.0000   1.0000   1.0000
     1.0000   1.0000   1.0000   1.0000   1.0000   1.0000   1.0000   0.0000
     0.0000   0.0000   0.0000   0.0000   0.0000   0.0000   0.0000   0.0000
     0.0000   0.0000   0.0000   0.0000   0.0000   0.0000   0.0000   0.0000
     0.0000   0.0000   0.0000   0.0000   0.0000   0.0000   0.0000   0.0000
     0.0000   0.0000   0.0000   0.0000   0.0000   0.0000   0.0000   0.0000
     0.0000   0.0000   0.0000   0.0000   0.0000   0.0000   0.0000   0.0000
     0.0000   0.0000   0.0000   0.0000   0.0000   0.0000   0.0000   0.0000
     0.0000   0.0000   0.0000   0.0000   0.0000   0.0000   0.0000   0.0000
     0.0000   0.0000   0.0000   0.0000

          k = 0.0769 0.4974 0.0000 ( 24291 PWs)   bands (ev):

   -36.5104 -36.5070 -36.5033 -36.4999 -36.4766 -36.4731 -36.4656 -36.4624
   -36.4562 -36.4528 -36.2227 -36.2223 -36.1965 -36.1690 -36.1610 -29.2092
   -29.2080 -29.2019 -29.2011 -29.1904 -29.1888 -29.1783 -29.1774 -29.1699
   -29.1676 -11.2663 -10.9961 -10.6009  -8.9653  -8.4146  -4.2656  -2.9492
    -2.8842  -2.5703  -1.9527  -1.4308  -0.4283  -0.1906   0.3926   2.8391
     2.8611   3.4466   4.6911   4.8308   5.7130   5.9661   7.5088   8.2150
     8.5268   9.2416   9.4558   9.4647  10.0367  10.2735  10.6602  10.8173
    11.2010  11.3328  11.7787  11.8971  12.0777  12.2916  12.4568  12.8403
    13.0162  13.0653  13.3478  13.4540  13.7081  14.0500  14.2252  14.5613
    14.6919  14.9990  15.2382  15.3939  15.5333  15.7215  15.9670  16.0685
    16.2757  16.3663  16.4124  16.8576  17.3122  17.4862  17.5363  17.7122
    17.8803  18.2544  18.3632  18.4304  18.6191  18.7983  18.9288  19.2680
    19.4828  19.6867  19.8036  20.1782

     occupation numbers 
     1.0000   1.0000   1.0000   1.0000   1.0000   1.0000   1.0000   1.0000
     1.0000   1.0000   1.0000   1.0000   1.0000   1.0000   1.0000   1.0000
     1.0000   1.0000   1.0000   1.0000   1.0000   1.0000   1.0000   1.0000
     1.0000   1.0000   1.0000   1.0000   1.0000   1.0000   1.0000   1.0000
     1.0000   1.0000   1.0000   1.0000   1.0000   1.0000   1.0000   0.0000
     0.0000   0.0000   0.0000   0.0000   0.0000   0.0000   0.0000   0.0000
     0.0000   0.0000   0.0000   0.0000   0.0000   0.0000   0.0000   0.0000
     0.0000   0.0000   0.0000   0.0000   0.0000   0.0000   0.0000   0.0000
     0.0000   0.0000   0.0000   0.0000   0.0000   0.0000   0.0000   0.0000
     0.0000   0.0000   0.0000   0.0000   0.0000   0.0000   0.0000   0.0000
     0.0000   0.0000   0.0000   0.0000   0.0000   0.0000   0.0000   0.0000
     0.0000   0.0000   0.0000   0.0000   0.0000   0.0000   0.0000   0.0000
     0.0000   0.0000   0.0000   0.0000

          k = 0.0769 0.5880 0.0000 ( 24285 PWs)   bands (ev):

   -36.5093 -36.5059 -36.5017 -36.4983 -36.4765 -36.4731 -36.4636 -36.4604
   -36.4571 -36.4538 -36.2233 -36.2224 -36.1957 -36.1675 -36.1592 -29.2089
   -29.2078 -29.2019 -29.2011 -29.1900 -29.1882 -29.1772 -29.1763 -29.1700
   -29.1676 -10.9104 -10.8769 -10.7913  -9.1264  -8.5402  -4.3666  -3.0195
    -2.8390  -2.6797  -2.0437  -1.4764  -0.3692  -0.2706   0.3219   2.8069
     2.8967   3.3890   4.7804   4.8097   5.7827   5.8338   7.5729   8.6656
     8.9181   8.9708   9.1246   9.9442  10.0262  10.0488  10.7419  11.0941
    11.2744  11.4916  11.7340  12.0328  12.1594  12.2455  12.6255  12.7388
    12.9405  13.0547  13.3202  13.6315  13.8505  14.1780  14.4987  14.5669
    14.7465  14.8837  14.9152  14.9895  15.2885  15.4490  15.7085  15.9421
    16.1725  16.3364  16.6118  16.7638  17.0200  17.5169  17.5281  17.7685
    18.2510  18.4988  18.5575  18.8119  18.8530  18.9575  19.1010  19.4865
    19.5280  19.6975  19.7820  19.8614

     occupation numbers 
     1.0000   1.0000   1.0000   1.0000   1.0000   1.0000   1.0000   1.0000
     1.0000   1.0000   1.0000   1.0000   1.0000   1.0000   1.0000   1.0000
     1.0000   1.0000   1.0000   1.0000   1.0000   1.0000   1.0000   1.0000
     1.0000   1.0000   1.0000   1.0000   1.0000   1.0000   1.0000   1.0000
     1.0000   1.0000   1.0000   1.0000   1.0000   1.0000   1.0000   0.0000
     0.0000   0.0000   0.0000   0.0000   0.0000   0.0000   0.0000   0.0000
     0.0000   0.0000   0.0000   0.0000   0.0000   0.0000   0.0000   0.0000
     0.0000   0.0000   0.0000   0.0000   0.0000   0.0000   0.0000   0.0000
     0.0000   0.0000   0.0000   0.0000   0.0000   0.0000   0.0000   0.0000
     0.0000   0.0000   0.0000   0.0000   0.0000   0.0000   0.0000   0.0000
     0.0000   0.0000   0.0000   0.0000   0.0000   0.0000   0.0000   0.0000
     0.0000   0.0000   0.0000   0.0000   0.0000   0.0000   0.0000   0.0000
     0.0000   0.0000   0.0000   0.0000

          k = 0.0769-0.4992 0.0000 ( 24292 PWs)   bands (ev):

   -36.5105 -36.5071 -36.5033 -36.5000 -36.4773 -36.4739 -36.4650 -36.4618
   -36.4562 -36.4528 -36.2240 -36.2222 -36.1960 -36.1687 -36.1610 -29.2093
   -29.2082 -29.2020 -29.2012 -29.1900 -29.1883 -29.1787 -29.1777 -29.1694
   -29.1672 -11.2590 -10.9914 -10.6036  -8.9683  -8.4126  -4.2690  -2.9426
    -2.9057  -2.5484  -1.9702  -1.4150  -0.4210  -0.2110   0.3915   2.8302
     2.8612   3.4300   4.6925   4.8091   5.7019   5.9520   7.5007   8.2239
     8.5400   9.2171   9.3897   9.4399  10.0081  10.1962  10.6429  10.7671
    11.1190  11.3373  11.8210  11.9725  12.1799  12.3319  12.5355  12.8507
    13.0761  13.2437  13.4104  13.5360  13.7762  14.0613  14.2845  14.4859
    14.7371  15.0021  15.2268  15.3934  15.4338  15.7352  15.9101  16.0826
    16.1549  16.3946  16.4515  16.8021  17.2179  17.4109  17.4764  17.7894
    17.9260  18.2282  18.3914  18.4268  18.5334  18.8312  19.0105  19.2858
    19.4712  19.6521  19.8822  20.1253

     occupation numbers 
     1.0000   1.0000   1.0000   1.0000   1.0000   1.0000   1.0000   1.0000
     1.0000   1.0000   1.0000   1.0000   1.0000   1.0000   1.0000   1.0000
     1.0000   1.0000   1.0000   1.0000   1.0000   1.0000   1.0000   1.0000
     1.0000   1.0000   1.0000   1.0000   1.0000   1.0000   1.0000   1.0000
     1.0000   1.0000   1.0000   1.0000   1.0000   1.0000   1.0000   0.0000
     0.0000   0.0000   0.0000   0.0000   0.0000   0.0000   0.0000   0.0000
     0.0000   0.0000   0.0000   0.0000   0.0000   0.0000   0.0000   0.0000
     0.0000   0.0000   0.0000   0.0000   0.0000   0.0000   0.0000   0.0000
     0.0000   0.0000   0.0000   0.0000   0.0000   0.0000   0.0000   0.0000
     0.0000   0.0000   0.0000   0.0000   0.0000   0.0000   0.0000   0.0000
     0.0000   0.0000   0.0000   0.0000   0.0000   0.0000   0.0000   0.0000
     0.0000   0.0000   0.0000   0.0000   0.0000   0.0000   0.0000   0.0000
     0.0000   0.0000   0.0000   0.0000

          k = 0.0769-0.4086 0.0000 ( 24291 PWs)   bands (ev):

   -36.5150 -36.5116 -36.5067 -36.5034 -36.4789 -36.4755 -36.4687 -36.4653
   -36.4556 -36.4523 -36.2249 -36.2220 -36.1980 -36.1724 -36.1664 -29.2101
   -29.2089 -29.2021 -29.2012 -29.1902 -29.1885 -29.1813 -29.1803 -29.1689
   -29.1670 -11.6934 -11.2822 -10.5593  -8.6096  -8.0790  -3.9779  -2.9458
    -2.6265  -2.3402  -1.8551  -1.2176  -0.3967  -0.1704   0.5752   2.7794
     2.9042   3.4820   4.4743   4.7885   5.5867   6.1070   7.3927   7.6641
     8.2107   8.6544   8.8874   9.5644   9.8249  10.1084  10.6275  10.8571
    10.9516  11.2737  11.6111  11.6835  11.7962  12.1973  12.4000  12.9027
    13.0875  13.4109  13.5129  13.7738  13.7996  13.9418  14.1867  14.2988
    14.3573  15.2556  15.5153  15.9265  15.9547  16.0334  16.1210  16.3079
    16.3860  16.4911  16.6880  16.7829  16.9641  17.0830  17.3876  17.4698
    17.8161  17.8925  18.2843  18.3797  18.6586  18.8180  18.8895  19.2783
    19.6497  19.8884  19.9206  20.2792

     occupation numbers 
     1.0000   1.0000   1.0000   1.0000   1.0000   1.0000   1.0000   1.0000
     1.0000   1.0000   1.0000   1.0000   1.0000   1.0000   1.0000   1.0000
     1.0000   1.0000   1.0000   1.0000   1.0000   1.0000   1.0000   1.0000
     1.0000   1.0000   1.0000   1.0000   1.0000   1.0000   1.0000   1.0000
     1.0000   1.0000   1.0000   1.0000   1.0000   1.0000   1.0000   0.0000
     0.0000   0.0000   0.0000   0.0000   0.0000   0.0000   0.0000   0.0000
     0.0000   0.0000   0.0000   0.0000   0.0000   0.0000   0.0000   0.0000
     0.0000   0.0000   0.0000   0.0000   0.0000   0.0000   0.0000   0.0000
     0.0000   0.0000   0.0000   0.0000   0.0000   0.0000   0.0000   0.0000
     0.0000   0.0000   0.0000   0.0000   0.0000   0.0000   0.0000   0.0000
     0.0000   0.0000   0.0000   0.0000   0.0000   0.0000   0.0000   0.0000
     0.0000   0.0000   0.0000   0.0000   0.0000   0.0000   0.0000   0.0000
     0.0000   0.0000   0.0000   0.0000

          k = 0.0769-0.3180 0.0000 ( 24268 PWs)   bands (ev):

   -36.5211 -36.5177 -36.5123 -36.5090 -36.4821 -36.4786 -36.4735 -36.4701
   -36.4581 -36.4548 -36.2266 -36.2222 -36.2034 -36.1784 -36.1748 -29.2116
   -29.2103 -29.2016 -29.2005 -29.1899 -29.1883 -29.1825 -29.1812 -29.1694
   -29.1677 -12.0947 -11.6060 -10.6519  -8.2723  -7.6133  -3.5011  -2.7740
    -2.2165  -2.0579  -1.7270  -1.0050  -0.2576  -0.0669   0.7687   2.6999
     2.9019   3.4647   4.1978   4.6568   5.2679   6.3948   7.0702   7.3139
     7.8979   8.3283   8.4695   9.2212   9.4739  10.0891  10.2804  10.4606
    10.6306  10.9215  11.6155  11.6506  11.9041  12.4326  12.7119  12.8650
    12.9651  13.0806  13.1800  13.3072  13.7382  14.0784  14.4783  14.5891
    14.7913  14.8992  15.1037  15.4387  15.6069  15.8406  16.1117  16.2873
    16.4850  16.6723  16.8508  17.1070  17.1146  17.4482  17.7597  17.8473
    18.2168  18.3114  18.5362  18.6788  18.8743  18.9812  19.1942  19.3330
    19.6216  19.6623  19.7856  19.9316

     occupation numbers 
     1.0000   1.0000   1.0000   1.0000   1.0000   1.0000   1.0000   1.0000
     1.0000   1.0000   1.0000   1.0000   1.0000   1.0000   1.0000   1.0000
     1.0000   1.0000   1.0000   1.0000   1.0000   1.0000   1.0000   1.0000
     1.0000   1.0000   1.0000   1.0000   1.0000   1.0000   1.0000   1.0000
     1.0000   1.0000   1.0000   1.0000   1.0000   1.0000   1.0000   0.0000
     0.0000   0.0000   0.0000   0.0000   0.0000   0.0000   0.0000   0.0000
     0.0000   0.0000   0.0000   0.0000   0.0000   0.0000   0.0000   0.0000
     0.0000   0.0000   0.0000   0.0000   0.0000   0.0000   0.0000   0.0000
     0.0000   0.0000   0.0000   0.0000   0.0000   0.0000   0.0000   0.0000
     0.0000   0.0000   0.0000   0.0000   0.0000   0.0000   0.0000   0.0000
     0.0000   0.0000   0.0000   0.0000   0.0000   0.0000   0.0000   0.0000
     0.0000   0.0000   0.0000   0.0000   0.0000   0.0000   0.0000   0.0000
     0.0000   0.0000   0.0000   0.0000

          k = 0.0769-0.2274 0.0000 ( 24219 PWs)   bands (ev):

   -36.5268 -36.5234 -36.5214 -36.5181 -36.4885 -36.4851 -36.4797 -36.4763
   -36.4636 -36.4603 -36.2297 -36.2244 -36.2131 -36.1870 -36.1850 -29.2146
   -29.2133 -29.1995 -29.1980 -29.1876 -29.1864 -29.1782 -29.1768 -29.1712
   -29.1695 -12.4297 -11.8968 -10.8035  -8.0585  -7.1126  -2.8590  -2.4008
    -1.8834  -1.7140  -1.3524  -0.9120  -0.2423   0.3236   0.8525   2.5132
     2.8081   3.3927   3.8346   4.4108   4.7767   6.6745   6.7286   7.1665
     7.6242   7.9348   8.7972   8.9445   9.1603   9.3790   9.9296  10.1633
    10.4088  10.7581  11.2910  11.5465  11.8802  12.0127  12.5149  12.6430
    13.0096  13.3134  13.5640  13.6289  13.6545  13.9930  14.1919  14.4798
    14.6230  14.7696  15.0451  15.1162  15.8936  16.0589  16.1869  16.3139
    16.5660  16.7673  16.9568  17.0883  17.2084  17.3886  17.6652  17.8330
    18.5860  18.6206  18.8145  18.8947  19.0310  19.1304  19.3619  19.4750
    19.5191  19.8408  19.8630  19.9489

     occupation numbers 
     1.0000   1.0000   1.0000   1.0000   1.0000   1.0000   1.0000   1.0000
     1.0000   1.0000   1.0000   1.0000   1.0000   1.0000   1.0000   1.0000
     1.0000   1.0000   1.0000   1.0000   1.0000   1.0000   1.0000   1.0000
     1.0000   1.0000   1.0000   1.0000   1.0000   1.0000   1.0000   1.0000
     1.0000   1.0000   1.0000   1.0000   1.0000   1.0000   1.0000   0.0000
     0.0000   0.0000   0.0000   0.0000   0.0000   0.0000   0.0000   0.0000
     0.0000   0.0000   0.0000   0.0000   0.0000   0.0000   0.0000   0.0000
     0.0000   0.0000   0.0000   0.0000   0.0000   0.0000   0.0000   0.0000
     0.0000   0.0000   0.0000   0.0000   0.0000   0.0000   0.0000   0.0000
     0.0000   0.0000   0.0000   0.0000   0.0000   0.0000   0.0000   0.0000
     0.0000   0.0000   0.0000   0.0000   0.0000   0.0000   0.0000   0.0000
     0.0000   0.0000   0.0000   0.0000   0.0000   0.0000   0.0000   0.0000
     0.0000   0.0000   0.0000   0.0000

          k = 0.0769-0.1368 0.0000 ( 24184 PWs)   bands (ev):

   -36.5396 -36.5362 -36.5227 -36.5194 -36.4986 -36.4952 -36.4886 -36.4853
   -36.4730 -36.4696 -36.2344 -36.2277 -36.2221 -36.1933 -36.1926 -29.2167
   -29.2155 -29.2025 -29.2010 -29.1832 -29.1823 -29.1742 -29.1734 -29.1613
   -29.1600 -12.6785 -12.1336 -10.9471  -7.9395  -6.6939  -2.1855  -1.8204
    -1.5496  -1.3864  -1.0188  -0.7334  -0.2235   0.6400   0.7141   2.3282
     2.7952   2.8844   3.6550   3.9919   4.3069   6.4896   6.5784   7.4434
     7.6726   7.7119   8.8022   8.8531   8.9894   9.2688   9.4926   9.8986
    10.2838  10.6738  10.9595  11.4006  11.4171  11.7561  11.9580  12.1989
    12.9903  13.0558  13.4397  13.6710  13.7882  14.0765  14.3172  14.5316
    15.2734  15.3195  15.4682  15.5790  15.7139  15.7255  16.1478  16.6266
    16.8242  16.9953  17.2463  17.3631  17.3807  17.4847  17.6471  17.7439
    17.8519  17.9301  17.9777  18.2162  18.9994  19.4171  19.6225  19.6704
    19.7030  19.8244  20.1553  20.1798

     occupation numbers 
     1.0000   1.0000   1.0000   1.0000   1.0000   1.0000   1.0000   1.0000
     1.0000   1.0000   1.0000   1.0000   1.0000   1.0000   1.0000   1.0000
     1.0000   1.0000   1.0000   1.0000   1.0000   1.0000   1.0000   1.0000
     1.0000   1.0000   1.0000   1.0000   1.0000   1.0000   1.0000   1.0000
     1.0000   1.0000   1.0000   1.0000   1.0000   1.0000   1.0000   0.0000
     0.0000   0.0000   0.0000   0.0000   0.0000   0.0000   0.0000   0.0000
     0.0000   0.0000   0.0000   0.0000   0.0000   0.0000   0.0000   0.0000
     0.0000   0.0000   0.0000   0.0000   0.0000   0.0000   0.0000   0.0000
     0.0000   0.0000   0.0000   0.0000   0.0000   0.0000   0.0000   0.0000
     0.0000   0.0000   0.0000   0.0000   0.0000   0.0000   0.0000   0.0000
     0.0000   0.0000   0.0000   0.0000   0.0000   0.0000   0.0000   0.0000
     0.0000   0.0000   0.0000   0.0000   0.0000   0.0000   0.0000   0.0000
     0.0000   0.0000   0.0000   0.0000

          k = 0.0769-0.0462 0.0000 ( 24165 PWs)   bands (ev):

   -36.5383 -36.5350 -36.5350 -36.5316 -36.5070 -36.5035 -36.4975 -36.4943
   -36.4790 -36.4756 -36.2373 -36.2286 -36.2256 -36.2006 -36.1981 -29.2137
   -29.2124 -29.2115 -29.2103 -29.1757 -29.1744 -29.1731 -29.1722 -29.1501
   -29.1490 -12.8177 -12.2840 -11.0347  -7.8743  -6.4484  -1.6627  -1.3654
    -1.3007  -1.0267  -0.9136  -0.5997  -0.0084   0.2702   0.7457   2.2438
     2.5554   2.6786   3.5339   3.6471   4.0146   6.3430   6.4795   7.4362
     7.7487   8.0363   8.5073   8.7676   9.0893   9.3002   9.5796   9.7266
    10.1953  10.4948  10.7730  10.9549  11.3944  11.4502  11.6975  11.9725
    12.7010  12.8203  13.3220  13.3383  14.0001  14.2025  14.8483  14.9643
    15.1194  15.5283  15.7637  15.9865  16.0004  16.2710  16.5219  16.5715
    16.8136  16.8630  17.0144  17.1287  17.2739  17.3130  17.7413  18.0360
    18.1974  18.2499  18.3399  18.5080  18.6315  18.7421  18.8642  19.0768
    19.1060  19.2695  19.3085  19.5610

     occupation numbers 
     1.0000   1.0000   1.0000   1.0000   1.0000   1.0000   1.0000   1.0000
     1.0000   1.0000   1.0000   1.0000   1.0000   1.0000   1.0000   1.0000
     1.0000   1.0000   1.0000   1.0000   1.0000   1.0000   1.0000   1.0000
     1.0000   1.0000   1.0000   1.0000   1.0000   1.0000   1.0000   1.0000
     1.0000   1.0000   1.0000   1.0000   1.0000   1.0000   1.0000   0.0000
     0.0000   0.0000   0.0000   0.0000   0.0000   0.0000   0.0000   0.0000
     0.0000   0.0000   0.0000   0.0000   0.0000   0.0000   0.0000   0.0000
     0.0000   0.0000   0.0000   0.0000   0.0000   0.0000   0.0000   0.0000
     0.0000   0.0000   0.0000   0.0000   0.0000   0.0000   0.0000   0.0000
     0.0000   0.0000   0.0000   0.0000   0.0000   0.0000   0.0000   0.0000
     0.0000   0.0000   0.0000   0.0000   0.0000   0.0000   0.0000   0.0000
     0.0000   0.0000   0.0000   0.0000   0.0000   0.0000   0.0000   0.0000
     0.0000   0.0000   0.0000   0.0000

          k = 0.1538 0.0888 0.0000 ( 24247 PWs)   bands (ev):

   -36.5310 -36.5277 -36.5247 -36.5214 -36.4913 -36.4879 -36.4869 -36.4836
   -36.4692 -36.4658 -36.2295 -36.2240 -36.2217 -36.1951 -36.1923 -29.2110
   -29.2097 -29.2093 -29.2081 -29.1885 -29.1868 -29.1764 -29.1754 -29.1680
   -29.1667 -12.6218 -12.0738 -10.9142  -7.9838  -6.8304  -2.5554  -1.8135
    -1.5915  -1.5373  -1.0893  -0.8625   0.1042   0.4091   0.8007   2.6084
     2.8067   3.0134   3.8641   3.9358   4.4087   6.5426   6.5876   7.2082
     7.7356   7.9333   8.7963   8.8699   8.9899   9.1633   9.9006   9.9475
    10.0692  10.7488  11.0223  11.2742  11.5977  12.0004  12.1287  12.2983
    12.8257  13.0981  13.2836  13.5634  13.7141  14.1976  14.3021  14.5608
    14.8161  14.9358  15.4152  15.6106  16.0821  16.1973  16.3320  16.3775
    16.4825  16.6700  16.8478  16.9319  17.1241  17.5785  18.0625  18.1923
    18.3241  18.4851  18.5925  18.6930  18.8080  19.2881  19.4461  19.4579
    19.6093  19.6805  19.8420  19.9933

     occupation numbers 
     1.0000   1.0000   1.0000   1.0000   1.0000   1.0000   1.0000   1.0000
     1.0000   1.0000   1.0000   1.0000   1.0000   1.0000   1.0000   1.0000
     1.0000   1.0000   1.0000   1.0000   1.0000   1.0000   1.0000   1.0000
     1.0000   1.0000   1.0000   1.0000   1.0000   1.0000   1.0000   1.0000
     1.0000   1.0000   1.0000   1.0000   1.0000   1.0000   1.0000   0.0000
     0.0000   0.0000   0.0000   0.0000   0.0000   0.0000   0.0000   0.0000
     0.0000   0.0000   0.0000   0.0000   0.0000   0.0000   0.0000   0.0000
     0.0000   0.0000   0.0000   0.0000   0.0000   0.0000   0.0000   0.0000
     0.0000   0.0000   0.0000   0.0000   0.0000   0.0000   0.0000   0.0000
     0.0000   0.0000   0.0000   0.0000   0.0000   0.0000   0.0000   0.0000
     0.0000   0.0000   0.0000   0.0000   0.0000   0.0000   0.0000   0.0000
     0.0000   0.0000   0.0000   0.0000   0.0000   0.0000   0.0000   0.0000
     0.0000   0.0000   0.0000   0.0000

          k = 0.1538 0.1794 0.0000 ( 24252 PWs)   bands (ev):

   -36.5296 -36.5263 -36.5225 -36.5191 -36.4877 -36.4842 -36.4806 -36.4775
   -36.4642 -36.4608 -36.2278 -36.2253 -36.2183 -36.1875 -36.1860 -29.2136
   -29.2124 -29.1986 -29.1971 -29.1882 -29.1871 -29.1783 -29.1769 -29.1686
   -29.1669 -12.4412 -11.9100 -10.8205  -8.0745  -7.1404  -2.9191  -2.3436
    -1.9470  -1.6124  -1.3589  -0.8713  -0.1705   0.3810   0.9043   2.5888
     2.9530   3.3354   3.8393   4.5109   4.6518   6.6610   6.7249   7.1530
     7.6717   7.9226   8.7302   8.9295   9.1567   9.5037   9.8845  10.1046
    10.5524  10.6721  11.2782  11.5421  11.8713  11.9439  12.5001  12.5996
    12.8422  13.2043  13.5420  13.6165  13.7708  13.9288  14.1290  14.4190
    14.5242  14.8777  15.0557  15.2465  15.8966  15.9545  16.2199  16.2866
    16.4769  16.9677  17.0867  17.2733  17.4068  17.4881  17.6296  17.8935
    18.4571  18.6555  18.7875  18.8325  18.9220  19.0048  19.1977  19.3542
    19.5099  19.7158  19.9633  20.0684

     occupation numbers 
     1.0000   1.0000   1.0000   1.0000   1.0000   1.0000   1.0000   1.0000
     1.0000   1.0000   1.0000   1.0000   1.0000   1.0000   1.0000   1.0000
     1.0000   1.0000   1.0000   1.0000   1.0000   1.0000   1.0000   1.0000
     1.0000   1.0000   1.0000   1.0000   1.0000   1.0000   1.0000   1.0000
     1.0000   1.0000   1.0000   1.0000   1.0000   1.0000   1.0000   0.0000
     0.0000   0.0000   0.0000   0.0000   0.0000   0.0000   0.0000   0.0000
     0.0000   0.0000   0.0000   0.0000   0.0000   0.0000   0.0000   0.0000
     0.0000   0.0000   0.0000   0.0000   0.0000   0.0000   0.0000   0.0000
     0.0000   0.0000   0.0000   0.0000   0.0000   0.0000   0.0000   0.0000
     0.0000   0.0000   0.0000   0.0000   0.0000   0.0000   0.0000   0.0000
     0.0000   0.0000   0.0000   0.0000   0.0000   0.0000   0.0000   0.0000
     0.0000   0.0000   0.0000   0.0000   0.0000   0.0000   0.0000   0.0000
     0.0000   0.0000   0.0000   0.0000

          k = 0.1538 0.2700 0.0000 ( 24267 PWs)   bands (ev):

   -36.5235 -36.5200 -36.5185 -36.5152 -36.4816 -36.4780 -36.4736 -36.4704
   -36.4530 -36.4498 -36.2274 -36.2259 -36.2110 -36.1762 -36.1741 -29.2109
   -29.2097 -29.1998 -29.1983 -29.1901 -29.1891 -29.1804 -29.1786 -29.1773
   -29.1760 -12.1579 -11.6543 -10.6839  -8.2380  -7.5787  -3.1749  -3.0792
    -2.1810  -1.9494  -1.6456  -1.2121  -0.1727   0.4850   0.6384   2.7142
     3.2479   3.3275   4.0515   4.9224   5.0485   6.8722   6.8964   7.2297
     7.5169   8.2229   8.4269   8.9276   9.4775  10.0636  10.3136  10.4270
    10.5919  11.1169  11.4584  11.5409  12.2122  12.4486  12.7086  12.7146
    12.7974  13.0887  13.2613  13.5283  13.6983  13.7842  13.8039  14.3856
    14.7448  14.9737  15.2890  15.4140  15.6516  15.7551  15.9119  16.1062
    16.6247  16.7355  17.0554  17.1889  17.3221  17.6142  18.0586  18.1822
    18.2477  18.3839  18.4417  18.5636  18.6503  18.8702  18.9443  19.0012
    19.3569  19.9171  20.2082  20.4166

     occupation numbers 
     1.0000   1.0000   1.0000   1.0000   1.0000   1.0000   1.0000   1.0000
     1.0000   1.0000   1.0000   1.0000   1.0000   1.0000   1.0000   1.0000
     1.0000   1.0000   1.0000   1.0000   1.0000   1.0000   1.0000   1.0000
     1.0000   1.0000   1.0000   1.0000   1.0000   1.0000   1.0000   1.0000
     1.0000   1.0000   1.0000   1.0000   1.0000   1.0000   1.0000   0.0000
     0.0000   0.0000   0.0000   0.0000   0.0000   0.0000   0.0000   0.0000
     0.0000   0.0000   0.0000   0.0000   0.0000   0.0000   0.0000   0.0000
     0.0000   0.0000   0.0000   0.0000   0.0000   0.0000   0.0000   0.0000
     0.0000   0.0000   0.0000   0.0000   0.0000   0.0000   0.0000   0.0000
     0.0000   0.0000   0.0000   0.0000   0.0000   0.0000   0.0000   0.0000
     0.0000   0.0000   0.0000   0.0000   0.0000   0.0000   0.0000   0.0000
     0.0000   0.0000   0.0000   0.0000   0.0000   0.0000   0.0000   0.0000
     0.0000   0.0000   0.0000   0.0000

          k = 0.1538 0.3606 0.0000 ( 24275 PWs)   bands (ev):

   -36.5160 -36.5126 -36.5105 -36.5072 -36.4801 -36.4766 -36.4693 -36.4661
   -36.4522 -36.4489 -36.2254 -36.2242 -36.2062 -36.1711 -36.1680 -29.2064
   -29.2053 -29.1986 -29.1975 -29.1895 -29.1881 -29.1820 -29.1804 -29.1760
   -29.1743 -11.7990 -11.3540 -10.5679  -8.4853  -8.0631  -3.6570  -3.2888
    -2.5346  -2.2844  -1.9199  -1.4175  -0.1524   0.1394   0.6091   2.7837
     3.3130   3.4361   4.3618   5.0600   5.4275   6.6544   7.3044   7.5707
     7.8265   8.2841   8.6633   9.1324   9.7264  10.0143  10.6570  10.7587
    11.0774  11.3716  11.5178  12.0681  12.1389  12.2591  12.5423  12.7773
    12.8760  13.0425  13.1952  13.3981  13.4643  13.6620  14.4002  14.4902
    14.6204  14.8785  15.0795  15.3747  15.5414  15.8223  15.9552  16.3377
    16.5253  16.7300  17.0648  17.1564  17.3672  17.5175  17.7621  17.9237
    18.0502  18.1163  18.1549  18.4555  18.7736  19.2797  19.6216  19.7459
    19.7937  19.8677  19.9991  20.1228

     occupation numbers 
     1.0000   1.0000   1.0000   1.0000   1.0000   1.0000   1.0000   1.0000
     1.0000   1.0000   1.0000   1.0000   1.0000   1.0000   1.0000   1.0000
     1.0000   1.0000   1.0000   1.0000   1.0000   1.0000   1.0000   1.0000
     1.0000   1.0000   1.0000   1.0000   1.0000   1.0000   1.0000   1.0000
     1.0000   1.0000   1.0000   1.0000   1.0000   1.0000   1.0000   0.0000
     0.0000   0.0000   0.0000   0.0000   0.0000   0.0000   0.0000   0.0000
     0.0000   0.0000   0.0000   0.0000   0.0000   0.0000   0.0000   0.0000
     0.0000   0.0000   0.0000   0.0000   0.0000   0.0000   0.0000   0.0000
     0.0000   0.0000   0.0000   0.0000   0.0000   0.0000   0.0000   0.0000
     0.0000   0.0000   0.0000   0.0000   0.0000   0.0000   0.0000   0.0000
     0.0000   0.0000   0.0000   0.0000   0.0000   0.0000   0.0000   0.0000
     0.0000   0.0000   0.0000   0.0000   0.0000   0.0000   0.0000   0.0000
     0.0000   0.0000   0.0000   0.0000

          k = 0.1538 0.4512 0.0000 ( 24292 PWs)   bands (ev):

   -36.5113 -36.5079 -36.5067 -36.5033 -36.4786 -36.4751 -36.4641 -36.4609
   -36.4551 -36.4518 -36.2247 -36.2217 -36.2033 -36.1687 -36.1643 -29.2039
   -29.2028 -29.1976 -29.1967 -29.1885 -29.1875 -29.1794 -29.1785 -29.1717
   -29.1698 -11.3848 -11.0458 -10.5237  -8.8236  -8.4736  -4.0419  -3.3190
    -2.7797  -2.6695  -1.9878  -1.5823  -0.3430  -0.0050   0.5790   2.7356
     3.3226   3.5508   4.5336   5.1257   5.6743   6.4220   7.6344   8.0001
     8.4102   8.5431   9.1861   9.3281   9.9491  10.0743  10.4531  10.8121
    11.1552  11.3495  11.6032  11.7761  12.0298  12.3002  12.6017  12.8336
    12.9125  13.1493  13.2717  13.4449  13.5851  13.8368  14.0573  14.1992
    14.5832  14.7230  14.9558  15.4584  15.7126  16.0440  16.1778  16.3048
    16.7458  16.7847  17.2183  17.3235  17.3490  17.6319  17.7401  17.7520
    18.0480  18.3384  18.3695  18.6167  18.6925  18.9039  19.3963  19.5814
[...]
     1.0000   1.0000   1.0000   1.0000   1.0000   1.0000   1.0000   1.0000
     1.0000   1.0000   1.0000   1.0000   1.0000   1.0000   1.0000   0.0000
     0.0000   0.0000   0.0000   0.0000   0.0000   0.0000   0.0000   0.0000
     0.0000   0.0000   0.0000   0.0000   0.0000   0.0000   0.0000   0.0000
     0.0000   0.0000   0.0000   0.0000   0.0000   0.0000   0.0000   0.0000
     0.0000   0.0000   0.0000   0.0000   0.0000   0.0000   0.0000   0.0000
     0.0000   0.0000   0.0000   0.0000   0.0000   0.0000   0.0000   0.0000
     0.0000   0.0000   0.0000   0.0000   0.0000   0.0000   0.0000   0.0000
     0.0000   0.0000   0.0000   0.0000   0.0000   0.0000   0.0000   0.0000
     0.0000   0.0000   0.0000   0.0000

          k = 0.4615 0.7195 0.0000 ( 24282 PWs)   bands (ev):

   -36.5221 -36.5161 -36.4938 -36.4878 -36.4861 -36.4737 -36.4664 -36.4581
   -36.4461 -36.4386 -36.2318 -36.2256 -36.2126 -36.1748 -36.1706 -29.2152
   -29.2106 -29.2024 -29.2015 -29.1975 -29.1911 -29.1884 -29.1828 -29.1776
   -29.1696 -11.0079 -10.8518 -10.6472  -9.1251  -8.7074  -4.2282  -3.2755
    -3.1048  -2.6077  -1.9749  -1.8117  -0.3874  -0.0149   0.5672   2.8669
     3.3794   3.4588   4.7419   5.2015   5.7679   6.3303   7.7139   8.5020
     8.7756   9.0966   9.2730   9.6412   9.8901  10.1069  10.5034  10.6087
    10.7773  10.9667  11.2948  11.8380  11.9588  12.2534  12.3921  12.6711
    12.7509  13.0308  13.4378  13.5117  13.6509  14.0963  14.4714  14.5766
    14.6370  14.8978  15.2155  15.3169  15.6084  15.7948  16.0148  16.3682
    16.5379  16.6668  17.2899  17.3678  17.4341  17.5344  17.8197  17.8884
    18.1794  18.4043  18.5356  18.6246  18.9065  19.1133  19.2549  19.3020
    19.4482  19.6654  19.8830  20.1935

     occupation numbers 
     1.0000   1.0000   1.0000   1.0000   1.0000   1.0000   1.0000   1.0000
     1.0000   1.0000   1.0000   1.0000   1.0000   1.0000   1.0000   1.0000
     1.0000   1.0000   1.0000   1.0000   1.0000   1.0000   1.0000   1.0000
     1.0000   1.0000   1.0000   1.0000   1.0000   1.0000   1.0000   1.0000
     1.0000   1.0000   1.0000   1.0000   1.0000   1.0000   1.0000   0.0000
     0.0000   0.0000   0.0000   0.0000   0.0000   0.0000   0.0000   0.0000
     0.0000   0.0000   0.0000   0.0000   0.0000   0.0000   0.0000   0.0000
     0.0000   0.0000   0.0000   0.0000   0.0000   0.0000   0.0000   0.0000
     0.0000   0.0000   0.0000   0.0000   0.0000   0.0000   0.0000   0.0000
     0.0000   0.0000   0.0000   0.0000   0.0000   0.0000   0.0000   0.0000
     0.0000   0.0000   0.0000   0.0000   0.0000   0.0000   0.0000   0.0000
     0.0000   0.0000   0.0000   0.0000   0.0000   0.0000   0.0000   0.0000
     0.0000   0.0000   0.0000   0.0000

          k = 0.4615 0.8101 0.0000 ( 24295 PWs)   bands (ev):

   -36.5220 -36.5137 -36.4937 -36.4863 -36.4855 -36.4761 -36.4685 -36.4584
   -36.4484 -36.4407 -36.2313 -36.2287 -36.2069 -36.1760 -36.1692 -29.2207
   -29.2147 -29.2076 -29.2029 -29.2015 -29.1912 -29.1893 -29.1806 -29.1776
   -29.1673 -10.9514 -10.9114 -10.8178  -9.1473  -8.5427  -4.3640  -2.9758
    -2.8653  -2.6330  -2.0092  -1.4487  -0.3515  -0.2196   0.4054   2.8979
     2.9671   3.4090   4.7897   4.8972   5.7903   5.8464   7.5408   8.6190
     8.8871   8.9432   9.0816   9.9000   9.9833  10.0362  10.6964  10.9662
    11.2649  11.4747  11.7636  12.0208  12.1230  12.2764  12.6445  12.7783
    12.8747  13.0054  13.4034  13.5883  13.9632  14.1766  14.4884  14.5717
    14.7008  14.8932  14.9224  14.9622  15.3656  15.4396  15.7504  16.0465
    16.2346  16.3627  16.5853  16.7712  17.0279  17.4566  17.4914  17.7834
    18.1872  18.5155  18.6155  18.7648  18.8285  18.8766  19.0061  19.4028
    19.4607  19.5945  19.6833  19.7838

     occupation numbers 
     1.0000   1.0000   1.0000   1.0000   1.0000   1.0000   1.0000   1.0000
     1.0000   1.0000   1.0000   1.0000   1.0000   1.0000   1.0000   1.0000
     1.0000   1.0000   1.0000   1.0000   1.0000   1.0000   1.0000   1.0000
     1.0000   1.0000   1.0000   1.0000   1.0000   1.0000   1.0000   1.0000
     1.0000   1.0000   1.0000   1.0000   1.0000   1.0000   1.0000   0.0000
     0.0000   0.0000   0.0000   0.0000   0.0000   0.0000   0.0000   0.0000
     0.0000   0.0000   0.0000   0.0000   0.0000   0.0000   0.0000   0.0000
     0.0000   0.0000   0.0000   0.0000   0.0000   0.0000   0.0000   0.0000
     0.0000   0.0000   0.0000   0.0000   0.0000   0.0000   0.0000   0.0000
     0.0000   0.0000   0.0000   0.0000   0.0000   0.0000   0.0000   0.0000
     0.0000   0.0000   0.0000   0.0000   0.0000   0.0000   0.0000   0.0000
     0.0000   0.0000   0.0000   0.0000   0.0000   0.0000   0.0000   0.0000
     0.0000   0.0000   0.0000   0.0000

          k = 0.4615-0.2771 0.0000 ( 24291 PWs)   bands (ev):

   -36.5233 -36.5143 -36.4950 -36.4876 -36.4861 -36.4760 -36.4678 -36.4597
   -36.4484 -36.4401 -36.2317 -36.2297 -36.2043 -36.1789 -36.1703 -29.2220
   -29.2167 -29.2089 -29.2035 -29.2030 -29.1914 -29.1896 -29.1796 -29.1782
   -29.1664 -11.1253 -10.9650 -10.7555  -9.0959  -8.4356  -4.3757  -2.9150
    -2.6755  -2.6056  -1.9569  -1.3699  -0.3465  -0.1828   0.2470   2.6263
     3.1395   3.4153   4.6613   4.8582   5.6728   5.8293   7.4723   8.4343
     8.6993   9.0658   9.2775   9.6305  10.0194  10.2846  10.7291  11.1793
    11.3877  11.7025  11.7388  12.0942  12.1631  12.2754  12.4777  12.7706
    12.9746  13.2271  13.4177  13.6226  14.0624  14.2061  14.3939  14.5698
    14.6457  14.7780  14.8520  15.1094  15.3131  15.3977  15.5807  15.7705
    15.9592  16.1998  16.7149  16.9215  17.0477  17.2172  17.5270  17.7714
    18.0270  18.1255  18.2395  18.4632  18.7131  18.8976  18.9800  19.1704
    19.2627  19.9727  20.0050  20.0626

     occupation numbers 
     1.0000   1.0000   1.0000   1.0000   1.0000   1.0000   1.0000   1.0000
     1.0000   1.0000   1.0000   1.0000   1.0000   1.0000   1.0000   1.0000
     1.0000   1.0000   1.0000   1.0000   1.0000   1.0000   1.0000   1.0000
     1.0000   1.0000   1.0000   1.0000   1.0000   1.0000   1.0000   1.0000
     1.0000   1.0000   1.0000   1.0000   1.0000   1.0000   1.0000   0.0000
     0.0000   0.0000   0.0000   0.0000   0.0000   0.0000   0.0000   0.0000
     0.0000   0.0000   0.0000   0.0000   0.0000   0.0000   0.0000   0.0000
     0.0000   0.0000   0.0000   0.0000   0.0000   0.0000   0.0000   0.0000
     0.0000   0.0000   0.0000   0.0000   0.0000   0.0000   0.0000   0.0000
     0.0000   0.0000   0.0000   0.0000   0.0000   0.0000   0.0000   0.0000
     0.0000   0.0000   0.0000   0.0000   0.0000   0.0000   0.0000   0.0000
     0.0000   0.0000   0.0000   0.0000   0.0000   0.0000   0.0000   0.0000
     0.0000   0.0000   0.0000   0.0000

          k = 0.4615-0.1865 0.0000 ( 24268 PWs)   bands (ev):

   -36.5231 -36.5152 -36.4948 -36.4870 -36.4859 -36.4782 -36.4678 -36.4579
   -36.4505 -36.4401 -36.2303 -36.2284 -36.2081 -36.1775 -36.1709 -29.2209
   -29.2147 -29.2078 -29.2035 -29.2015 -29.1919 -29.1899 -29.1809 -29.1783
   -29.1676 -11.3003 -11.0286 -10.6296  -8.9881  -8.4212  -4.2636  -2.9675
    -2.8221  -2.5504  -1.9200  -1.4113  -0.4015  -0.1406   0.4725   2.8941
     2.9684   3.4697   4.7103   4.9102   5.7232   5.9808   7.4831   8.1819
     8.4945   9.2031   9.4396   9.4574  10.0065  10.3034  10.6257  10.7973
    11.2057  11.3313  11.7140  11.8556  12.0260  12.2960  12.4208  12.8258
    12.9601  12.9784  13.3585  13.4202  13.7532  14.0797  14.1658  14.5699
    14.6672  14.9802  15.2126  15.4348  15.5588  15.7168  15.9847  16.1256
    16.3124  16.4336  16.4916  16.8859  17.3007  17.4206  17.4785  17.6433
    17.8712  18.0882  18.3532  18.3838  18.6281  18.8154  18.8943  19.2644
    19.4395  19.6062  19.7226  20.1417

     occupation numbers 
     1.0000   1.0000   1.0000   1.0000   1.0000   1.0000   1.0000   1.0000
     1.0000   1.0000   1.0000   1.0000   1.0000   1.0000   1.0000   1.0000
     1.0000   1.0000   1.0000   1.0000   1.0000   1.0000   1.0000   1.0000
     1.0000   1.0000   1.0000   1.0000   1.0000   1.0000   1.0000   1.0000
     1.0000   1.0000   1.0000   1.0000   1.0000   1.0000   1.0000   0.0000
     0.0000   0.0000   0.0000   0.0000   0.0000   0.0000   0.0000   0.0000
     0.0000   0.0000   0.0000   0.0000   0.0000   0.0000   0.0000   0.0000
     0.0000   0.0000   0.0000   0.0000   0.0000   0.0000   0.0000   0.0000
     0.0000   0.0000   0.0000   0.0000   0.0000   0.0000   0.0000   0.0000
     0.0000   0.0000   0.0000   0.0000   0.0000   0.0000   0.0000   0.0000
     0.0000   0.0000   0.0000   0.0000   0.0000   0.0000   0.0000   0.0000
     0.0000   0.0000   0.0000   0.0000   0.0000   0.0000   0.0000   0.0000
     0.0000   0.0000   0.0000   0.0000

          k = 0.4615-0.0959 0.0000 ( 24293 PWs)   bands (ev):

   -36.5236 -36.5176 -36.4953 -36.4894 -36.4880 -36.4762 -36.4669 -36.4599
   -36.4486 -36.4392 -36.2323 -36.2266 -36.2151 -36.1769 -36.1733 -29.2153
   -29.2101 -29.2026 -29.2018 -29.1970 -29.1926 -29.1889 -29.1838 -29.1792
   -29.1706 -11.4144 -11.0722 -10.5435  -8.8399  -8.4784  -4.0371  -3.2989
    -2.7733  -2.6565  -1.9664  -1.5944  -0.3174   0.0381   0.6344   2.7976
     3.4060   3.5828   4.5659   5.1962   5.6898   6.4753   7.6351   7.9778
     8.3910   8.5921   9.1557   9.3260   9.9234  10.0822  10.4395  10.7800
    11.1442  11.3085  11.5481  11.7298  12.0252  12.2525  12.5319  12.8155
    12.9282  13.1233  13.2556  13.3634  13.5941  13.7732  14.0024  14.1912
    14.5676  14.6823  14.9438  15.4666  15.5049  16.0557  16.1165  16.2272
    16.7423  16.8977  17.1969  17.2477  17.3434  17.4694  17.8308  17.8614
    18.1125  18.3041  18.3553  18.6109  18.6855  18.9261  19.4032  19.4848
    19.6515  20.0081  20.1827  20.3463

     occupation numbers 
     1.0000   1.0000   1.0000   1.0000   1.0000   1.0000   1.0000   1.0000
     1.0000   1.0000   1.0000   1.0000   1.0000   1.0000   1.0000   1.0000
     1.0000   1.0000   1.0000   1.0000   1.0000   1.0000   1.0000   1.0000
     1.0000   1.0000   1.0000   1.0000   1.0000   1.0000   1.0000   1.0000
     1.0000   1.0000   1.0000   1.0000   1.0000   1.0000   1.0000   0.0000
     0.0000   0.0000   0.0000   0.0000   0.0000   0.0000   0.0000   0.0000
     0.0000   0.0000   0.0000   0.0000   0.0000   0.0000   0.0000   0.0000
     0.0000   0.0000   0.0000   0.0000   0.0000   0.0000   0.0000   0.0000
     0.0000   0.0000   0.0000   0.0000   0.0000   0.0000   0.0000   0.0000
     0.0000   0.0000   0.0000   0.0000   0.0000   0.0000   0.0000   0.0000
     0.0000   0.0000   0.0000   0.0000   0.0000   0.0000   0.0000   0.0000
     0.0000   0.0000   0.0000   0.0000   0.0000   0.0000   0.0000   0.0000
     0.0000   0.0000   0.0000   0.0000

          k = 0.4615-0.0053 0.0000 ( 24295 PWs)   bands (ev):

   -36.5263 -36.5103 -36.4981 -36.4866 -36.4821 -36.4779 -36.4653 -36.4586
   -36.4501 -36.4376 -36.2310 -36.2246 -36.2159 -36.1748 -36.1724 -29.2130
   -29.2102 -29.2015 -29.1999 -29.1970 -29.1949 -29.1935 -29.1882 -29.1817
   -29.1803 -11.4536 -11.0883 -10.5090  -8.7535  -8.5379  -3.7666  -3.6638
    -2.7356  -2.4403  -2.3223  -1.6035  -0.1943   0.2999   0.4394   3.1846
     3.2375   3.5924   4.7422   5.3015   5.5685   7.2473   7.3835   7.8276
     8.0016   8.4838   8.9322   9.1066   9.9021   9.9344  10.5951  10.8473
    11.0036  11.2402  11.6836  11.7846  11.8817  12.3981  12.4971  12.5883
    12.8779  13.0116  13.2268  13.5494  13.5964  14.0328  14.1861  14.2763
    14.3795  14.6067  14.6783  14.9208  15.4274  15.6172  16.1514  16.6055
    16.8194  17.0761  17.1377  17.2773  17.3142  17.7043  17.9479  18.1371
    18.3387  18.4041  18.7111  19.0285  19.2933  19.4218  19.4899  19.6438
    19.7299  19.8948  20.3232  20.3828

     occupation numbers 
     1.0000   1.0000   1.0000   1.0000   1.0000   1.0000   1.0000   1.0000
     1.0000   1.0000   1.0000   1.0000   1.0000   1.0000   1.0000   1.0000
     1.0000   1.0000   1.0000   1.0000   1.0000   1.0000   1.0000   1.0000
     1.0000   1.0000   1.0000   1.0000   1.0000   1.0000   1.0000   1.0000
     1.0000   1.0000   1.0000   1.0000   1.0000   1.0000   1.0000   0.0000
     0.0000   0.0000   0.0000   0.0000   0.0000   0.0000   0.0000   0.0000
     0.0000   0.0000   0.0000   0.0000   0.0000   0.0000   0.0000   0.0000
     0.0000   0.0000   0.0000   0.0000   0.0000   0.0000   0.0000   0.0000
     0.0000   0.0000   0.0000   0.0000   0.0000   0.0000   0.0000   0.0000
     0.0000   0.0000   0.0000   0.0000   0.0000   0.0000   0.0000   0.0000
     0.0000   0.0000   0.0000   0.0000   0.0000   0.0000   0.0000   0.0000
     0.0000   0.0000   0.0000   0.0000   0.0000   0.0000   0.0000   0.0000
     0.0000   0.0000   0.0000   0.0000

          k = 0.4615 0.0853 0.0000 ( 24293 PWs)   bands (ev):

   -36.5246 -36.5177 -36.4964 -36.4896 -36.4867 -36.4780 -36.4675 -36.4589
   -36.4501 -36.4398 -36.2325 -36.2250 -36.2176 -36.1769 -36.1736 -29.2143
   -29.2103 -29.2025 -29.2010 -29.1971 -29.1937 -29.1891 -29.1827 -29.1804
   -29.1694 -11.4264 -11.0886 -10.5609  -8.8569  -8.4729  -4.0381  -3.2895
    -2.7558  -2.6301  -1.9752  -1.5607  -0.2965   0.0560   0.6833   2.8688
     3.4613   3.5649   4.5930   5.2504   5.6725   6.5130   7.6209   7.9596
     8.3857   8.4974   9.1323   9.2676   9.8698  10.0862  10.4089  10.7380
    11.1554  11.2436  11.5621  11.6764  12.0757  12.3309  12.6276  12.8302
    13.0078  13.2152  13.3023  13.3600  13.5602  13.7673  13.9869  14.1663
    14.5481  14.7282  15.0097  15.4876  15.5127  15.9752  16.0907  16.1967
    16.6655  16.9996  17.1326  17.2440  17.3357  17.4626  17.8136  17.9241
    18.1317  18.3097  18.3765  18.5161  18.6053  18.7881  19.3268  19.4917
    19.5969  20.0477  20.0642  20.2835

     occupation numbers 
     1.0000   1.0000   1.0000   1.0000   1.0000   1.0000   1.0000   1.0000
     1.0000   1.0000   1.0000   1.0000   1.0000   1.0000   1.0000   1.0000
     1.0000   1.0000   1.0000   1.0000   1.0000   1.0000   1.0000   1.0000
     1.0000   1.0000   1.0000   1.0000   1.0000   1.0000   1.0000   1.0000
     1.0000   1.0000   1.0000   1.0000   1.0000   1.0000   1.0000   0.0000
     0.0000   0.0000   0.0000   0.0000   0.0000   0.0000   0.0000   0.0000
     0.0000   0.0000   0.0000   0.0000   0.0000   0.0000   0.0000   0.0000
     0.0000   0.0000   0.0000   0.0000   0.0000   0.0000   0.0000   0.0000
     0.0000   0.0000   0.0000   0.0000   0.0000   0.0000   0.0000   0.0000
     0.0000   0.0000   0.0000   0.0000   0.0000   0.0000   0.0000   0.0000
     0.0000   0.0000   0.0000   0.0000   0.0000   0.0000   0.0000   0.0000
     0.0000   0.0000   0.0000   0.0000   0.0000   0.0000   0.0000   0.0000
     0.0000   0.0000   0.0000   0.0000

          k = 0.4615 0.1759 0.0000 ( 24323 PWs)   bands (ev):

   -36.5248 -36.5164 -36.4967 -36.4882 -36.4845 -36.4802 -36.4683 -36.4566
   -36.4523 -36.4405 -36.2302 -36.2258 -36.2123 -36.1782 -36.1722 -29.2195
   -29.2148 -29.2064 -29.2035 -29.2016 -29.1928 -29.1901 -29.1794 -29.1790
   -29.1658 -11.3247 -11.0598 -10.6586  -9.0069  -8.4213  -4.2612  -2.9851
    -2.7762  -2.5027  -1.8862  -1.3788  -0.3667  -0.0991   0.5514   2.9662
     3.0629   3.4792   4.7310   4.9900   5.7320   5.9942   7.4551   8.1562
     8.4767   9.1501   9.3709   9.4180   9.9655  10.2431  10.5830  10.7301
    11.1239  11.3382  11.7300  11.9245  12.0802  12.3279  12.4199  12.8727
    12.9669  13.0291  13.3697  13.4828  13.8630  14.0965  14.1949  14.5495
    14.6685  14.9633  15.2465  15.4162  15.5397  15.6842  15.9328  16.1895
    16.3801  16.4217  16.5419  16.8537  17.2203  17.3380  17.3977  17.6457
    17.8058  17.9560  18.2953  18.3341  18.5207  18.8397  18.9788  19.2811
    19.3888  19.5766  19.6963  19.9983

     occupation numbers 
     1.0000   1.0000   1.0000   1.0000   1.0000   1.0000   1.0000   1.0000
     1.0000   1.0000   1.0000   1.0000   1.0000   1.0000   1.0000   1.0000
     1.0000   1.0000   1.0000   1.0000   1.0000   1.0000   1.0000   1.0000
     1.0000   1.0000   1.0000   1.0000   1.0000   1.0000   1.0000   1.0000
     1.0000   1.0000   1.0000   1.0000   1.0000   1.0000   1.0000   0.0000
     0.0000   0.0000   0.0000   0.0000   0.0000   0.0000   0.0000   0.0000
     0.0000   0.0000   0.0000   0.0000   0.0000   0.0000   0.0000   0.0000
     0.0000   0.0000   0.0000   0.0000   0.0000   0.0000   0.0000   0.0000
     0.0000   0.0000   0.0000   0.0000   0.0000   0.0000   0.0000   0.0000
     0.0000   0.0000   0.0000   0.0000   0.0000   0.0000   0.0000   0.0000
     0.0000   0.0000   0.0000   0.0000   0.0000   0.0000   0.0000   0.0000
     0.0000   0.0000   0.0000   0.0000   0.0000   0.0000   0.0000   0.0000
     0.0000   0.0000   0.0000   0.0000

     highest occupied, lowest unoccupied level (ev):     0.9202    2.1120

     Writing all to output data dir tmp/Sb2Te3-uatsx-c4-2.0.save/ :
     XML data file, pseudopotentials, collected wavefunctions

     init_run     :     12.42s CPU     12.89s WALL (       1 calls)
     electrons    :    822.50s CPU    830.41s WALL (       1 calls)

     Called by init_run:
     aceinit0     :     11.43s CPU     11.89s WALL (       1 calls)
     wfcinit      :      0.00s CPU      0.00s WALL (       1 calls)
     wfcinit:wfcr :      5.78s CPU      5.88s WALL (      86 calls)
     potinit      :      0.74s CPU      0.75s WALL (       1 calls)
     hinit0       :      0.15s CPU      0.16s WALL (       1 calls)

     Called by electrons:
     c_bands      :    256.23s CPU    258.64s WALL (       2 calls)
     sum_band     :      1.02s CPU      1.06s WALL (       1 calls)
     v_of_rho     :      0.02s CPU      0.02s WALL (       2 calls)
     v_h          :      0.00s CPU      0.00s WALL (       2 calls)
     v_xc         :      0.02s CPU      0.02s WALL (       2 calls)

     Called by c_bands:
     init_us_2    :      0.03s CPU      0.04s WALL (     129 calls)
     cegterg      :    231.98s CPU    234.23s WALL (     250 calls)

     Called by sum_band:
     sum_band:wei :      0.00s CPU      0.00s WALL (       1 calls)
     sum_band:loo :      1.01s CPU      1.05s WALL (       1 calls)
     sum_band:buf :      0.01s CPU      0.01s WALL (      43 calls)
     sum_band:ini :      0.01s CPU      0.01s WALL (      43 calls)

     Called by *egterg:
     cdiaghg      :     71.18s CPU     71.36s WALL (    4334 calls)
     cegterg:over :     16.53s CPU     16.63s WALL (    4248 calls)
     cegterg:upda :      3.97s CPU      4.00s WALL (    4248 calls)
     cegterg:last :      7.58s CPU      7.62s WALL (    2285 calls)
     h_psi        :    130.05s CPU    132.00s WALL (    4584 calls)
     g_psi        :      0.75s CPU      0.76s WALL (    4248 calls)

     Called by h_psi:
     h_psi:calbec :      6.63s CPU      6.69s WALL (    4584 calls)
     vloc_psi     :    110.87s CPU    112.69s WALL (    4584 calls)
     add_vuspsi   :      1.82s CPU      1.84s WALL (    4584 calls)

     General routines
     calbec       :     14.63s CPU     14.74s WALL (    9211 calls)
     fft          :      0.17s CPU      0.17s WALL (      19 calls)
     ffts         :      0.00s CPU      0.00s WALL (       1 calls)
     fftw         :    107.41s CPU    109.17s WALL (  469664 calls)
     fftc         :    465.34s CPU    469.69s WALL (  860000 calls)
     fftcw        :      4.82s CPU      4.88s WALL (   12900 calls)
     davcio       :      0.04s CPU      0.05s WALL (     258 calls)

     Parallel routines

     EXX routines
     exx_grid     :      0.02s CPU      0.02s WALL (       1 calls)
     exxinit      :     24.03s CPU     24.43s WALL (       1 calls)
     vexx         :    522.57s CPU    527.49s WALL (      43 calls)
     matcalc      :      8.05s CPU      8.09s WALL (    4627 calls)
     aceupdate    :      0.04s CPU      0.04s WALL (      43 calls)
     vexxace      :     10.38s CPU     10.44s WALL (    4584 calls)
     aceinit      :    522.74s CPU    527.67s WALL (      43 calls)

     PWSCF        :  14m17.96s CPU  15m 9.16s WALL


   This run was terminated on:   3:58:19  20May2025            

=------------------------------------------------------------------------------=
   JOB DONE.
=------------------------------------------------------------------------------=
