
     Program PWSCF v.7.3.1 starts on 20May2025 at  0:47:24 

     This program is part of the open-source Quantum ESPRESSO suite
     for quantum simulation of materials; please cite
         "P. Giannozzi et al., J. Phys.:Condens. Matter 21 395502 (2009);
         "P. Giannozzi et al., J. Phys.:Condens. Matter 29 465901 (2017);
         "P. Giannozzi et al., J. Chem. Phys. 152 154105 (2020);
          URL http://www.quantum-espresso.org", 
     in publications or presentations arising from this work. More details at
     http://www.quantum-espresso.org/quote

     Parallel version (MPI & OpenMP), running on     168 processor cores
     Number of MPI processes:               168
     Threads/MPI process:                     1

     MPI processes distributed on     7 nodes
     109767 MiB available memory on the printing compute node when the environment starts

     Waiting for input...
     Reading input from standard input

     Current dimensions of program PWSCF are:
     Max number of different atomic species (ntypx) = 10
     Max number of k-points (npk) =  40000
     Max angular momentum in pseudopotentials (lmaxx) =  4

     IMPORTANT: XC functional enforced from input :
     Exchange-correlation= GAUP
                           (   1   4  20   4   0   0   0)
     EXX-fraction              =        0.24
     Any further DFT definition will be discarded
     Please, verify this is what you really want


     Atomic positions and unit cell read from directory:
     tmp/Sb2Te3-uatsx-c4-0.0.save/


     K-points division:     npool     =       2
     R & G space division:  proc/nbgrp/npool/nimage =      84
     Subspace diagonalization in iterative solution of the eigenvalue problem:
     a serial algorithm will be used

     EXX: q-point mesh:     1    1    1
     EXX: setup a grid of 85 q-points centered on each k-point
     (k+q)-points:
   0.0000000   0.0000000   0.0000000         1    1
   0.0000000   0.0887897   0.0000000         2    1
   0.0000000   0.1775795   0.0000000         3    1
   0.0000000   0.2663692   0.0000000         4    1
   0.0000000   0.3551590   0.0000000         5    1
   0.0000000   0.4439487   0.0000000         6    1
   0.0000000   0.5327385   0.0000000         7    1
   0.0769231   0.0443949   0.0000000         8    1
   0.0769231   0.1331846   0.0000000         9    1
   0.0769231   0.2219744   0.0000000        10    1
   0.0769231   0.3107641   0.0000000        11    1
   0.0769231   0.3995538   0.0000000        12    1
   0.0769231   0.4883436   0.0000000        13    1
   0.0769231   0.5771333   0.0000000        14    1
   0.1538462   0.0887897   0.0000000        15    1
   0.1538462   0.1775795   0.0000000        16    1
   0.1538462   0.2663692   0.0000000        17    1
   0.1538462   0.3551590   0.0000000        18    1
   0.1538462   0.4439487   0.0000000        19    1
   0.1538462   0.5327385   0.0000000        20    1
   0.1538462  -0.0000000   0.0000000        21    1
   0.2307692   0.1331846   0.0000000        22    1
   0.2307692   0.2219744   0.0000000        23    1
   0.2307692   0.3107641   0.0000000        24    1
   0.2307692   0.3995538   0.0000000        25    1
   0.2307692   0.4883436   0.0000000        26    1
   0.2307692   0.5771333   0.0000000        27    1
   0.2307692  -0.0443949   0.0000000        28    1
   0.3076923   0.1775795   0.0000000        29    1
   0.3076923   0.2663692   0.0000000        30    1
   0.3076923   0.3551590   0.0000000        31    1
   0.3076923   0.4439487   0.0000000        32    1
   0.3076923   0.5327385   0.0000000        33    1
   0.3076923  -0.0887897   0.0000000        34    1
   0.3076923  -0.0000000   0.0000000        35    1
   0.3846154   0.2219744   0.0000000        36    1
   0.3846154   0.3107641   0.0000000        37    1
   0.3846154   0.3995538   0.0000000        38    1
   0.3846154   0.4883436   0.0000000        39    1
   0.3846154   0.5771333   0.0000000        40    1
   0.3846154  -0.1331846   0.0000000        41    1
   0.3846154  -0.0443949   0.0000000        42    1
   0.4615385   0.2663692   0.0000000        43    1
   0.4615385   0.3551590   0.0000000        44    1
   0.4615385   0.4439487   0.0000000        45    1
   0.4615385   0.5327385   0.0000000        46    1
   0.4615385  -0.1775795   0.0000000        47    1
   0.4615385  -0.0887897   0.0000000        48    1
   0.4615385  -0.0000000   0.0000000        49    1
  -0.0769231   0.0443949   0.0000000        50    1
  -0.0769231   0.1331846   0.0000000        51    1
  -0.0769231   0.2219744   0.0000000        52    1
  -0.0769231   0.3107641   0.0000000        53    1
  -0.0769231   0.3995538   0.0000000        54    1
  -0.0769231   0.4883436   0.0000000        55    1
  -0.1538462   0.0887897   0.0000000        56    1
  -0.1538462   0.1775795   0.0000000        57    1
  -0.1538462   0.2663692   0.0000000        58    1
  -0.1538462   0.3551590   0.0000000        59    1
  -0.1538462   0.4439487   0.0000000        60    1
  -0.1538462   0.5327385   0.0000000        61    1
  -0.2307692   0.1331846   0.0000000        62    1
  -0.2307692   0.2219744   0.0000000        63    1
  -0.2307692   0.3107641   0.0000000        64    1
  -0.2307692   0.3995538   0.0000000        65    1
  -0.2307692   0.4883436   0.0000000        66    1
  -0.2307692  -0.0443949   0.0000000        67    1
  -0.3076923   0.1775795   0.0000000        68    1
  -0.3076923   0.2663692   0.0000000        69    1
  -0.3076923   0.3551590   0.0000000        70    1
  -0.3076923   0.4439487   0.0000000        71    1
  -0.3076923   0.5327385   0.0000000        72    1
  -0.3076923  -0.0887897   0.0000000        73    1
  -0.3846154   0.2219744   0.0000000        74    1
  -0.3846154   0.3107641   0.0000000        75    1
  -0.3846154   0.3995538   0.0000000        76    1
  -0.3846154   0.4883436   0.0000000        77    1
  -0.3846154  -0.1331846   0.0000000        78    1
  -0.3846154  -0.0443949   0.0000000        79    1
  -0.4615385   0.2663692   0.0000000        80    1
  -0.4615385   0.3551590   0.0000000        81    1
  -0.4615385   0.4439487   0.0000000        82    1
  -0.4615385   0.5327385   0.0000000        83    1
  -0.4615385  -0.1775795   0.0000000        84    1
  -0.4615385  -0.0887897   0.0000000        85    1

     Parallelization info
     --------------------
     sticks:   dense  smooth     PW     G-vecs:    dense   smooth      PW
     Min          15      15      4                 2265     2265     336
     Max          16      16      5                 2292     2292     359
     Sum        1285    1285    367               190727   190727   28809

     Using Slab Decomposition



     bravais-lattice index     =            0
     lattice parameter (alat)  =       8.1456  a.u.
     unit-cell volume          =    2407.5243 (a.u.)^3
     number of atoms/cell      =            5
     number of atomic types    =            2
     number of electrons       =        78.00
     number of Kohn-Sham states=          100
     kinetic-energy cutoff     =      70.0000  Ry
     charge density cutoff     =     280.0000  Ry
     cutoff for Fock operator  =     280.0000  Ry
     Exchange-correlation= GAUP
                           (   1   4  20   4   0   0   0)
     EXX-fraction              =        0.24

     celldm(1)=   8.145633  celldm(2)=   0.000000  celldm(3)=   0.000000
     celldm(4)=   0.000000  celldm(5)=   0.000000  celldm(6)=   0.000000

     crystal axes: (cart. coord. in units of alat)
               a(1) = (   1.000000   0.000000   0.000000 )  
               a(2) = (  -0.500000   0.866351   0.000000 )  
               a(3) = (   0.000000   0.000000   5.141647 )  

     reciprocal axes: (cart. coord. in units 2 pi/alat)
               b(1) = (  1.000000  0.577133 -0.000000 )  
               b(2) = (  0.000000  1.154267  0.000000 )  
               b(3) = (  0.000000 -0.000000  0.194490 )  


     PseudoPot. # 1 for Sb read from file:
     /zfs-home/202401017n/pseudos/Sb_ONCV_PBE-1.2.upf
     MD5 check sum: 0417cd6c0fe8ce4611e2b23135f1abd9
     Pseudo is Norm-conserving, Zval = 15.0
     Generated using ONCVPSP code by D. R. Hamann
     Using radial grid of  602 points,  6 beta functions with: 
                l(1) =   0
                l(2) =   0
                l(3) =   1
                l(4) =   1
                l(5) =   2
                l(6) =   2

     PseudoPot. # 2 for Te read from file:
     /zfs-home/202401017n/pseudos/Te_ONCV_PBE-1.2.upf
     MD5 check sum: dd4de4dac1e38587f63aaf3700bb29d3
     Pseudo is Norm-conserving, Zval = 16.0
     Generated using ONCVPSP code by D. R. Hamann
     Using radial grid of  602 points,  6 beta functions with: 
                l(1) =   0
                l(2) =   0
                l(3) =   1
                l(4) =   1
                l(5) =   2
                l(6) =   2

     atomic species   valence    mass     pseudopotential
     Sb               15.00   121.76000     Sb( 1.00)
     Te               16.00   127.60000     Te( 1.00)

     No symmetry found


                                    s                        frac. trans.

      isym =  1     identity                                     

 cryst.   s( 1) = (     1          0          0      )
                  (     0          1          0      )
                  (     0          0          1      )

 cart.    s( 1) = (  1.0000000  0.0000000  0.0000000 )
                  (  0.0000000  1.0000000  0.0000000 )
                  (  0.0000000  0.0000000  1.0000000 )


   Cartesian axes

     site n.     atom                  positions (alat units)
         1        Sb     tau(   1) = (   0.5750834   0.4224062   3.0359551  )
         2        Te     tau(   2) = (   0.5751339   0.4221290   1.7103276  )
         3        Sb     tau(   3) = (   0.0749290   0.1335764   2.1056524  )
         4        Te     tau(   4) = (   0.0751535   0.1333230   3.4312869  )
         5        Te     tau(   5) = (   0.0751717   0.7108473   2.5707967  )

     -------------------------------------------------
     Parameters for Dispersion (Grimme-D2) Correction:
     -------------------------------------------------
       atom      VdW radius       C_6     

        Sb         3.555       1333.532
        Te         3.575       1101.101

   Crystallographic axes

     site n.     atom                  positions (cryst. coord.)
         1        Sb     tau(   1) = (  0.8188681  0.4875694  0.5904636  )
         2        Te     tau(   2) = (  0.8187586  0.4872494  0.3326420  )
         3        Sb     tau(   3) = (  0.1520204  0.1541827  0.4095288  )
         4        Te     tau(   4) = (  0.1520986  0.1538903  0.6673517  )
         5        Te     tau(   5) = (  0.4854254  0.8205074  0.4999948  )

     number of k points=    85
                       cart. coord. in units 2pi/alat
        k(    1) = (   0.0000000   0.0000000   0.0000000), wk =   0.0118343
        k(    2) = (   0.0000000   0.0887897   0.0000000), wk =   0.0236686
        k(    3) = (   0.0000000   0.1775795   0.0000000), wk =   0.0236686
        k(    4) = (   0.0000000   0.2663692   0.0000000), wk =   0.0236686
        k(    5) = (   0.0000000   0.3551590   0.0000000), wk =   0.0236686
        k(    6) = (   0.0000000   0.4439487   0.0000000), wk =   0.0236686
        k(    7) = (   0.0000000   0.5327385   0.0000000), wk =   0.0236686
        k(    8) = (   0.0769231   0.0443949   0.0000000), wk =   0.0236686
        k(    9) = (   0.0769231   0.1331846   0.0000000), wk =   0.0236686
        k(   10) = (   0.0769231   0.2219744   0.0000000), wk =   0.0236686
        k(   11) = (   0.0769231   0.3107641   0.0000000), wk =   0.0236686
        k(   12) = (   0.0769231   0.3995538   0.0000000), wk =   0.0236686
        k(   13) = (   0.0769231   0.4883436   0.0000000), wk =   0.0236686
        k(   14) = (   0.0769231   0.5771333   0.0000000), wk =   0.0236686
        k(   15) = (   0.1538462   0.0887897   0.0000000), wk =   0.0236686
        k(   16) = (   0.1538462   0.1775795   0.0000000), wk =   0.0236686
        k(   17) = (   0.1538462   0.2663692   0.0000000), wk =   0.0236686
        k(   18) = (   0.1538462   0.3551590   0.0000000), wk =   0.0236686
        k(   19) = (   0.1538462   0.4439487   0.0000000), wk =   0.0236686
        k(   20) = (   0.1538462   0.5327385   0.0000000), wk =   0.0236686
        k(   21) = (   0.1538462  -0.0000000   0.0000000), wk =   0.0236686
        k(   22) = (   0.2307692   0.1331846   0.0000000), wk =   0.0236686
        k(   23) = (   0.2307692   0.2219744   0.0000000), wk =   0.0236686
        k(   24) = (   0.2307692   0.3107641   0.0000000), wk =   0.0236686
        k(   25) = (   0.2307692   0.3995538   0.0000000), wk =   0.0236686
        k(   26) = (   0.2307692   0.4883436   0.0000000), wk =   0.0236686
        k(   27) = (   0.2307692   0.5771333   0.0000000), wk =   0.0236686
        k(   28) = (   0.2307692  -0.0443949   0.0000000), wk =   0.0236686
        k(   29) = (   0.3076923   0.1775795   0.0000000), wk =   0.0236686
        k(   30) = (   0.3076923   0.2663692   0.0000000), wk =   0.0236686
        k(   31) = (   0.3076923   0.3551590   0.0000000), wk =   0.0236686
        k(   32) = (   0.3076923   0.4439487   0.0000000), wk =   0.0236686
        k(   33) = (   0.3076923   0.5327385   0.0000000), wk =   0.0236686
        k(   34) = (   0.3076923  -0.0887897   0.0000000), wk =   0.0236686
        k(   35) = (   0.3076923  -0.0000000   0.0000000), wk =   0.0236686
        k(   36) = (   0.3846154   0.2219744   0.0000000), wk =   0.0236686
        k(   37) = (   0.3846154   0.3107641   0.0000000), wk =   0.0236686
        k(   38) = (   0.3846154   0.3995538   0.0000000), wk =   0.0236686
        k(   39) = (   0.3846154   0.4883436   0.0000000), wk =   0.0236686
        k(   40) = (   0.3846154   0.5771333   0.0000000), wk =   0.0236686
        k(   41) = (   0.3846154  -0.1331846   0.0000000), wk =   0.0236686
        k(   42) = (   0.3846154  -0.0443949   0.0000000), wk =   0.0236686
        k(   43) = (   0.4615385   0.2663692   0.0000000), wk =   0.0236686
        k(   44) = (   0.4615385   0.3551590   0.0000000), wk =   0.0236686
        k(   45) = (   0.4615385   0.4439487   0.0000000), wk =   0.0236686
        k(   46) = (   0.4615385   0.5327385   0.0000000), wk =   0.0236686
        k(   47) = (   0.4615385  -0.1775795   0.0000000), wk =   0.0236686
        k(   48) = (   0.4615385  -0.0887897   0.0000000), wk =   0.0236686
        k(   49) = (   0.4615385  -0.0000000   0.0000000), wk =   0.0236686
        k(   50) = (  -0.0769231   0.0443949   0.0000000), wk =   0.0236686
        k(   51) = (  -0.0769231   0.1331846   0.0000000), wk =   0.0236686
        k(   52) = (  -0.0769231   0.2219744   0.0000000), wk =   0.0236686
        k(   53) = (  -0.0769231   0.3107641   0.0000000), wk =   0.0236686
        k(   54) = (  -0.0769231   0.3995538   0.0000000), wk =   0.0236686
        k(   55) = (  -0.0769231   0.4883436   0.0000000), wk =   0.0236686
        k(   56) = (  -0.1538462   0.0887897   0.0000000), wk =   0.0236686
        k(   57) = (  -0.1538462   0.1775795   0.0000000), wk =   0.0236686
        k(   58) = (  -0.1538462   0.2663692   0.0000000), wk =   0.0236686
        k(   59) = (  -0.1538462   0.3551590   0.0000000), wk =   0.0236686
        k(   60) = (  -0.1538462   0.4439487   0.0000000), wk =   0.0236686
        k(   61) = (  -0.1538462   0.5327385   0.0000000), wk =   0.0236686
        k(   62) = (  -0.2307692   0.1331846   0.0000000), wk =   0.0236686
        k(   63) = (  -0.2307692   0.2219744   0.0000000), wk =   0.0236686
        k(   64) = (  -0.2307692   0.3107641   0.0000000), wk =   0.0236686
        k(   65) = (  -0.2307692   0.3995538   0.0000000), wk =   0.0236686
        k(   66) = (  -0.2307692   0.4883436   0.0000000), wk =   0.0236686
        k(   67) = (  -0.2307692  -0.0443949   0.0000000), wk =   0.0236686
        k(   68) = (  -0.3076923   0.1775795   0.0000000), wk =   0.0236686
        k(   69) = (  -0.3076923   0.2663692   0.0000000), wk =   0.0236686
        k(   70) = (  -0.3076923   0.3551590   0.0000000), wk =   0.0236686
        k(   71) = (  -0.3076923   0.4439487   0.0000000), wk =   0.0236686
        k(   72) = (  -0.3076923   0.5327385   0.0000000), wk =   0.0236686
        k(   73) = (  -0.3076923  -0.0887897   0.0000000), wk =   0.0236686
        k(   74) = (  -0.3846154   0.2219744   0.0000000), wk =   0.0236686
        k(   75) = (  -0.3846154   0.3107641   0.0000000), wk =   0.0236686
        k(   76) = (  -0.3846154   0.3995538   0.0000000), wk =   0.0236686
        k(   77) = (  -0.3846154   0.4883436   0.0000000), wk =   0.0236686
        k(   78) = (  -0.3846154  -0.1331846   0.0000000), wk =   0.0236686
        k(   79) = (  -0.3846154  -0.0443949   0.0000000), wk =   0.0236686
        k(   80) = (  -0.4615385   0.2663692   0.0000000), wk =   0.0236686
        k(   81) = (  -0.4615385   0.3551590   0.0000000), wk =   0.0236686
        k(   82) = (  -0.4615385   0.4439487   0.0000000), wk =   0.0236686
        k(   83) = (  -0.4615385   0.5327385   0.0000000), wk =   0.0236686
        k(   84) = (  -0.4615385  -0.1775795   0.0000000), wk =   0.0236686
        k(   85) = (  -0.4615385  -0.0887897   0.0000000), wk =   0.0236686

                       cryst. coord.
        k(    1) = (   0.0000000   0.0000000   0.0000000), wk =   0.0118343
        k(    2) = (   0.0000000   0.0769231   0.0000000), wk =   0.0236686
        k(    3) = (   0.0000000   0.1538462   0.0000000), wk =   0.0236686
        k(    4) = (   0.0000000   0.2307692   0.0000000), wk =   0.0236686
        k(    5) = (   0.0000000   0.3076923   0.0000000), wk =   0.0236686
        k(    6) = (   0.0000000   0.3846154   0.0000000), wk =   0.0236686
        k(    7) = (   0.0000000   0.4615385   0.0000000), wk =   0.0236686
        k(    8) = (   0.0769231   0.0000000   0.0000000), wk =   0.0236686
        k(    9) = (   0.0769231   0.0769231   0.0000000), wk =   0.0236686
        k(   10) = (   0.0769231   0.1538462   0.0000000), wk =   0.0236686
        k(   11) = (   0.0769231   0.2307692   0.0000000), wk =   0.0236686
        k(   12) = (   0.0769231   0.3076923   0.0000000), wk =   0.0236686
        k(   13) = (   0.0769231   0.3846154   0.0000000), wk =   0.0236686
        k(   14) = (   0.0769231   0.4615385   0.0000000), wk =   0.0236686
        k(   15) = (   0.1538462   0.0000000   0.0000000), wk =   0.0236686
        k(   16) = (   0.1538462   0.0769231   0.0000000), wk =   0.0236686
        k(   17) = (   0.1538462   0.1538462   0.0000000), wk =   0.0236686
        k(   18) = (   0.1538462   0.2307692   0.0000000), wk =   0.0236686
        k(   19) = (   0.1538462   0.3076923   0.0000000), wk =   0.0236686
        k(   20) = (   0.1538462   0.3846154   0.0000000), wk =   0.0236686
        k(   21) = (   0.1538462  -0.0769231   0.0000000), wk =   0.0236686
        k(   22) = (   0.2307692   0.0000000   0.0000000), wk =   0.0236686
        k(   23) = (   0.2307692   0.0769231   0.0000000), wk =   0.0236686
        k(   24) = (   0.2307692   0.1538462   0.0000000), wk =   0.0236686
        k(   25) = (   0.2307692   0.2307692   0.0000000), wk =   0.0236686
        k(   26) = (   0.2307692   0.3076923   0.0000000), wk =   0.0236686
        k(   27) = (   0.2307692   0.3846154   0.0000000), wk =   0.0236686
        k(   28) = (   0.2307692  -0.1538462   0.0000000), wk =   0.0236686
        k(   29) = (   0.3076923   0.0000000   0.0000000), wk =   0.0236686
        k(   30) = (   0.3076923   0.0769231   0.0000000), wk =   0.0236686
        k(   31) = (   0.3076923   0.1538462   0.0000000), wk =   0.0236686
        k(   32) = (   0.3076923   0.2307692   0.0000000), wk =   0.0236686
        k(   33) = (   0.3076923   0.3076923   0.0000000), wk =   0.0236686
        k(   34) = (   0.3076923  -0.2307692   0.0000000), wk =   0.0236686
        k(   35) = (   0.3076923  -0.1538462   0.0000000), wk =   0.0236686
        k(   36) = (   0.3846154   0.0000000   0.0000000), wk =   0.0236686
        k(   37) = (   0.3846154   0.0769231   0.0000000), wk =   0.0236686
        k(   38) = (   0.3846154   0.1538462   0.0000000), wk =   0.0236686
        k(   39) = (   0.3846154   0.2307692   0.0000000), wk =   0.0236686
        k(   40) = (   0.3846154   0.3076923   0.0000000), wk =   0.0236686
        k(   41) = (   0.3846154  -0.3076923   0.0000000), wk =   0.0236686
        k(   42) = (   0.3846154  -0.2307692   0.0000000), wk =   0.0236686
        k(   43) = (   0.4615385   0.0000000   0.0000000), wk =   0.0236686
        k(   44) = (   0.4615385   0.0769231   0.0000000), wk =   0.0236686
        k(   45) = (   0.4615385   0.1538462   0.0000000), wk =   0.0236686
        k(   46) = (   0.4615385   0.2307692   0.0000000), wk =   0.0236686
        k(   47) = (   0.4615385  -0.3846154   0.0000000), wk =   0.0236686
        k(   48) = (   0.4615385  -0.3076923   0.0000000), wk =   0.0236686
        k(   49) = (   0.4615385  -0.2307692   0.0000000), wk =   0.0236686
        k(   50) = (  -0.0769231   0.0769231   0.0000000), wk =   0.0236686
        k(   51) = (  -0.0769231   0.1538462   0.0000000), wk =   0.0236686
        k(   52) = (  -0.0769231   0.2307692   0.0000000), wk =   0.0236686
        k(   53) = (  -0.0769231   0.3076923   0.0000000), wk =   0.0236686
        k(   54) = (  -0.0769231   0.3846154   0.0000000), wk =   0.0236686
        k(   55) = (  -0.0769231   0.4615385   0.0000000), wk =   0.0236686
        k(   56) = (  -0.1538462   0.1538462   0.0000000), wk =   0.0236686
        k(   57) = (  -0.1538462   0.2307692   0.0000000), wk =   0.0236686
        k(   58) = (  -0.1538462   0.3076923   0.0000000), wk =   0.0236686
        k(   59) = (  -0.1538462   0.3846154   0.0000000), wk =   0.0236686
        k(   60) = (  -0.1538462   0.4615385   0.0000000), wk =   0.0236686
        k(   61) = (  -0.1538462   0.5384615   0.0000000), wk =   0.0236686
        k(   62) = (  -0.2307692   0.2307692   0.0000000), wk =   0.0236686
        k(   63) = (  -0.2307692   0.3076923   0.0000000), wk =   0.0236686
        k(   64) = (  -0.2307692   0.3846154   0.0000000), wk =   0.0236686
        k(   65) = (  -0.2307692   0.4615385   0.0000000), wk =   0.0236686
        k(   66) = (  -0.2307692   0.5384615   0.0000000), wk =   0.0236686
        k(   67) = (  -0.2307692   0.0769231   0.0000000), wk =   0.0236686
        k(   68) = (  -0.3076923   0.3076923   0.0000000), wk =   0.0236686
        k(   69) = (  -0.3076923   0.3846154   0.0000000), wk =   0.0236686
        k(   70) = (  -0.3076923   0.4615385   0.0000000), wk =   0.0236686
        k(   71) = (  -0.3076923   0.5384615   0.0000000), wk =   0.0236686
        k(   72) = (  -0.3076923   0.6153846   0.0000000), wk =   0.0236686
        k(   73) = (  -0.3076923   0.0769231   0.0000000), wk =   0.0236686
        k(   74) = (  -0.3846154   0.3846154   0.0000000), wk =   0.0236686
        k(   75) = (  -0.3846154   0.4615385   0.0000000), wk =   0.0236686
        k(   76) = (  -0.3846154   0.5384615   0.0000000), wk =   0.0236686
        k(   77) = (  -0.3846154   0.6153846   0.0000000), wk =   0.0236686
        k(   78) = (  -0.3846154   0.0769231   0.0000000), wk =   0.0236686
        k(   79) = (  -0.3846154   0.1538462   0.0000000), wk =   0.0236686
        k(   80) = (  -0.4615385   0.4615385   0.0000000), wk =   0.0236686
        k(   81) = (  -0.4615385   0.5384615   0.0000000), wk =   0.0236686
        k(   82) = (  -0.4615385   0.6153846   0.0000000), wk =   0.0236686
        k(   83) = (  -0.4615385   0.6923077   0.0000000), wk =   0.0236686
        k(   84) = (  -0.4615385   0.0769231   0.0000000), wk =   0.0236686
        k(   85) = (  -0.4615385   0.1538462   0.0000000), wk =   0.0236686

     Dense  grid:   190727 G-vectors     FFT dimensions: (  45,  45, 225)

     Dynamical RAM for                 wfc:       0.43 MB

     Dynamical RAM for     wfc (w. buffer):       0.43 MB

     Dynamical RAM for                 EXX:     618.52 MB

     Dynamical RAM for           str. fact:       0.07 MB

     Dynamical RAM for           local pot:       0.00 MB

     Dynamical RAM for          nlocal pot:       0.39 MB

     Dynamical RAM for                qrad:       2.83 MB

     Dynamical RAM for          rho,v,vnew:       0.24 MB

     Dynamical RAM for           G-vectors:       0.15 MB

     Dynamical RAM for          h,s,v(r/c):       1.83 MB

     Dynamical RAM for          <psi|beta>:       0.14 MB

     Dynamical RAM for                 psi:       0.86 MB

     Dynamical RAM for                hpsi:       0.86 MB

     Dynamical RAM for      wfcinit/wfcrot:       1.09 MB

     Estimated static dynamical RAM per process >     622.97 MB

     Estimated max dynamical RAM per process >     626.66 MB

     Estimated total dynamical RAM >     102.81 GB
     EXX: initializing ACE and reading from file
     ACE potential read for      100 bands
     ACE potential read for      100 bands
     ACE potential read for      100 bands
     ACE potential read for      100 bands
     ACE potential read for      100 bands
     ACE potential read for      100 bands
     ACE potential read for      100 bands
     ACE potential read for      100 bands
     ACE potential read for      100 bands
     ACE potential read for      100 bands
     ACE potential read for      100 bands
     ACE potential read for      100 bands
     ACE potential read for      100 bands
     ACE potential read for      100 bands
     ACE potential read for      100 bands
     ACE potential read for      100 bands
     ACE potential read for      100 bands
     ACE potential read for      100 bands
     ACE potential read for      100 bands
     ACE potential read for      100 bands
     ACE potential read for      100 bands
     ACE potential read for      100 bands
     ACE potential read for      100 bands
     ACE potential read for      100 bands
     ACE potential read for      100 bands
     ACE potential read for      100 bands
     ACE potential read for      100 bands
     ACE potential read for      100 bands
     ACE potential read for      100 bands
     ACE potential read for      100 bands
     ACE potential read for      100 bands
     ACE potential read for      100 bands
     ACE potential read for      100 bands
     ACE potential read for      100 bands
     ACE potential read for      100 bands
     ACE potential read for      100 bands
     ACE potential read for      100 bands
     ACE potential read for      100 bands
     ACE potential read for      100 bands
     ACE potential read for      100 bands
     ACE potential read for      100 bands
     ACE potential read for      100 bands
     ACE potential read for      100 bands
     Starting ACE correctly read from file

     The potential is recalculated from file :
     tmp/Sb2Te3-uatsx-c4-0.0.save/charge-density

     Starting wfcs are random

     Band Structure Calculation
     Davidson diagonalization with overlap

     Computing kpt #:     1  of    43 on this pool
     total cpu time spent up to now is       16.8 secs

     Computing kpt #:     2  of    43 on this pool
     total cpu time spent up to now is       19.7 secs

     Computing kpt #:     3  of    43 on this pool
     total cpu time spent up to now is       22.6 secs

     Computing kpt #:     4  of    43 on this pool
     total cpu time spent up to now is       25.6 secs

     Computing kpt #:     5  of    43 on this pool
     total cpu time spent up to now is       28.8 secs

     Computing kpt #:     6  of    43 on this pool
     total cpu time spent up to now is       32.1 secs

     Computing kpt #:     7  of    43 on this pool
     total cpu time spent up to now is       34.8 secs

     Computing kpt #:     8  of    43 on this pool
     total cpu time spent up to now is       38.1 secs

     Computing kpt #:     9  of    43 on this pool
     total cpu time spent up to now is       41.7 secs

     Computing kpt #:    10  of    43 on this pool
     total cpu time spent up to now is       44.6 secs

     Computing kpt #:    11  of    43 on this pool
     total cpu time spent up to now is       48.3 secs

     Computing kpt #:    12  of    43 on this pool
     total cpu time spent up to now is       51.0 secs

     Computing kpt #:    13  of    43 on this pool
     total cpu time spent up to now is       53.8 secs

     Computing kpt #:    14  of    43 on this pool
     total cpu time spent up to now is       56.5 secs

     Computing kpt #:    15  of    43 on this pool
     total cpu time spent up to now is       59.7 secs

     Computing kpt #:    16  of    43 on this pool
     total cpu time spent up to now is       62.5 secs

     Computing kpt #:    17  of    43 on this pool
     total cpu time spent up to now is       65.3 secs

     Computing kpt #:    18  of    43 on this pool
     total cpu time spent up to now is       68.5 secs

     Computing kpt #:    19  of    43 on this pool
     total cpu time spent up to now is       71.7 secs

     Computing kpt #:    20  of    43 on this pool
     total cpu time spent up to now is       74.6 secs

     Computing kpt #:    21  of    43 on this pool
     total cpu time spent up to now is       77.5 secs

     Computing kpt #:    22  of    43 on this pool
     total cpu time spent up to now is       81.0 secs

     Computing kpt #:    23  of    43 on this pool
     total cpu time spent up to now is       84.6 secs

     Computing kpt #:    24  of    43 on this pool
     total cpu time spent up to now is       87.5 secs

     Computing kpt #:    25  of    43 on this pool
     total cpu time spent up to now is       90.6 secs

     Computing kpt #:    26  of    43 on this pool
     total cpu time spent up to now is       93.4 secs

     Computing kpt #:    27  of    43 on this pool
     total cpu time spent up to now is       96.5 secs

     Computing kpt #:    28  of    43 on this pool
     total cpu time spent up to now is       99.5 secs

     Computing kpt #:    29  of    43 on this pool
     total cpu time spent up to now is      102.6 secs

     Computing kpt #:    30  of    43 on this pool
     total cpu time spent up to now is      105.3 secs

     Computing kpt #:    31  of    43 on this pool
     total cpu time spent up to now is      108.2 secs

     Computing kpt #:    32  of    43 on this pool
     total cpu time spent up to now is      111.2 secs

     Computing kpt #:    33  of    43 on this pool
     total cpu time spent up to now is      115.0 secs

     Computing kpt #:    34  of    43 on this pool
     total cpu time spent up to now is      118.1 secs

     Computing kpt #:    35  of    43 on this pool
     total cpu time spent up to now is      121.0 secs

     Computing kpt #:    36  of    43 on this pool
     total cpu time spent up to now is      123.7 secs

     Computing kpt #:    37  of    43 on this pool
     total cpu time spent up to now is      126.5 secs

     Computing kpt #:    38  of    43 on this pool
     total cpu time spent up to now is      129.6 secs

     Computing kpt #:    39  of    43 on this pool
     total cpu time spent up to now is      132.5 secs

     Computing kpt #:    40  of    43 on this pool
     total cpu time spent up to now is      135.7 secs

     Computing kpt #:    41  of    43 on this pool
     total cpu time spent up to now is      138.4 secs

     Computing kpt #:    42  of    43 on this pool
     total cpu time spent up to now is      141.5 secs

     Computing kpt #:    43  of    43 on this pool
     total cpu time spent up to now is      144.2 secs

     ethr =  1.28E-10,  avg # of iterations = 52.1

     total cpu time spent up to now is      146.1 secs

     End of band structure calculation

          k = 0.0000 0.0000 0.0000 ( 23771 PWs)   bands (ev):

   -36.4025 -36.4022 -36.3967 -36.3963 -36.3772 -36.3770 -36.3713 -36.3712
   -36.3607 -36.3550 -36.0889 -36.0888 -36.0761 -36.0589 -36.0589 -29.0673
   -29.0673 -29.0654 -29.0654 -29.0177 -29.0175 -29.0167 -29.0165 -29.0007
   -28.9996 -12.8133 -12.2955 -10.9928  -7.7425  -6.1594  -1.1676  -0.8900
    -0.8888  -0.6454  -0.6434  -0.0951   0.1423   0.1437   0.6930   2.4232
     2.6789   2.6808   3.7354   3.7373   4.0190   6.3717   6.5489   7.4634
     7.9721   8.6408   8.6453   8.7705   9.4041   9.4098   9.8837   9.8881
    10.4951  10.4980  10.5468  10.6475  11.2601  12.0745  12.0786  12.0837
    12.4441  12.4474  13.2881  13.4125  14.8323  14.8361  15.0033  15.0066
    15.0189  15.7107  16.5038  16.5137  16.5177  16.7888  16.7926  16.8509
    17.2012  17.5160  17.6735  17.7333  17.7372  17.8120  17.8158  18.0171
    18.0210  18.0413  18.0465  18.0475  18.3630  18.6255  19.6926  19.6964
    19.7454  19.7492  19.8059  20.0068

     occupation numbers 
     1.0000   1.0000   1.0000   1.0000   1.0000   1.0000   1.0000   1.0000
     1.0000   1.0000   1.0000   1.0000   1.0000   1.0000   1.0000   1.0000
     1.0000   1.0000   1.0000   1.0000   1.0000   1.0000   1.0000   1.0000
     1.0000   1.0000   1.0000   1.0000   1.0000   1.0000   1.0000   1.0000
     1.0000   1.0000   1.0000   1.0000   1.0000   1.0000   1.0000   0.0000
     0.0000   0.0000   0.0000   0.0000   0.0000   0.0000   0.0000   0.0000
     0.0000   0.0000   0.0000   0.0000   0.0000   0.0000   0.0000   0.0000
     0.0000   0.0000   0.0000   0.0000   0.0000   0.0000   0.0000   0.0000
     0.0000   0.0000   0.0000   0.0000   0.0000   0.0000   0.0000   0.0000
     0.0000   0.0000   0.0000   0.0000   0.0000   0.0000   0.0000   0.0000
     0.0000   0.0000   0.0000   0.0000   0.0000   0.0000   0.0000   0.0000
     0.0000   0.0000   0.0000   0.0000   0.0000   0.0000   0.0000   0.0000
     0.0000   0.0000   0.0000   0.0000

          k = 0.0000 0.0888 0.0000 ( 23755 PWs)   bands (ev):

   -36.4064 -36.4043 -36.4009 -36.3982 -36.3792 -36.3732 -36.3701 -36.3646
   -36.3527 -36.3470 -36.0919 -36.0855 -36.0818 -36.0527 -36.0501 -29.0615
   -29.0614 -29.0597 -29.0597 -29.0220 -29.0207 -29.0199 -29.0188 -28.9961
   -28.9949 -12.7336 -12.2092 -10.9546  -7.7795  -6.3053  -1.5182  -1.2255
    -1.0905  -0.9364  -0.7302  -0.4393   0.2000   0.4608   0.9819   2.5175
     2.7744   2.8999   3.7327   3.8414   4.2610   6.4620   6.6045   7.5447
     7.8951   8.2276   8.7352   8.9330   9.2562   9.4547   9.8316   9.8666
    10.3350  10.7014  10.9332  11.1488  11.5631  11.6590  11.8574  12.1183
    12.9010  12.9493  13.4619  13.4889  14.1804  14.3832  15.0564  15.1752
    15.3763  15.6669  16.0107  16.2004  16.2472  16.5183  16.6949  16.8597
    17.0372  17.1873  17.2209  17.3638  17.4750  17.5693  17.9615  18.3135
    18.5231  18.5595  18.6305  18.8267  18.8682  19.0343  19.0686  19.3380
    19.3518  19.4649  19.5838  19.8420

     occupation numbers 
     1.0000   1.0000   1.0000   1.0000   1.0000   1.0000   1.0000   1.0000
     1.0000   1.0000   1.0000   1.0000   1.0000   1.0000   1.0000   1.0000
     1.0000   1.0000   1.0000   1.0000   1.0000   1.0000   1.0000   1.0000
     1.0000   1.0000   1.0000   1.0000   1.0000   1.0000   1.0000   1.0000
     1.0000   1.0000   1.0000   1.0000   1.0000   1.0000   1.0000   0.0000
     0.0000   0.0000   0.0000   0.0000   0.0000   0.0000   0.0000   0.0000
     0.0000   0.0000   0.0000   0.0000   0.0000   0.0000   0.0000   0.0000
     0.0000   0.0000   0.0000   0.0000   0.0000   0.0000   0.0000   0.0000
     0.0000   0.0000   0.0000   0.0000   0.0000   0.0000   0.0000   0.0000
     0.0000   0.0000   0.0000   0.0000   0.0000   0.0000   0.0000   0.0000
     0.0000   0.0000   0.0000   0.0000   0.0000   0.0000   0.0000   0.0000
     0.0000   0.0000   0.0000   0.0000   0.0000   0.0000   0.0000   0.0000
     0.0000   0.0000   0.0000   0.0000

          k = 0.0000 0.1776 0.0000 ( 23741 PWs)   bands (ev):

   -36.3966 -36.3914 -36.3910 -36.3854 -36.3618 -36.3613 -36.3559 -36.3556
   -36.3426 -36.3369 -36.0862 -36.0798 -36.0735 -36.0461 -36.0427 -29.0604
   -29.0593 -29.0588 -29.0578 -29.0347 -29.0330 -29.0237 -29.0225 -29.0157
   -29.0142 -12.5305 -11.9919 -10.8176  -7.8672  -6.6595  -2.3766  -1.6493
    -1.4753  -1.3902  -0.9684  -0.8024   0.2449   0.5781   0.9816   2.7769
     2.9754   3.2637   4.1038   4.1377   4.6871   6.6692   6.7346   7.3700
     7.8777   8.1260   9.0036   9.0068   9.1473   9.3257  10.0487  10.1363
    10.2033  10.8906  11.2714  11.5181  11.8245  12.1118  12.3869  12.5566
    13.0293  13.2041  13.4453  13.8440  13.9636  14.4070  14.5072  14.9138
    15.0449  15.1162  15.5928  15.8212  16.2420  16.3607  16.4999  16.5216
    16.7468  16.8900  16.9987  17.1765  17.3337  17.8321  18.2462  18.4950
    18.5025  18.6818  18.8101  18.8275  19.0223  19.5833  19.7237  19.8041
    19.8771  19.9530  20.1378  20.4204

     occupation numbers 
     1.0000   1.0000   1.0000   1.0000   1.0000   1.0000   1.0000   1.0000
     1.0000   1.0000   1.0000   1.0000   1.0000   1.0000   1.0000   1.0000
     1.0000   1.0000   1.0000   1.0000   1.0000   1.0000   1.0000   1.0000
     1.0000   1.0000   1.0000   1.0000   1.0000   1.0000   1.0000   1.0000
     1.0000   1.0000   1.0000   1.0000   1.0000   1.0000   1.0000   0.0000
     0.0000   0.0000   0.0000   0.0000   0.0000   0.0000   0.0000   0.0000
     0.0000   0.0000   0.0000   0.0000   0.0000   0.0000   0.0000   0.0000
     0.0000   0.0000   0.0000   0.0000   0.0000   0.0000   0.0000   0.0000
     0.0000   0.0000   0.0000   0.0000   0.0000   0.0000   0.0000   0.0000
     0.0000   0.0000   0.0000   0.0000   0.0000   0.0000   0.0000   0.0000
     0.0000   0.0000   0.0000   0.0000   0.0000   0.0000   0.0000   0.0000
     0.0000   0.0000   0.0000   0.0000   0.0000   0.0000   0.0000   0.0000
     0.0000   0.0000   0.0000   0.0000

          k = 0.0000 0.2664 0.0000 ( 23781 PWs)   bands (ev):

   -36.3917 -36.3862 -36.3847 -36.3788 -36.3547 -36.3524 -36.3492 -36.3462
   -36.3371 -36.3313 -36.0812 -36.0770 -36.0648 -36.0386 -36.0341 -29.0582
   -29.0568 -29.0552 -29.0539 -29.0370 -29.0351 -29.0278 -29.0264 -29.0116
   -29.0100 -12.2324 -11.7265 -10.6553  -8.0133  -7.1418  -3.1311  -2.1502
    -1.8591  -1.8489  -1.2512  -0.7680  -0.0599   0.2019   1.0621   2.7795
     3.1579   3.6597   4.4290   4.4816   5.2069   6.5984   6.9721   7.2920
     8.0689   8.4254   8.8801   9.3912   9.4421   9.4876  10.3452  10.4575
    10.5008  11.0863  11.0925  12.0419  12.2863  12.5695  12.7858  12.8196
    13.0185  13.0628  13.5045  13.6577  14.0606  14.3308  14.5989  14.9204
    15.1441  15.1823  15.4262  15.6517  15.7249  15.9266  16.1112  16.2134
    16.4203  16.8004  17.1875  17.5211  17.8833  17.9905  18.1145  18.1935
    18.3091  18.5373  18.9822  19.0575  19.2352  19.4253  19.6762  19.8705
    19.8860  20.2137  20.5237  20.5908

     occupation numbers 
     1.0000   1.0000   1.0000   1.0000   1.0000   1.0000   1.0000   1.0000
     1.0000   1.0000   1.0000   1.0000   1.0000   1.0000   1.0000   1.0000
     1.0000   1.0000   1.0000   1.0000   1.0000   1.0000   1.0000   1.0000
     1.0000   1.0000   1.0000   1.0000   1.0000   1.0000   1.0000   1.0000
     1.0000   1.0000   1.0000   1.0000   1.0000   1.0000   1.0000   0.0000
     0.0000   0.0000   0.0000   0.0000   0.0000   0.0000   0.0000   0.0000
     0.0000   0.0000   0.0000   0.0000   0.0000   0.0000   0.0000   0.0000
     0.0000   0.0000   0.0000   0.0000   0.0000   0.0000   0.0000   0.0000
     0.0000   0.0000   0.0000   0.0000   0.0000   0.0000   0.0000   0.0000
     0.0000   0.0000   0.0000   0.0000   0.0000   0.0000   0.0000   0.0000
     0.0000   0.0000   0.0000   0.0000   0.0000   0.0000   0.0000   0.0000
     0.0000   0.0000   0.0000   0.0000   0.0000   0.0000   0.0000   0.0000
     0.0000   0.0000   0.0000   0.0000

          k = 0.0000 0.3552 0.0000 ( 23839 PWs)   bands (ev):

   -36.3866 -36.3811 -36.3787 -36.3729 -36.3488 -36.3450 -36.3433 -36.3388
   -36.3294 -36.3236 -36.0783 -36.0758 -36.0560 -36.0291 -36.0224 -29.0596
   -29.0583 -29.0553 -29.0541 -29.0381 -29.0358 -29.0298 -29.0283 -29.0133
   -29.0115 -11.8565 -11.4072 -10.5111  -8.2940  -7.6435  -3.7071  -2.6650
    -2.1564  -2.0292  -1.5056  -0.9531  -0.3050   0.1168   0.8138   2.8658
     3.2582   3.6283   4.7161   4.7226   5.6512   6.2480   7.3489   7.5358
     8.2001   8.7209   9.2355   9.7144   9.9057  10.2224  10.4574  10.7562
    11.0132  11.1322  11.4869  11.6797  12.1388  12.4643  12.7051  12.8624
    13.1605  13.4315  13.5497  13.9385  14.2754  14.3641  14.6371  14.9137
    15.3807  15.4153  15.5361  15.6438  15.7397  15.9129  16.1805  16.4351
    16.7170  17.1365  17.2506  17.3720  17.4194  17.5879  17.7110  17.7683
    17.8397  18.0874  18.1515  18.4052  19.1368  19.1545  19.2686  19.6527
    19.8081  20.3665  20.3719  20.6326

     occupation numbers 
     1.0000   1.0000   1.0000   1.0000   1.0000   1.0000   1.0000   1.0000
     1.0000   1.0000   1.0000   1.0000   1.0000   1.0000   1.0000   1.0000
     1.0000   1.0000   1.0000   1.0000   1.0000   1.0000   1.0000   1.0000
     1.0000   1.0000   1.0000   1.0000   1.0000   1.0000   1.0000   1.0000
     1.0000   1.0000   1.0000   1.0000   1.0000   1.0000   1.0000   0.0000
     0.0000   0.0000   0.0000   0.0000   0.0000   0.0000   0.0000   0.0000
     0.0000   0.0000   0.0000   0.0000   0.0000   0.0000   0.0000   0.0000
     0.0000   0.0000   0.0000   0.0000   0.0000   0.0000   0.0000   0.0000
     0.0000   0.0000   0.0000   0.0000   0.0000   0.0000   0.0000   0.0000
     0.0000   0.0000   0.0000   0.0000   0.0000   0.0000   0.0000   0.0000
     0.0000   0.0000   0.0000   0.0000   0.0000   0.0000   0.0000   0.0000
     0.0000   0.0000   0.0000   0.0000   0.0000   0.0000   0.0000   0.0000
     0.0000   0.0000   0.0000   0.0000

          k = 0.0000 0.4439 0.0000 ( 23831 PWs)   bands (ev):

   -36.3817 -36.3762 -36.3728 -36.3670 -36.3476 -36.3421 -36.3412 -36.3351
   -36.3280 -36.3221 -36.0776 -36.0768 -36.0524 -36.0235 -36.0152 -29.0594
   -29.0583 -29.0547 -29.0536 -29.0381 -29.0354 -29.0279 -29.0263 -29.0140
   -29.0119 -11.4309 -11.0830 -10.4752  -8.6726  -8.0499  -4.0915  -2.8974
    -2.3711  -2.2500  -1.6907  -1.2055  -0.2762   0.0339   0.5329   2.8866
     3.2929   3.5008   4.8519   4.9239   5.7808   6.0595   7.4700   8.0207
     8.4483   9.1491   9.7121   9.8490  10.1133  10.6614  10.7690  11.1990
    11.2133  11.4365  11.5606  11.8026  11.9341  12.3579  12.8025  12.9810
    13.2843  13.5176  14.0291  14.1217  14.2139  14.3150  14.6752  14.8742
    15.1716  15.2026  15.5704  15.6340  15.7958  16.0602  16.3499  16.3896
    16.5165  16.8207  16.9610  17.0190  17.2327  17.3688  17.6300  17.7318
    17.8157  17.9715  18.1886  18.3216  18.4601  19.0163  19.5493  19.5577
    19.7387  20.1922  20.2807  20.5847

     occupation numbers 
     1.0000   1.0000   1.0000   1.0000   1.0000   1.0000   1.0000   1.0000
     1.0000   1.0000   1.0000   1.0000   1.0000   1.0000   1.0000   1.0000
     1.0000   1.0000   1.0000   1.0000   1.0000   1.0000   1.0000   1.0000
     1.0000   1.0000   1.0000   1.0000   1.0000   1.0000   1.0000   1.0000
     1.0000   1.0000   1.0000   1.0000   1.0000   1.0000   1.0000   0.0000
     0.0000   0.0000   0.0000   0.0000   0.0000   0.0000   0.0000   0.0000
     0.0000   0.0000   0.0000   0.0000   0.0000   0.0000   0.0000   0.0000
     0.0000   0.0000   0.0000   0.0000   0.0000   0.0000   0.0000   0.0000
     0.0000   0.0000   0.0000   0.0000   0.0000   0.0000   0.0000   0.0000
     0.0000   0.0000   0.0000   0.0000   0.0000   0.0000   0.0000   0.0000
     0.0000   0.0000   0.0000   0.0000   0.0000   0.0000   0.0000   0.0000
     0.0000   0.0000   0.0000   0.0000   0.0000   0.0000   0.0000   0.0000
     0.0000   0.0000   0.0000   0.0000

          k = 0.0000 0.5327 0.0000 ( 23850 PWs)   bands (ev):

   -36.3789 -36.3734 -36.3693 -36.3635 -36.3481 -36.3426 -36.3381 -36.3320
   -36.3309 -36.3250 -36.0783 -36.0778 -36.0517 -36.0211 -36.0121 -29.0588
   -29.0576 -29.0539 -29.0529 -29.0373 -29.0344 -29.0252 -29.0236 -29.0134
   -29.0112 -11.0042 -10.8519 -10.6223  -8.9587  -8.2890  -4.2932  -2.8539
    -2.5500  -2.4811  -1.7873  -1.2728  -0.2739  -0.0151   0.3874   2.8189
     3.2991   3.4853   4.8714   5.0208   5.7965   5.9423   7.5607   8.5863
     8.8516   9.2351   9.4573   9.7995  10.1618  10.4739  10.9317  11.4712
    11.6517  11.9083  12.0404  12.3383  12.3627  12.5361  12.7102  13.1123
    13.2384  13.5638  13.6619  13.8712  14.4131  14.4427  14.6179  14.8133
    14.8596  15.0151  15.0607  15.3065  15.5962  15.5967  15.7734  16.1615
    16.2520  16.4805  17.0480  17.1738  17.3176  17.4650  17.7982  18.0719
    18.3105  18.3914  18.4609  18.8089  19.0212  19.1769  19.1827  19.4753
    19.5196  20.2077  20.2854  20.3528

     occupation numbers 
     1.0000   1.0000   1.0000   1.0000   1.0000   1.0000   1.0000   1.0000
     1.0000   1.0000   1.0000   1.0000   1.0000   1.0000   1.0000   1.0000
     1.0000   1.0000   1.0000   1.0000   1.0000   1.0000   1.0000   1.0000
     1.0000   1.0000   1.0000   1.0000   1.0000   1.0000   1.0000   1.0000
     1.0000   1.0000   1.0000   1.0000   1.0000   1.0000   1.0000   0.0000
     0.0000   0.0000   0.0000   0.0000   0.0000   0.0000   0.0000   0.0000
     0.0000   0.0000   0.0000   0.0000   0.0000   0.0000   0.0000   0.0000
     0.0000   0.0000   0.0000   0.0000   0.0000   0.0000   0.0000   0.0000
     0.0000   0.0000   0.0000   0.0000   0.0000   0.0000   0.0000   0.0000
     0.0000   0.0000   0.0000   0.0000   0.0000   0.0000   0.0000   0.0000
     0.0000   0.0000   0.0000   0.0000   0.0000   0.0000   0.0000   0.0000
     0.0000   0.0000   0.0000   0.0000   0.0000   0.0000   0.0000   0.0000
     0.0000   0.0000   0.0000   0.0000

          k = 0.0769 0.0444 0.0000 ( 23753 PWs)   bands (ev):

   -36.4066 -36.4041 -36.4007 -36.3983 -36.3790 -36.3732 -36.3703 -36.3645
   -36.3527 -36.3470 -36.0919 -36.0856 -36.0818 -36.0527 -36.0501 -29.0615
   -29.0614 -29.0598 -29.0597 -29.0221 -29.0206 -29.0199 -29.0188 -28.9960
   -28.9949 -12.7336 -12.2092 -10.9545  -7.7794  -6.3052  -1.5181  -1.2234
    -1.0918  -0.9361  -0.7321  -0.4390   0.1989   0.4609   0.9821   2.5161
     2.7740   2.9016   3.7325   3.8401   4.2626   6.4620   6.6045   7.5448
     7.8954   8.2289   8.7319   8.9333   9.2572   9.4557   9.8333   9.8635
    10.3344  10.6992  10.9342  11.1521  11.5636  11.6602  11.8545  12.1196
    12.8989  12.9506  13.4621  13.4904  14.1815  14.3802  15.0577  15.1780
    15.3737  15.6680  16.0104  16.1976  16.2514  16.5213  16.6962  16.8583
    17.0340  17.1876  17.2176  17.3625  17.4742  17.5668  17.9616  18.3169
    18.5252  18.5631  18.6280  18.8271  18.8658  19.0310  19.0669  19.3384
    19.3486  19.4630  19.5885  19.8464

     occupation numbers 
     1.0000   1.0000   1.0000   1.0000   1.0000   1.0000   1.0000   1.0000
     1.0000   1.0000   1.0000   1.0000   1.0000   1.0000   1.0000   1.0000
     1.0000   1.0000   1.0000   1.0000   1.0000   1.0000   1.0000   1.0000
     1.0000   1.0000   1.0000   1.0000   1.0000   1.0000   1.0000   1.0000
     1.0000   1.0000   1.0000   1.0000   1.0000   1.0000   1.0000   0.0000
     0.0000   0.0000   0.0000   0.0000   0.0000   0.0000   0.0000   0.0000
     0.0000   0.0000   0.0000   0.0000   0.0000   0.0000   0.0000   0.0000
     0.0000   0.0000   0.0000   0.0000   0.0000   0.0000   0.0000   0.0000
     0.0000   0.0000   0.0000   0.0000   0.0000   0.0000   0.0000   0.0000
     0.0000   0.0000   0.0000   0.0000   0.0000   0.0000   0.0000   0.0000
     0.0000   0.0000   0.0000   0.0000   0.0000   0.0000   0.0000   0.0000
     0.0000   0.0000   0.0000   0.0000   0.0000   0.0000   0.0000   0.0000
     0.0000   0.0000   0.0000   0.0000

          k = 0.0769 0.1332 0.0000 ( 23761 PWs)   bands (ev):

   -36.4076 -36.4019 -36.3924 -36.3866 -36.3695 -36.3638 -36.3620 -36.3560
   -36.3465 -36.3407 -36.0880 -36.0837 -36.0810 -36.0452 -36.0451 -29.0656
   -29.0644 -29.0506 -29.0491 -29.0303 -29.0292 -29.0204 -29.0193 -29.0072
   -29.0059 -12.5950 -12.0595 -10.8669  -7.8392  -6.5516  -2.0573  -1.6668
    -1.4127  -1.2490  -0.8932  -0.5577  -0.0084   0.8953   0.9064   2.6385
     3.0625   3.0718   3.8682   4.1800   4.5315   6.6092   6.7108   7.6048
     7.8396   7.8461   8.9956   9.0296   9.2384   9.3408   9.6868  10.0357
    10.5549  10.8744  11.1582  11.5591  11.5814  11.8852  12.1176  12.3163
    13.1311  13.2646  13.6849  13.7893  13.9624  14.2637  14.4930  14.7159
    15.5157  15.5854  15.6329  15.8117  15.8861  15.8885  16.3298  16.9551
    17.1635  17.1680  17.4546  17.5389  17.7482  17.7957  17.8719  18.1287
    18.1700  18.3016  18.3107  18.3640  19.2086  19.6738  19.9730  20.0317
    20.0979  20.1256  20.3594  20.4494

     occupation numbers 
     1.0000   1.0000   1.0000   1.0000   1.0000   1.0000   1.0000   1.0000
     1.0000   1.0000   1.0000   1.0000   1.0000   1.0000   1.0000   1.0000
     1.0000   1.0000   1.0000   1.0000   1.0000   1.0000   1.0000   1.0000
     1.0000   1.0000   1.0000   1.0000   1.0000   1.0000   1.0000   1.0000
     1.0000   1.0000   1.0000   1.0000   1.0000   1.0000   1.0000   0.0000
     0.0000   0.0000   0.0000   0.0000   0.0000   0.0000   0.0000   0.0000
     0.0000   0.0000   0.0000   0.0000   0.0000   0.0000   0.0000   0.0000
     0.0000   0.0000   0.0000   0.0000   0.0000   0.0000   0.0000   0.0000
     0.0000   0.0000   0.0000   0.0000   0.0000   0.0000   0.0000   0.0000
     0.0000   0.0000   0.0000   0.0000   0.0000   0.0000   0.0000   0.0000
     0.0000   0.0000   0.0000   0.0000   0.0000   0.0000   0.0000   0.0000
     0.0000   0.0000   0.0000   0.0000   0.0000   0.0000   0.0000   0.0000
     0.0000   0.0000   0.0000   0.0000

          k = 0.0769 0.2220 0.0000 ( 23778 PWs)   bands (ev):

   -36.3955 -36.3899 -36.3891 -36.3833 -36.3590 -36.3538 -36.3535 -36.3476
   -36.3375 -36.3316 -36.0827 -36.0804 -36.0719 -36.0379 -36.0363 -29.0633
   -29.0621 -29.0482 -29.0467 -29.0352 -29.0339 -29.0248 -29.0233 -29.0163
   -29.0145 -12.3466 -11.8246 -10.7174  -7.9485  -6.9701  -2.7613  -2.2286
    -1.7996  -1.5210  -1.2237  -0.7875  -0.0425   0.5637   1.0610   2.8107
     3.0691   3.5692   4.0773   4.6715   4.9465   6.8206   6.8564   7.3218
     7.8390   8.0695   8.8950   9.1044   9.3326   9.6653  10.0914  10.2691
    10.7069  10.8738  11.5210  11.6951  12.0478  12.1979  12.6538  12.8160
    13.1329  13.4494  13.7791  13.8185  13.9046  14.1692  14.3702  14.6442
    14.7660  15.0274  15.2589  15.3566  16.1700  16.2451  16.4254  16.4934
    16.6783  17.0814  17.2706  17.3930  17.5823  17.6679  17.8818  18.2224
    18.7249  18.9903  19.1070  19.1812  19.2972  19.3787  19.5505  19.5912
    19.7724  20.0217  20.1189  20.2566

     occupation numbers 
     1.0000   1.0000   1.0000   1.0000   1.0000   1.0000   1.0000   1.0000
     1.0000   1.0000   1.0000   1.0000   1.0000   1.0000   1.0000   1.0000
     1.0000   1.0000   1.0000   1.0000   1.0000   1.0000   1.0000   1.0000
     1.0000   1.0000   1.0000   1.0000   1.0000   1.0000   1.0000   1.0000
     1.0000   1.0000   1.0000   1.0000   1.0000   1.0000   1.0000   0.0000
     0.0000   0.0000   0.0000   0.0000   0.0000   0.0000   0.0000   0.0000
     0.0000   0.0000   0.0000   0.0000   0.0000   0.0000   0.0000   0.0000
     0.0000   0.0000   0.0000   0.0000   0.0000   0.0000   0.0000   0.0000
     0.0000   0.0000   0.0000   0.0000   0.0000   0.0000   0.0000   0.0000
     0.0000   0.0000   0.0000   0.0000   0.0000   0.0000   0.0000   0.0000
     0.0000   0.0000   0.0000   0.0000   0.0000   0.0000   0.0000   0.0000
     0.0000   0.0000   0.0000   0.0000   0.0000   0.0000   0.0000   0.0000
     0.0000   0.0000   0.0000   0.0000

          k = 0.0769 0.3108 0.0000 ( 23811 PWs)   bands (ev):

   -36.3893 -36.3838 -36.3802 -36.3744 -36.3523 -36.3475 -36.3468 -36.3413
   -36.3324 -36.3265 -36.0789 -36.0781 -36.0625 -36.0294 -36.0262 -29.0599
   -29.0587 -29.0508 -29.0496 -29.0372 -29.0356 -29.0289 -29.0275 -29.0144
   -29.0126 -12.0119 -11.5333 -10.5597  -8.1541  -7.4712  -3.4093  -2.6399
    -2.0839  -1.8970  -1.5933  -0.8778  -0.0882   0.1400   0.9965   2.9642
     3.1588   3.6448   4.4339   4.9204   5.4401   6.5576   7.1981   7.4484
     8.0894   8.5050   8.6111   9.4256   9.6522  10.3435  10.4258  10.5459
    10.7994  11.1703  11.7599  11.8836  12.1023  12.6059  12.8510  12.9783
    13.1063  13.2642  13.3619  13.5458  13.9970  14.3717  14.7640  14.8006
    14.9469  15.0026  15.2698  15.6168  15.9405  16.0120  16.3104  16.6207
    16.7612  17.0348  17.1963  17.2493  17.3177  17.6776  17.8808  17.9389
    18.3379  18.5329  18.8569  19.0352  19.2360  19.3712  19.5601  19.6322
    19.8076  20.1030  20.2539  20.3554

     occupation numbers 
     1.0000   1.0000   1.0000   1.0000   1.0000   1.0000   1.0000   1.0000
     1.0000   1.0000   1.0000   1.0000   1.0000   1.0000   1.0000   1.0000
     1.0000   1.0000   1.0000   1.0000   1.0000   1.0000   1.0000   1.0000
     1.0000   1.0000   1.0000   1.0000   1.0000   1.0000   1.0000   1.0000
     1.0000   1.0000   1.0000   1.0000   1.0000   1.0000   1.0000   0.0000
     0.0000   0.0000   0.0000   0.0000   0.0000   0.0000   0.0000   0.0000
     0.0000   0.0000   0.0000   0.0000   0.0000   0.0000   0.0000   0.0000
     0.0000   0.0000   0.0000   0.0000   0.0000   0.0000   0.0000   0.0000
     0.0000   0.0000   0.0000   0.0000   0.0000   0.0000   0.0000   0.0000
     0.0000   0.0000   0.0000   0.0000   0.0000   0.0000   0.0000   0.0000
     0.0000   0.0000   0.0000   0.0000   0.0000   0.0000   0.0000   0.0000
     0.0000   0.0000   0.0000   0.0000   0.0000   0.0000   0.0000   0.0000
     0.0000   0.0000   0.0000   0.0000

          k = 0.0769 0.3996 0.0000 ( 23845 PWs)   bands (ev):

   -36.3831 -36.3775 -36.3742 -36.3684 -36.3488 -36.3433 -36.3430 -36.3368
   -36.3301 -36.3241 -36.0783 -36.0764 -36.0571 -36.0233 -36.0179 -29.0584
   -29.0571 -29.0517 -29.0506 -29.0374 -29.0358 -29.0279 -29.0267 -29.0139
   -29.0119 -11.6097 -11.2073 -10.4602  -8.4898  -7.9363  -3.8869  -2.8615
    -2.4432  -2.2008  -1.7153  -1.0768  -0.2690   0.0297   0.8036   2.9982
     3.1991   3.6305   4.6840   5.0656   5.7450   6.2678   7.4991   7.7850
     8.3135   8.8804   9.1258   9.7767   9.9930  10.2960  10.7288  11.0482
    11.1191  11.4786  11.7865  11.9003  11.9603  12.4187  12.6160  13.1523
    13.2690  13.5813  13.6537  13.9910  14.0110  14.1689  14.3901  14.4447
    14.6466  15.6224  15.7761  16.1511  16.2531  16.2784  16.3068  16.5833
    16.5999  16.7320  16.8991  16.9900  17.1169  17.3116  17.5850  17.8915
    18.0666  18.3214  18.5141  18.6681  19.0048  19.0797  19.2118  19.5713
    20.0141  20.1010  20.1559  20.4981

     occupation numbers 
     1.0000   1.0000   1.0000   1.0000   1.0000   1.0000   1.0000   1.0000
     1.0000   1.0000   1.0000   1.0000   1.0000   1.0000   1.0000   1.0000
     1.0000   1.0000   1.0000   1.0000   1.0000   1.0000   1.0000   1.0000
     1.0000   1.0000   1.0000   1.0000   1.0000   1.0000   1.0000   1.0000
     1.0000   1.0000   1.0000   1.0000   1.0000   1.0000   1.0000   0.0000
     0.0000   0.0000   0.0000   0.0000   0.0000   0.0000   0.0000   0.0000
     0.0000   0.0000   0.0000   0.0000   0.0000   0.0000   0.0000   0.0000
     0.0000   0.0000   0.0000   0.0000   0.0000   0.0000   0.0000   0.0000
     0.0000   0.0000   0.0000   0.0000   0.0000   0.0000   0.0000   0.0000
     0.0000   0.0000   0.0000   0.0000   0.0000   0.0000   0.0000   0.0000
     0.0000   0.0000   0.0000   0.0000   0.0000   0.0000   0.0000   0.0000
     0.0000   0.0000   0.0000   0.0000   0.0000   0.0000   0.0000   0.0000
     0.0000   0.0000   0.0000   0.0000

          k = 0.0769 0.4883 0.0000 ( 23825 PWs)   bands (ev):

   -36.3788 -36.3733 -36.3703 -36.3645 -36.3472 -36.3418 -36.3395 -36.3333
   -36.3307 -36.3248 -36.0789 -36.0755 -36.0550 -36.0194 -36.0125 -29.0576
   -29.0564 -29.0518 -29.0507 -29.0372 -29.0354 -29.0256 -29.0245 -29.0142
   -29.0119 -11.1740 -10.9134 -10.5002  -8.8501  -8.2694  -4.1805  -2.8999
    -2.7073  -2.4022  -1.8107  -1.2796  -0.3086  -0.0184   0.6206   3.0564
     3.1509   3.5410   4.8791   5.1013   5.8402   6.1038   7.5746   8.3444
     8.6507   9.3540   9.6054   9.6180  10.1744  10.4496  10.7882  10.9522
    11.3229  11.5097  11.9949  12.2327  12.4173  12.5673  12.7088  13.1127
    13.2298  13.4376  13.6201  13.7571  14.0505  14.2830  14.4184  14.7440
    14.9704  15.3154  15.5428  15.6835  15.7622  15.9739  16.1487  16.4210
    16.5708  16.6865  16.7028  17.1429  17.5252  17.6526  17.7010  18.0456
    18.1581  18.4854  18.5897  18.6656  18.8383  19.0537  19.2688  19.5239
    19.6335  19.8477  20.0357  20.3569

     occupation numbers 
     1.0000   1.0000   1.0000   1.0000   1.0000   1.0000   1.0000   1.0000
     1.0000   1.0000   1.0000   1.0000   1.0000   1.0000   1.0000   1.0000
     1.0000   1.0000   1.0000   1.0000   1.0000   1.0000   1.0000   1.0000
     1.0000   1.0000   1.0000   1.0000   1.0000   1.0000   1.0000   1.0000
     1.0000   1.0000   1.0000   1.0000   1.0000   1.0000   1.0000   0.0000
     0.0000   0.0000   0.0000   0.0000   0.0000   0.0000   0.0000   0.0000
     0.0000   0.0000   0.0000   0.0000   0.0000   0.0000   0.0000   0.0000
     0.0000   0.0000   0.0000   0.0000   0.0000   0.0000   0.0000   0.0000
     0.0000   0.0000   0.0000   0.0000   0.0000   0.0000   0.0000   0.0000
     0.0000   0.0000   0.0000   0.0000   0.0000   0.0000   0.0000   0.0000
     0.0000   0.0000   0.0000   0.0000   0.0000   0.0000   0.0000   0.0000
     0.0000   0.0000   0.0000   0.0000   0.0000   0.0000   0.0000   0.0000
     0.0000   0.0000   0.0000   0.0000

          k = 0.0769 0.5771 0.0000 ( 23828 PWs)   bands (ev):

   -36.3776 -36.3721 -36.3687 -36.3630 -36.3468 -36.3413 -36.3380 -36.3317
   -36.3317 -36.3259 -36.0793 -36.0753 -36.0545 -36.0180 -36.0107 -29.0573
   -29.0561 -29.0517 -29.0507 -29.0369 -29.0350 -29.0244 -29.0234 -29.0143
   -29.0120 -10.8294 -10.7954 -10.6811  -9.0102  -8.3964  -4.2812  -2.8716
    -2.7857  -2.5040  -1.8767  -1.3371  -0.2781  -0.0705   0.5544   3.1074
     3.1107   3.4816   4.9555   5.1024   5.9010   5.9845   7.6337   8.7702
     9.0629   9.1193   9.2477  10.0421  10.1903  10.1910  10.8995  11.4040
    11.4573  11.6986  11.9874  12.2800  12.3426  12.4276  12.9016  12.9448
    13.1053  13.3390  13.6496  14.0610  14.1337  14.4871  14.7888  14.8398
    15.0009  15.0807  15.1123  15.1315  15.6236  15.6309  16.0022  16.3096
    16.5332  16.6631  16.9189  17.1110  17.2407  17.7925  17.8391  18.0645
    18.3837  18.8086  18.8405  18.9932  19.0495  19.0952  19.2357  19.7685
    19.7949  19.9482  19.9759  20.0645

     occupation numbers 
     1.0000   1.0000   1.0000   1.0000   1.0000   1.0000   1.0000   1.0000
     1.0000   1.0000   1.0000   1.0000   1.0000   1.0000   1.0000   1.0000
     1.0000   1.0000   1.0000   1.0000   1.0000   1.0000   1.0000   1.0000
     1.0000   1.0000   1.0000   1.0000   1.0000   1.0000   1.0000   1.0000
     1.0000   1.0000   1.0000   1.0000   1.0000   1.0000   1.0000   0.0000
     0.0000   0.0000   0.0000   0.0000   0.0000   0.0000   0.0000   0.0000
     0.0000   0.0000   0.0000   0.0000   0.0000   0.0000   0.0000   0.0000
     0.0000   0.0000   0.0000   0.0000   0.0000   0.0000   0.0000   0.0000
     0.0000   0.0000   0.0000   0.0000   0.0000   0.0000   0.0000   0.0000
     0.0000   0.0000   0.0000   0.0000   0.0000   0.0000   0.0000   0.0000
     0.0000   0.0000   0.0000   0.0000   0.0000   0.0000   0.0000   0.0000
     0.0000   0.0000   0.0000   0.0000   0.0000   0.0000   0.0000   0.0000
     0.0000   0.0000   0.0000   0.0000

          k = 0.1538 0.0888 0.0000 ( 23745 PWs)   bands (ev):

   -36.3967 -36.3913 -36.3909 -36.3855 -36.3617 -36.3613 -36.3559 -36.3556
   -36.3426 -36.3369 -36.0861 -36.0798 -36.0736 -36.0461 -36.0427 -29.0604
   -29.0593 -29.0588 -29.0577 -29.0347 -29.0329 -29.0237 -29.0225 -29.0156
   -29.0143 -12.5304 -11.9918 -10.8173  -7.8669  -6.6595  -2.3761  -1.6481
    -1.4771  -1.3889  -0.9705  -0.8032   0.2437   0.5777   0.9816   2.7746
     2.9750   3.2650   4.1025   4.1364   4.6904   6.6693   6.7348   7.3706
     7.8779   8.1262   9.0033   9.0046   9.1477   9.3268  10.0459  10.1373
    10.2028  10.8881  11.2741  11.5201  11.8251  12.1097  12.3881  12.5595
    13.0300  13.2015  13.4455  13.8472  13.9661  14.4044  14.5097  14.9172
    15.0415  15.1190  15.5907  15.8204  16.2427  16.3574  16.4963  16.5202
    16.7453  16.8920  16.9963  17.1780  17.3358  17.8336  18.2434  18.4917
    18.5036  18.6797  18.8072  18.8276  19.0215  19.5830  19.7219  19.8066
    19.8752  19.9537  20.1404  20.4247

     occupation numbers 
     1.0000   1.0000   1.0000   1.0000   1.0000   1.0000   1.0000   1.0000
     1.0000   1.0000   1.0000   1.0000   1.0000   1.0000   1.0000   1.0000
     1.0000   1.0000   1.0000   1.0000   1.0000   1.0000   1.0000   1.0000
     1.0000   1.0000   1.0000   1.0000   1.0000   1.0000   1.0000   1.0000
     1.0000   1.0000   1.0000   1.0000   1.0000   1.0000   1.0000   0.0000
     0.0000   0.0000   0.0000   0.0000   0.0000   0.0000   0.0000   0.0000
     0.0000   0.0000   0.0000   0.0000   0.0000   0.0000   0.0000   0.0000
     0.0000   0.0000   0.0000   0.0000   0.0000   0.0000   0.0000   0.0000
     0.0000   0.0000   0.0000   0.0000   0.0000   0.0000   0.0000   0.0000
     0.0000   0.0000   0.0000   0.0000   0.0000   0.0000   0.0000   0.0000
     0.0000   0.0000   0.0000   0.0000   0.0000   0.0000   0.0000   0.0000
     0.0000   0.0000   0.0000   0.0000   0.0000   0.0000   0.0000   0.0000
     0.0000   0.0000   0.0000   0.0000

          k = 0.1538 0.1776 0.0000 ( 23774 PWs)   bands (ev):

   -36.3956 -36.3898 -36.3891 -36.3833 -36.3590 -36.3538 -36.3535 -36.3476
   -36.3374 -36.3316 -36.0827 -36.0804 -36.0720 -36.0379 -36.0363 -29.0634
   -29.0621 -29.0482 -29.0467 -29.0352 -29.0339 -29.0248 -29.0233 -29.0163
   -29.0145 -12.3464 -11.8245 -10.7171  -7.9482  -6.9701  -2.7609  -2.2288
    -1.7986  -1.5227  -1.2236  -0.7887  -0.0429   0.5639   1.0603   2.8110
     3.0674   3.5695   4.0781   4.6676   4.9502   6.8209   6.8564   7.3222
     7.8389   8.0696   8.8953   9.1053   9.3324   9.6626  10.0915  10.2699
    10.7049  10.8750  11.5213  11.6942  12.0473  12.1992  12.6538  12.8166
    13.1360  13.4509  13.7789  13.8198  13.9027  14.1692  14.3715  14.6443
    14.7668  15.0245  15.2588  15.3542  16.1706  16.2482  16.4255  16.4928
    16.6796  17.0779  17.2678  17.3907  17.5802  17.6673  17.8817  18.2245
    18.7242  18.9924  19.1096  19.1827  19.2995  19.3781  19.5523  19.5907
    19.7718  20.0208  20.1167  20.2536

     occupation numbers 
     1.0000   1.0000   1.0000   1.0000   1.0000   1.0000   1.0000   1.0000
     1.0000   1.0000   1.0000   1.0000   1.0000   1.0000   1.0000   1.0000
     1.0000   1.0000   1.0000   1.0000   1.0000   1.0000   1.0000   1.0000
     1.0000   1.0000   1.0000   1.0000   1.0000   1.0000   1.0000   1.0000
     1.0000   1.0000   1.0000   1.0000   1.0000   1.0000   1.0000   0.0000
     0.0000   0.0000   0.0000   0.0000   0.0000   0.0000   0.0000   0.0000
     0.0000   0.0000   0.0000   0.0000   0.0000   0.0000   0.0000   0.0000
     0.0000   0.0000   0.0000   0.0000   0.0000   0.0000   0.0000   0.0000
     0.0000   0.0000   0.0000   0.0000   0.0000   0.0000   0.0000   0.0000
     0.0000   0.0000   0.0000   0.0000   0.0000   0.0000   0.0000   0.0000
     0.0000   0.0000   0.0000   0.0000   0.0000   0.0000   0.0000   0.0000
     0.0000   0.0000   0.0000   0.0000   0.0000   0.0000   0.0000   0.0000
     0.0000   0.0000   0.0000   0.0000

          k = 0.1538 0.2664 0.0000 ( 23783 PWs)   bands (ev):

   -36.3904 -36.3850 -36.3848 -36.3790 -36.3531 -36.3476 -36.3470 -36.3408
   -36.3264 -36.3204 -36.0826 -36.0806 -36.0659 -36.0258 -36.0240 -29.0606
   -29.0593 -29.0491 -29.0477 -29.0374 -29.0362 -29.0268 -29.0247 -29.0241
   -29.0226 -12.0606 -11.5665 -10.5758  -8.1052  -7.4145  -3.0626  -2.9579
    -2.0293  -1.8599  -1.5380  -1.0873  -0.0614   0.6799   0.7756   2.9403
     3.4118   3.4799   4.2843   5.1746   5.2211   7.0392   7.0460   7.3963
     7.6663   8.3696   8.5625   9.0764   9.6647  10.2683  10.5246  10.5653
    10.8421  11.3428  11.6939  11.7543  12.3785  12.7314  12.8575  12.8910
    13.0205  13.2963  13.4784  13.8400  13.8474  13.9215  13.9764  14.6310
    14.9728  15.1859  15.5659  15.6533  15.8872  15.9307  16.1712  16.2279
    16.8245  17.0145  17.4218  17.4640  17.6133  17.9075  18.3452  18.4492
    18.5363  18.6426  18.7213  18.8255  18.8953  19.1462  19.1559  19.2349
    19.6477  20.2281  20.4550  20.7481

     occupation numbers 
     1.0000   1.0000   1.0000   1.0000   1.0000   1.0000   1.0000   1.0000
     1.0000   1.0000   1.0000   1.0000   1.0000   1.0000   1.0000   1.0000
     1.0000   1.0000   1.0000   1.0000   1.0000   1.0000   1.0000   1.0000
     1.0000   1.0000   1.0000   1.0000   1.0000   1.0000   1.0000   1.0000
     1.0000   1.0000   1.0000   1.0000   1.0000   1.0000   1.0000   0.0000
     0.0000   0.0000   0.0000   0.0000   0.0000   0.0000   0.0000   0.0000
     0.0000   0.0000   0.0000   0.0000   0.0000   0.0000   0.0000   0.0000
     0.0000   0.0000   0.0000   0.0000   0.0000   0.0000   0.0000   0.0000
     0.0000   0.0000   0.0000   0.0000   0.0000   0.0000   0.0000   0.0000
     0.0000   0.0000   0.0000   0.0000   0.0000   0.0000   0.0000   0.0000
     0.0000   0.0000   0.0000   0.0000   0.0000   0.0000   0.0000   0.0000
     0.0000   0.0000   0.0000   0.0000   0.0000   0.0000   0.0000   0.0000
     0.0000   0.0000   0.0000   0.0000

          k = 0.1538 0.3552 0.0000 ( 23813 PWs)   bands (ev):

   -36.3834 -36.3778 -36.3765 -36.3706 -36.3510 -36.3455 -36.3434 -36.3372
   -36.3260 -36.3199 -36.0815 -36.0783 -36.0618 -36.0203 -36.0178 -29.0556
   -29.0544 -29.0483 -29.0471 -29.0363 -29.0347 -29.0299 -29.0282 -29.0212
   -29.0194 -11.6987 -11.2622 -10.4556  -8.3546  -7.9049  -3.5707  -3.1657
    -2.4077  -2.1454  -1.8508  -1.2770  -0.0407   0.2854   0.7945   3.0211
     3.4935   3.5674   4.5763   5.3069   5.5694   6.8393   7.4491   7.7093
     7.9838   8.4004   8.8164   9.2710   9.9064  10.1867  10.8152  10.9150
    11.2305  11.6227  11.9048  12.2597  12.3821  12.4595  12.8159  12.9816
    13.0934  13.2496  13.4858  13.5666  13.6803  13.9125  14.5704  14.6674
    14.7772  15.1275  15.3040  15.6868  15.8895  16.1349  16.2202  16.6471
    16.7080  17.0454  17.2667  17.4706  17.5916  17.7476  17.9417  18.2520
    18.2948  18.3979  18.5359  18.7044  18.9490  19.5881  19.8774  19.9727
    20.0386  20.1590  20.3543  20.4508

     occupation numbers 
     1.0000   1.0000   1.0000   1.0000   1.0000   1.0000   1.0000   1.0000
     1.0000   1.0000   1.0000   1.0000   1.0000   1.0000   1.0000   1.0000
     1.0000   1.0000   1.0000   1.0000   1.0000   1.0000   1.0000   1.0000
     1.0000   1.0000   1.0000   1.0000   1.0000   1.0000   1.0000   1.0000
     1.0000   1.0000   1.0000   1.0000   1.0000   1.0000   1.0000   0.0000
     0.0000   0.0000   0.0000   0.0000   0.0000   0.0000   0.0000   0.0000
     0.0000   0.0000   0.0000   0.0000   0.0000   0.0000   0.0000   0.0000
     0.0000   0.0000   0.0000   0.0000   0.0000   0.0000   0.0000   0.0000
     0.0000   0.0000   0.0000   0.0000   0.0000   0.0000   0.0000   0.0000
     0.0000   0.0000   0.0000   0.0000   0.0000   0.0000   0.0000   0.0000
     0.0000   0.0000   0.0000   0.0000   0.0000   0.0000   0.0000   0.0000
     0.0000   0.0000   0.0000   0.0000   0.0000   0.0000   0.0000   0.0000
     0.0000   0.0000   0.0000   0.0000

          k = 0.1538 0.4439 0.0000 ( 23820 PWs)   bands (ev):

   -36.3786 -36.3731 -36.3725 -36.3667 -36.3494 -36.3440 -36.3380 -36.3317
   -36.3294 -36.3234 -36.0809 -36.0751 -36.0599 -36.0181 -36.0144 -29.0524
   -29.0513 -29.0473 -29.0463 -29.0351 -29.0340 -29.0273 -29.0263 -29.0169
   -29.0149 -11.2813 -10.9510 -10.4111  -8.7006  -8.3182  -3.9532  -3.2030
    -2.6721  -2.5292  -1.9057  -1.4435  -0.2298   0.1383   0.7707   2.9540
     3.5473   3.6658   4.7425   5.3756   5.8025   6.6156   7.7479   8.1432
     8.5382   8.6920   9.3408   9.4573  10.0950  10.2670  10.5760  10.9502
    11.3218  11.4694  11.8402  11.9349  12.3226  12.6487  12.9571  13.1219
    13.2383  13.5099  13.5710  13.6491  13.7747  14.0711  14.2306  14.3210
    14.8743  14.9871  15.2649  15.7352  16.0332  16.2650  16.3820  16.4641
    16.9435  17.1446  17.4197  17.5484  17.6320  17.9153  18.0438  18.1103
    18.3171  18.5995  18.6718  18.8588  18.9735  19.0930  19.7029  19.8051
    19.9681  20.2391  20.3035  20.5750

     occupation numbers 
     1.0000   1.0000   1.0000   1.0000   1.0000   1.0000   1.0000   1.0000
     1.0000   1.0000   1.0000   1.0000   1.0000   1.0000   1.0000   1.0000
     1.0000   1.0000   1.0000   1.0000   1.0000   1.0000   1.0000   1.0000
     1.0000   1.0000   1.0000   1.0000   1.0000   1.0000   1.0000   1.0000
     1.0000   1.0000   1.0000   1.0000   1.0000   1.0000   1.0000   0.0000
     0.0000   0.0000   0.0000   0.0000   0.0000   0.0000   0.0000   0.0000
     0.0000   0.0000   0.0000   0.0000   0.0000   0.0000   0.0000   0.0000
     0.0000   0.0000   0.0000   0.0000   0.0000   0.0000   0.0000   0.0000
     0.0000   0.0000   0.0000   0.0000   0.0000   0.0000   0.0000   0.0000
     0.0000   0.0000   0.0000   0.0000   0.0000   0.0000   0.0000   0.0000
     0.0000   0.0000   0.0000   0.0000   0.0000   0.0000   0.0000   0.0000
     0.0000   0.0000   0.0000   0.0000   0.0000   0.0000   0.0000   0.0000
     0.0000   0.0000   0.0000   0.0000

          k = 0.1538 0.5327 0.0000 ( 23831 PWs)   bands (ev):

   -36.3773 -36.3717 -36.3709 -36.3651 -36.3469 -36.3415 -36.3351 -36.3294
   -36.3287 -36.3236 -36.0800 -36.0720 -36.0592 -36.0163 -36.0117 -29.0518
   -29.0506 -29.0477 -29.0467 -29.0351 -29.0341 -29.0252 -29.0241 -29.0164
   -29.0141 -10.8677 -10.7281 -10.5165  -8.9880  -8.5582  -4.1441  -3.1844
    -2.9825  -2.5087  -1.9162  -1.6681  -0.3016   0.1021   0.7012   3.0361
     3.4716   3.6031   4.9177   5.3919   5.8871   6.4867   7.8201   8.6917
     8.9701   9.2398   9.3984   9.8001  10.0709  10.2640  10.7197  10.8160
    11.0060  11.3226  11.5295  11.9934  12.2445  12.4503  12.6245  12.8725
    12.9586  13.2068  13.7009  13.8012  14.0495  14.5483  14.6873  14.8744
    14.9478  15.2043  15.4399  15.5597  15.8697  15.9090  16.4144  16.6219
    16.8872  16.9324  17.5248  17.5854  17.7050  17.7435  18.0862  18.1813
    18.4420  18.6023  18.7787  18.8712  19.2599  19.4780  19.5345  19.6576
    19.7189  20.0022  20.2170  20.5440

     occupation numbers 
     1.0000   1.0000   1.0000   1.0000   1.0000   1.0000   1.0000   1.0000
     1.0000   1.0000   1.0000   1.0000   1.0000   1.0000   1.0000   1.0000
     1.0000   1.0000   1.0000   1.0000   1.0000   1.0000   1.0000   1.0000
     1.0000   1.0000   1.0000   1.0000   1.0000   1.0000   1.0000   1.0000
     1.0000   1.0000   1.0000   1.0000   1.0000   1.0000   1.0000   0.0000
     0.0000   0.0000   0.0000   0.0000   0.0000   0.0000   0.0000   0.0000
     0.0000   0.0000   0.0000   0.0000   0.0000   0.0000   0.0000   0.0000
     0.0000   0.0000   0.0000   0.0000   0.0000   0.0000   0.0000   0.0000
     0.0000   0.0000   0.0000   0.0000   0.0000   0.0000   0.0000   0.0000
     0.0000   0.0000   0.0000   0.0000   0.0000   0.0000   0.0000   0.0000
     0.0000   0.0000   0.0000   0.0000   0.0000   0.0000   0.0000   0.0000
     0.0000   0.0000   0.0000   0.0000   0.0000   0.0000   0.0000   0.0000
     0.0000   0.0000   0.0000   0.0000

          k = 0.1538-0.0000 0.0000 ( 23767 PWs)   bands (ev):

   -36.4077 -36.4018 -36.3925 -36.3866 -36.3696 -36.3637 -36.3617 -36.3562
   -36.3464 -36.3407 -36.0881 -36.0837 -36.0809 -36.0452 -36.0451 -29.0656
   -29.0644 -29.0506 -29.0491 -29.0303 -29.0292 -29.0203 -29.0194 -29.0073
   -29.0059 -12.5949 -12.0594 -10.8667  -7.8391  -6.5515  -2.0575  -1.6672
    -1.4126  -1.2472  -0.8946  -0.5575  -0.0092   0.8957   0.9049   2.6354
     3.0640   3.0713   3.8656   4.1826   4.5324   6.6093   6.7108   7.6042
     7.8398   7.8462   8.9959   9.0299   9.2361   9.3417   9.6867  10.0362
    10.5528  10.8737  11.1592  11.5592  11.5819  11.8858  12.1187  12.3187
    13.1325  13.2626  13.6837  13.7911  13.9626  14.2629  14.4946  14.7164
    15.5170  15.5844  15.6340  15.8127  15.8867  15.8898  16.3293  16.9532
    17.1615  17.1669  17.4555  17.5398  17.7471  17.7944  17.8728  18.1258
    18.1667  18.2980  18.3082  18.3641  19.2112  19.6760  19.9705  20.0326
    20.0939  20.1212  20.3605  20.4514

     occupation numbers 
     1.0000   1.0000   1.0000   1.0000   1.0000   1.0000   1.0000   1.0000
     1.0000   1.0000   1.0000   1.0000   1.0000   1.0000   1.0000   1.0000
     1.0000   1.0000   1.0000   1.0000   1.0000   1.0000   1.0000   1.0000
     1.0000   1.0000   1.0000   1.0000   1.0000   1.0000   1.0000   1.0000
     1.0000   1.0000   1.0000   1.0000   1.0000   1.0000   1.0000   0.0000
     0.0000   0.0000   0.0000   0.0000   0.0000   0.0000   0.0000   0.0000
     0.0000   0.0000   0.0000   0.0000   0.0000   0.0000   0.0000   0.0000
     0.0000   0.0000   0.0000   0.0000   0.0000   0.0000   0.0000   0.0000
     0.0000   0.0000   0.0000   0.0000   0.0000   0.0000   0.0000   0.0000
     0.0000   0.0000   0.0000   0.0000   0.0000   0.0000   0.0000   0.0000
     0.0000   0.0000   0.0000   0.0000   0.0000   0.0000   0.0000   0.0000
     0.0000   0.0000   0.0000   0.0000   0.0000   0.0000   0.0000   0.0000
     0.0000   0.0000   0.0000   0.0000

          k = 0.2308 0.1332 0.0000 ( 23783 PWs)   bands (ev):

   -36.3918 -36.3860 -36.3847 -36.3788 -36.3550 -36.3520 -36.3492 -36.3463
   -36.3371 -36.3313 -36.0811 -36.0770 -36.0648 -36.0386 -36.0340 -29.0582
   -29.0568 -29.0552 -29.0539 -29.0370 -29.0350 -29.0278 -29.0264 -29.0116
   -29.0100 -12.2321 -11.7262 -10.6548  -8.0125  -7.1420  -3.1310  -2.1492
    -1.8582  -1.8509  -1.2537  -0.7685  -0.0605   0.2004   1.0615   2.7772
     3.1573   3.6605   4.4280   4.4789   5.2103   6.5986   6.9723   7.2923
     8.0694   8.4259   8.8801   9.3921   9.4423   9.4852  10.3453  10.4594
    10.4984  11.0842  11.0926  12.0442  12.2868  12.5720  12.7879  12.8174
    13.0193  13.0604  13.5070  13.6610  14.0648  14.3325  14.5953  14.9226
    15.1416  15.1805  15.4264  15.6530  15.7278  15.9230  16.1074  16.2114
    16.4180  16.8017  17.1887  17.5187  17.8850  17.9873  18.1132  18.1911
    18.3067  18.5392  18.9844  19.0604  19.2394  19.4278  19.6748  19.8748
    19.8898  20.2179  20.5217  20.5903

     occupation numbers 
     1.0000   1.0000   1.0000   1.0000   1.0000   1.0000   1.0000   1.0000
     1.0000   1.0000   1.0000   1.0000   1.0000   1.0000   1.0000   1.0000
     1.0000   1.0000   1.0000   1.0000   1.0000   1.0000   1.0000   1.0000
     1.0000   1.0000   1.0000   1.0000   1.0000   1.0000   1.0000   1.0000
     1.0000   1.0000   1.0000   1.0000   1.0000   1.0000   1.0000   0.0000
     0.0000   0.0000   0.0000   0.0000   0.0000   0.0000   0.0000   0.0000
     0.0000   0.0000   0.0000   0.0000   0.0000   0.0000   0.0000   0.0000
     0.0000   0.0000   0.0000   0.0000   0.0000   0.0000   0.0000   0.0000
     0.0000   0.0000   0.0000   0.0000   0.0000   0.0000   0.0000   0.0000
     0.0000   0.0000   0.0000   0.0000   0.0000   0.0000   0.0000   0.0000
     0.0000   0.0000   0.0000   0.0000   0.0000   0.0000   0.0000   0.0000
     0.0000   0.0000   0.0000   0.0000   0.0000   0.0000   0.0000   0.0000
     0.0000   0.0000   0.0000   0.0000

          k = 0.2308 0.2220 0.0000 ( 23809 PWs)   bands (ev):

   -36.3895 -36.3836 -36.3802 -36.3744 -36.3525 -36.3474 -36.3467 -36.3413
   -36.3323 -36.3265 -36.0788 -36.0781 -36.0625 -36.0294 -36.0261 -29.0599
   -29.0587 -29.0508 -29.0497 -29.0372 -29.0356 -29.0289 -29.0275 -29.0144
   -29.0127 -12.0115 -11.5330 -10.5592  -8.1533  -7.4716  -3.4093  -2.6395
    -2.0837  -1.8985  -1.5944  -0.8792  -0.0884   0.1392   0.9956   2.9630
     3.1572   3.6456   4.4345   4.9168   5.4430   6.5578   7.1985   7.4488
     8.0901   8.5056   8.6114   9.4270   9.6522  10.3406  10.4262  10.5463
    10.7988  11.1698  11.7602  11.8810  12.1025  12.6088  12.8521  12.9810
    13.1069  13.2668  13.3625  13.5434  13.9943  14.3695  14.7621  14.7999
    14.9490  15.0060  15.2724  15.6165  15.9387  16.0117  16.3105  16.6181
    16.7581  17.0331  17.1964  17.2465  17.3164  17.6791  17.8805  17.9415
    18.3404  18.5330  18.8553  19.0339  19.2400  19.3709  19.5610  19.6301
    19.8067  20.1048  20.2604  20.3581

     occupation numbers 
     1.0000   1.0000   1.0000   1.0000   1.0000   1.0000   1.0000   1.0000
     1.0000   1.0000   1.0000   1.0000   1.0000   1.0000   1.0000   1.0000
     1.0000   1.0000   1.0000   1.0000   1.0000   1.0000   1.0000   1.0000
     1.0000   1.0000   1.0000   1.0000   1.0000   1.0000   1.0000   1.0000
     1.0000   1.0000   1.0000   1.0000   1.0000   1.0000   1.0000   0.0000
     0.0000   0.0000   0.0000   0.0000   0.0000   0.0000   0.0000   0.0000
     0.0000   0.0000   0.0000   0.0000   0.0000   0.0000   0.0000   0.0000
     0.0000   0.0000   0.0000   0.0000   0.0000   0.0000   0.0000   0.0000
     0.0000   0.0000   0.0000   0.0000   0.0000   0.0000   0.0000   0.0000
     0.0000   0.0000   0.0000   0.0000   0.0000   0.0000   0.0000   0.0000
     0.0000   0.0000   0.0000   0.0000   0.0000   0.0000   0.0000   0.0000
     0.0000   0.0000   0.0000   0.0000   0.0000   0.0000   0.0000   0.0000
     0.0000   0.0000   0.0000   0.0000

          k = 0.2308 0.3108 0.0000 ( 23817 PWs)   bands (ev):

   -36.3834 -36.3777 -36.3765 -36.3706 -36.3511 -36.3455 -36.3432 -36.3372
   -36.3259 -36.3200 -36.0815 -36.0782 -36.0618 -36.0203 -36.0178 -29.0556
   -29.0544 -29.0483 -29.0471 -29.0363 -29.0347 -29.0299 -29.0281 -29.0212
   -29.0195 -11.6985 -11.2621 -10.4553  -8.3541  -7.9053  -3.5708  -3.1657
    -2.4078  -2.1457  -1.8510  -1.2779  -0.0406   0.2849   0.7939   3.0198
     3.4937   3.5673   4.5762   5.3044   5.5717   6.8387   7.4497   7.7096
     7.9846   8.4005   8.8166   9.2721   9.9067  10.1865  10.8150  10.9160
    11.2310  11.6218  11.9029  12.2603  12.3834  12.4590  12.8154  12.9828
    13.0926  13.2491  13.4844  13.5646  13.6792  13.9137  14.5719  14.6690
    14.7797  15.1259  15.3032  15.6838  15.8897  16.1361  16.2191  16.6467
    16.7096  17.0440  17.2688  17.4695  17.5914  17.7473  17.9437  18.2511
    18.2943  18.3951  18.5322  18.7027  18.9528  19.5894  19.8816  19.9766
    20.0416  20.1603  20.3527  20.4510

     occupation numbers 
     1.0000   1.0000   1.0000   1.0000   1.0000   1.0000   1.0000   1.0000
     1.0000   1.0000   1.0000   1.0000   1.0000   1.0000   1.0000   1.0000
     1.0000   1.0000   1.0000   1.0000   1.0000   1.0000   1.0000   1.0000
     1.0000   1.0000   1.0000   1.0000   1.0000   1.0000   1.0000   1.0000
     1.0000   1.0000   1.0000   1.0000   1.0000   1.0000   1.0000   0.0000
     0.0000   0.0000   0.0000   0.0000   0.0000   0.0000   0.0000   0.0000
     0.0000   0.0000   0.0000   0.0000   0.0000   0.0000   0.0000   0.0000
     0.0000   0.0000   0.0000   0.0000   0.0000   0.0000   0.0000   0.0000
     0.0000   0.0000   0.0000   0.0000   0.0000   0.0000   0.0000   0.0000
     0.0000   0.0000   0.0000   0.0000   0.0000   0.0000   0.0000   0.0000
     0.0000   0.0000   0.0000   0.0000   0.0000   0.0000   0.0000   0.0000
     0.0000   0.0000   0.0000   0.0000   0.0000   0.0000   0.0000   0.0000
     0.0000   0.0000   0.0000   0.0000

          k = 0.2308 0.3996 0.0000 ( 23815 PWs)   bands (ev):

   -36.3805 -36.3749 -36.3656 -36.3597 -36.3484 -36.3428 -36.3398 -36.3338
   -36.3268 -36.3208 -36.0795 -36.0740 -36.0593 -36.0158 -36.0133 -29.0510
   -29.0500 -29.0471 -29.0461 -29.0341 -29.0322 -29.0292 -29.0284 -29.0266
   -29.0257 -11.3142 -10.9594 -10.3688  -8.6083  -8.3753  -3.6812  -3.5729
    -2.6106  -2.3602  -2.2448  -1.4864  -0.1120   0.3579   0.5797   3.3079
     3.3521   3.6759   4.9271   5.4356   5.6954   7.3875   7.4962   7.9801
     8.1780   8.6190   9.0763   9.2918  10.0949  10.1116  10.7987  11.0472
    11.1534  11.5133  11.8824  11.9663  12.2224  12.5694  12.8321  12.8486
    13.1971  13.4749  13.5943  13.8653  13.8886  14.2608  14.3899  14.4894
    14.5847  14.7698  15.1154  15.1210  15.7996  16.0285  16.4640  16.9383
    17.0879  17.3098  17.3346  17.6143  17.7614  17.9520  18.1429  18.4994
    18.5657  18.6848  19.0338  19.4320  19.5344  19.5440  19.7447  19.8618
[...]
     1.0000   1.0000   1.0000   1.0000   1.0000   1.0000   1.0000   1.0000
     1.0000   1.0000   1.0000   1.0000   1.0000   1.0000   1.0000   0.0000
     0.0000   0.0000   0.0000   0.0000   0.0000   0.0000   0.0000   0.0000
     0.0000   0.0000   0.0000   0.0000   0.0000   0.0000   0.0000   0.0000
     0.0000   0.0000   0.0000   0.0000   0.0000   0.0000   0.0000   0.0000
     0.0000   0.0000   0.0000   0.0000   0.0000   0.0000   0.0000   0.0000
     0.0000   0.0000   0.0000   0.0000   0.0000   0.0000   0.0000   0.0000
     0.0000   0.0000   0.0000   0.0000   0.0000   0.0000   0.0000   0.0000
     0.0000   0.0000   0.0000   0.0000   0.0000   0.0000   0.0000   0.0000
     0.0000   0.0000   0.0000   0.0000

          k =-0.3846-0.1332 0.0000 ( 23841 PWs)   bands (ev):

   -36.4098 -36.4008 -36.3754 -36.3693 -36.3565 -36.3482 -36.3392 -36.3145
   -36.3080 -36.2954 -36.0850 -36.0830 -36.0638 -36.0300 -36.0246 -29.0780
   -29.0713 -29.0566 -29.0477 -29.0474 -29.0410 -29.0329 -29.0264 -29.0172
   -29.0028 -11.6131 -11.2069 -10.4623  -8.4926  -7.9403  -3.8916  -2.8643
    -2.4474  -2.2039  -1.7184  -1.0790  -0.2721   0.0252   0.7991   2.9933
     3.1942   3.6278   4.6786   5.0605   5.7438   6.2630   7.4992   7.7875
     8.3143   8.8803   9.1230   9.7766   9.9941  10.2944  10.7302  11.0484
    11.1194  11.4775  11.7871  11.9017  11.9596  12.4161  12.6155  13.1503
    13.2692  13.5815  13.6554  13.9911  14.0108  14.1684  14.3901  14.4478
    14.6449  15.6194  15.7757  16.1530  16.2563  16.2775  16.3071  16.5819
    16.6011  16.7337  16.8978  16.9900  17.1181  17.3108  17.5861  17.8894
    18.0662  18.3205  18.5131  18.6671  19.0008  19.0786  19.2107  19.5696
    20.0165  20.1021  20.1530  20.5001

     occupation numbers 
     1.0000   1.0000   1.0000   1.0000   1.0000   1.0000   1.0000   1.0000
     1.0000   1.0000   1.0000   1.0000   1.0000   1.0000   1.0000   1.0000
     1.0000   1.0000   1.0000   1.0000   1.0000   1.0000   1.0000   1.0000
     1.0000   1.0000   1.0000   1.0000   1.0000   1.0000   1.0000   1.0000
     1.0000   1.0000   1.0000   1.0000   1.0000   1.0000   1.0000   0.0000
     0.0000   0.0000   0.0000   0.0000   0.0000   0.0000   0.0000   0.0000
     0.0000   0.0000   0.0000   0.0000   0.0000   0.0000   0.0000   0.0000
     0.0000   0.0000   0.0000   0.0000   0.0000   0.0000   0.0000   0.0000
     0.0000   0.0000   0.0000   0.0000   0.0000   0.0000   0.0000   0.0000
     0.0000   0.0000   0.0000   0.0000   0.0000   0.0000   0.0000   0.0000
     0.0000   0.0000   0.0000   0.0000   0.0000   0.0000   0.0000   0.0000
     0.0000   0.0000   0.0000   0.0000   0.0000   0.0000   0.0000   0.0000
     0.0000   0.0000   0.0000   0.0000

          k =-0.3846-0.0444 0.0000 ( 23816 PWs)   bands (ev):

   -36.4100 -36.4032 -36.3776 -36.3697 -36.3524 -36.3486 -36.3414 -36.3167
   -36.3084 -36.2912 -36.0882 -36.0850 -36.0684 -36.0270 -36.0246 -29.0752
   -29.0678 -29.0555 -29.0492 -29.0449 -29.0403 -29.0376 -29.0254 -29.0189
   -29.0102 -11.7022 -11.2620 -10.4579  -8.3580  -7.9087  -3.5753  -3.1703
    -2.4095  -2.1481  -1.8536  -1.2782  -0.0436   0.2812   0.7903   3.0160
     3.4900   3.5642   4.5698   5.3024   5.5680   6.8339   7.4482   7.7108
     7.9809   8.3990   8.8184   9.2694   9.9075  10.1853  10.8156  10.9169
    11.2311  11.6206  11.9036  12.2611  12.3833  12.4595  12.8148  12.9816
    13.0930  13.2502  13.4864  13.5663  13.6804  13.9136  14.5707  14.6665
    14.7787  15.1270  15.3028  15.6860  15.8925  16.1396  16.2227  16.6494
    16.7093  17.0432  17.2673  17.4712  17.5915  17.7488  17.9450  18.2526
    18.2943  18.3952  18.5326  18.7029  18.9479  19.5876  19.8744  19.9719
    20.0348  20.1617  20.3516  20.4472

     occupation numbers 
     1.0000   1.0000   1.0000   1.0000   1.0000   1.0000   1.0000   1.0000
     1.0000   1.0000   1.0000   1.0000   1.0000   1.0000   1.0000   1.0000
     1.0000   1.0000   1.0000   1.0000   1.0000   1.0000   1.0000   1.0000
     1.0000   1.0000   1.0000   1.0000   1.0000   1.0000   1.0000   1.0000
     1.0000   1.0000   1.0000   1.0000   1.0000   1.0000   1.0000   0.0000
     0.0000   0.0000   0.0000   0.0000   0.0000   0.0000   0.0000   0.0000
     0.0000   0.0000   0.0000   0.0000   0.0000   0.0000   0.0000   0.0000
     0.0000   0.0000   0.0000   0.0000   0.0000   0.0000   0.0000   0.0000
     0.0000   0.0000   0.0000   0.0000   0.0000   0.0000   0.0000   0.0000
     0.0000   0.0000   0.0000   0.0000   0.0000   0.0000   0.0000   0.0000
     0.0000   0.0000   0.0000   0.0000   0.0000   0.0000   0.0000   0.0000
     0.0000   0.0000   0.0000   0.0000   0.0000   0.0000   0.0000   0.0000
     0.0000   0.0000   0.0000   0.0000

          k =-0.4615 0.2664 0.0000 ( 23850 PWs)   bands (ev):

   -36.4055 -36.3959 -36.3746 -36.3646 -36.3573 -36.3442 -36.3344 -36.3138
   -36.3031 -36.2963 -36.0850 -36.0846 -36.0583 -36.0278 -36.0188 -29.0784
   -29.0736 -29.0560 -29.0481 -29.0445 -29.0432 -29.0324 -29.0257 -29.0143
   -29.0022 -11.0079 -10.8491 -10.6245  -8.9629  -8.2934  -4.2976  -2.8559
    -2.5525  -2.4880  -1.7913  -1.2751  -0.2759  -0.0205   0.3829   2.8137
     3.2945   3.4837   4.8650   5.0168   5.7925   5.9399   7.5597   8.5881
     8.8543   9.2369   9.4604   9.8021  10.1618  10.4768  10.9337  11.4699
    11.6539  11.9037  12.0402  12.3342  12.3632  12.5346  12.7101  13.1133
    13.2371  13.5642  13.6589  13.8691  14.4106  14.4396  14.6192  14.8119
    14.8599  15.0129  15.0600  15.3061  15.5936  15.5958  15.7728  16.1595
    16.2510  16.4783  17.0472  17.1728  17.3151  17.4645  17.7952  18.0731
    18.3113  18.3923  18.4598  18.8133  19.0224  19.1794  19.1814  19.4778
    19.5232  20.2050  20.2856  20.3561

     occupation numbers 
     1.0000   1.0000   1.0000   1.0000   1.0000   1.0000   1.0000   1.0000
     1.0000   1.0000   1.0000   1.0000   1.0000   1.0000   1.0000   1.0000
     1.0000   1.0000   1.0000   1.0000   1.0000   1.0000   1.0000   1.0000
     1.0000   1.0000   1.0000   1.0000   1.0000   1.0000   1.0000   1.0000
     1.0000   1.0000   1.0000   1.0000   1.0000   1.0000   1.0000   0.0000
     0.0000   0.0000   0.0000   0.0000   0.0000   0.0000   0.0000   0.0000
     0.0000   0.0000   0.0000   0.0000   0.0000   0.0000   0.0000   0.0000
     0.0000   0.0000   0.0000   0.0000   0.0000   0.0000   0.0000   0.0000
     0.0000   0.0000   0.0000   0.0000   0.0000   0.0000   0.0000   0.0000
     0.0000   0.0000   0.0000   0.0000   0.0000   0.0000   0.0000   0.0000
     0.0000   0.0000   0.0000   0.0000   0.0000   0.0000   0.0000   0.0000
     0.0000   0.0000   0.0000   0.0000   0.0000   0.0000   0.0000   0.0000
     0.0000   0.0000   0.0000   0.0000

          k =-0.4615 0.3552 0.0000 ( 23826 PWs)   bands (ev):

   -36.4042 -36.3953 -36.3733 -36.3644 -36.3581 -36.3429 -36.3338 -36.3125
   -36.3029 -36.2971 -36.0860 -36.0820 -36.0611 -36.0247 -36.0175 -29.0769
   -29.0714 -29.0560 -29.0466 -29.0440 -29.0411 -29.0333 -29.0257 -29.0138
   -29.0030 -10.8403 -10.7836 -10.6849  -9.0146  -8.4009  -4.2856  -2.8748
    -2.7890  -2.5088  -1.8793  -1.3401  -0.2802  -0.0753   0.5496   3.1016
     3.1068   3.4798   4.9514   5.0962   5.8994   5.9793   7.6324   8.7722
     9.0608   9.1262   9.2505  10.0442  10.1873  10.1968  10.9012  11.4027
    11.4581  11.6978  11.9844  12.2822  12.3403  12.4282  12.8988  12.9439
    13.1077  13.3362  13.6470  14.0592  14.1308  14.4856  14.7880  14.8394
    15.0002  15.0815  15.1104  15.1320  15.6181  15.6331  16.0001  16.3075
    16.5306  16.6615  16.9168  17.1087  17.2401  17.7922  17.8392  18.0646
    18.3860  18.8074  18.8394  18.9934  19.0499  19.0966  19.2377  19.7692
    19.7944  19.9510  19.9765  20.0663

     occupation numbers 
     1.0000   1.0000   1.0000   1.0000   1.0000   1.0000   1.0000   1.0000
     1.0000   1.0000   1.0000   1.0000   1.0000   1.0000   1.0000   1.0000
     1.0000   1.0000   1.0000   1.0000   1.0000   1.0000   1.0000   1.0000
     1.0000   1.0000   1.0000   1.0000   1.0000   1.0000   1.0000   1.0000
     1.0000   1.0000   1.0000   1.0000   1.0000   1.0000   1.0000   0.0000
     0.0000   0.0000   0.0000   0.0000   0.0000   0.0000   0.0000   0.0000
     0.0000   0.0000   0.0000   0.0000   0.0000   0.0000   0.0000   0.0000
     0.0000   0.0000   0.0000   0.0000   0.0000   0.0000   0.0000   0.0000
     0.0000   0.0000   0.0000   0.0000   0.0000   0.0000   0.0000   0.0000
     0.0000   0.0000   0.0000   0.0000   0.0000   0.0000   0.0000   0.0000
     0.0000   0.0000   0.0000   0.0000   0.0000   0.0000   0.0000   0.0000
     0.0000   0.0000   0.0000   0.0000   0.0000   0.0000   0.0000   0.0000
     0.0000   0.0000   0.0000   0.0000

          k =-0.4615 0.4439 0.0000 ( 23833 PWs)   bands (ev):

   -36.4039 -36.3975 -36.3734 -36.3615 -36.3558 -36.3425 -36.3359 -36.3127
   -36.2999 -36.2948 -36.0867 -36.0787 -36.0658 -36.0230 -36.0185 -29.0714
   -29.0674 -29.0545 -29.0448 -29.0411 -29.0371 -29.0354 -29.0244 -29.0146
   -29.0051 -10.8717 -10.7253 -10.5187  -8.9928  -8.5626  -4.1487  -3.1889
    -2.9857  -2.5114  -1.9184  -1.6704  -0.3041   0.0979   0.6969   3.0314
     3.4690   3.5992   4.9126   5.3865   5.8853   6.4805   7.8184   8.6933
     8.9735   9.2391   9.4004   9.8005  10.0717  10.2634  10.7206  10.8174
    11.0053  11.3230  11.5310  11.9935  12.2459  12.4502  12.6257  12.8721
    12.9576  13.2053  13.6986  13.7989  14.0480  14.5493  14.6864  14.8753
    14.9492  15.2045  15.4385  15.5611  15.8671  15.9087  16.4139  16.6159
    16.8836  16.9353  17.5216  17.5836  17.7023  17.7421  18.0861  18.1810
    18.4410  18.6018  18.7783  18.8711  19.2623  19.4781  19.5377  19.6576
    19.7223  20.0024  20.2183  20.5475

     occupation numbers 
     1.0000   1.0000   1.0000   1.0000   1.0000   1.0000   1.0000   1.0000
     1.0000   1.0000   1.0000   1.0000   1.0000   1.0000   1.0000   1.0000
     1.0000   1.0000   1.0000   1.0000   1.0000   1.0000   1.0000   1.0000
     1.0000   1.0000   1.0000   1.0000   1.0000   1.0000   1.0000   1.0000
     1.0000   1.0000   1.0000   1.0000   1.0000   1.0000   1.0000   0.0000
     0.0000   0.0000   0.0000   0.0000   0.0000   0.0000   0.0000   0.0000
     0.0000   0.0000   0.0000   0.0000   0.0000   0.0000   0.0000   0.0000
     0.0000   0.0000   0.0000   0.0000   0.0000   0.0000   0.0000   0.0000
     0.0000   0.0000   0.0000   0.0000   0.0000   0.0000   0.0000   0.0000
     0.0000   0.0000   0.0000   0.0000   0.0000   0.0000   0.0000   0.0000
     0.0000   0.0000   0.0000   0.0000   0.0000   0.0000   0.0000   0.0000
     0.0000   0.0000   0.0000   0.0000   0.0000   0.0000   0.0000   0.0000
     0.0000   0.0000   0.0000   0.0000

          k =-0.4615 0.5327 0.0000 ( 23819 PWs)   bands (ev):

   -36.4032 -36.3905 -36.3728 -36.3628 -36.3555 -36.3418 -36.3288 -36.3120
   -36.3013 -36.2945 -36.0839 -36.0760 -36.0652 -36.0214 -36.0188 -29.0681
   -29.0653 -29.0519 -29.0480 -29.0440 -29.0378 -29.0350 -29.0218 -29.0178
   -29.0138 -10.9113 -10.6929 -10.3669  -8.9113  -8.7344  -3.9198  -3.6015
    -2.9291  -2.5384  -2.2622  -1.6535  -0.3225   0.3217   0.5872   3.2573
     3.4660   3.7196   5.1366   5.5219   5.7844   7.2861   8.1758   8.3147
     8.7351   8.9060   9.1983   9.7461  10.0565  10.2141  10.3541  10.8805
    11.0095  11.0864  11.4287  11.6810  12.1257  12.2228  12.2867  12.6559
    13.0553  13.3804  13.4469  13.9220  14.1982  14.5146  14.6969  14.7430
    14.9061  15.0492  15.2692  15.5019  16.0958  16.3806  16.3990  16.7317
    16.9384  17.2630  17.4522  17.8964  18.1172  18.2356  18.5038  18.6892
    18.8853  19.1110  19.1631  19.3824  19.5749  19.6081  19.7634  19.9109
    20.1115  20.3575  20.4852  20.5645

     occupation numbers 
     1.0000   1.0000   1.0000   1.0000   1.0000   1.0000   1.0000   1.0000
     1.0000   1.0000   1.0000   1.0000   1.0000   1.0000   1.0000   1.0000
     1.0000   1.0000   1.0000   1.0000   1.0000   1.0000   1.0000   1.0000
     1.0000   1.0000   1.0000   1.0000   1.0000   1.0000   1.0000   1.0000
     1.0000   1.0000   1.0000   1.0000   1.0000   1.0000   1.0000   0.0000
     0.0000   0.0000   0.0000   0.0000   0.0000   0.0000   0.0000   0.0000
     0.0000   0.0000   0.0000   0.0000   0.0000   0.0000   0.0000   0.0000
     0.0000   0.0000   0.0000   0.0000   0.0000   0.0000   0.0000   0.0000
     0.0000   0.0000   0.0000   0.0000   0.0000   0.0000   0.0000   0.0000
     0.0000   0.0000   0.0000   0.0000   0.0000   0.0000   0.0000   0.0000
     0.0000   0.0000   0.0000   0.0000   0.0000   0.0000   0.0000   0.0000
     0.0000   0.0000   0.0000   0.0000   0.0000   0.0000   0.0000   0.0000
     0.0000   0.0000   0.0000   0.0000

          k =-0.4615-0.1776 0.0000 ( 23827 PWs)   bands (ev):

   -36.4056 -36.3970 -36.3738 -36.3658 -36.3571 -36.3440 -36.3353 -36.3129
   -36.3045 -36.2961 -36.0856 -36.0821 -36.0617 -36.0261 -36.0193 -29.0772
   -29.0714 -29.0563 -29.0469 -29.0452 -29.0411 -29.0331 -29.0260 -29.0150
   -29.0030 -11.1774 -10.9122 -10.5020  -8.8534  -8.2736  -4.1854  -2.9019
    -2.7125  -2.4059  -1.8138  -1.2820  -0.3113  -0.0228   0.6158   3.0524
     3.1446   3.5387   4.8742   5.0955   5.8383   6.0994   7.5740   8.3463
     8.6532   9.3554   9.5979   9.6281  10.1745  10.4473  10.7890  10.9539
    11.3223  11.5093  11.9964  12.2302  12.4166  12.5657  12.7097  13.1103
    13.2310  13.4394  13.6202  13.7574  14.0497  14.2826  14.4198  14.7428
    14.9690  15.3140  15.5425  15.6821  15.7601  15.9737  16.1477  16.4189
    16.5673  16.6858  16.7005  17.1408  17.5241  17.6542  17.7004  18.0469
    18.1585  18.4870  18.5900  18.6657  18.8368  19.0532  19.2690  19.5236
    19.6344  19.8479  20.0381  20.3578

     occupation numbers 
     1.0000   1.0000   1.0000   1.0000   1.0000   1.0000   1.0000   1.0000
     1.0000   1.0000   1.0000   1.0000   1.0000   1.0000   1.0000   1.0000
     1.0000   1.0000   1.0000   1.0000   1.0000   1.0000   1.0000   1.0000
     1.0000   1.0000   1.0000   1.0000   1.0000   1.0000   1.0000   1.0000
     1.0000   1.0000   1.0000   1.0000   1.0000   1.0000   1.0000   0.0000
     0.0000   0.0000   0.0000   0.0000   0.0000   0.0000   0.0000   0.0000
     0.0000   0.0000   0.0000   0.0000   0.0000   0.0000   0.0000   0.0000
     0.0000   0.0000   0.0000   0.0000   0.0000   0.0000   0.0000   0.0000
     0.0000   0.0000   0.0000   0.0000   0.0000   0.0000   0.0000   0.0000
     0.0000   0.0000   0.0000   0.0000   0.0000   0.0000   0.0000   0.0000
     0.0000   0.0000   0.0000   0.0000   0.0000   0.0000   0.0000   0.0000
     0.0000   0.0000   0.0000   0.0000   0.0000   0.0000   0.0000   0.0000
     0.0000   0.0000   0.0000   0.0000

          k =-0.4615-0.0888 0.0000 ( 23823 PWs)   bands (ev):

   -36.4053 -36.3992 -36.3761 -36.3643 -36.3558 -36.3438 -36.3375 -36.3151
   -36.3030 -36.2947 -36.0876 -36.0818 -36.0666 -36.0248 -36.0212 -29.0720
   -29.0670 -29.0545 -29.0470 -29.0417 -29.0367 -29.0359 -29.0243 -29.0167
   -29.0058 -11.2846 -10.9502 -10.4131  -8.7044  -8.3223  -3.9581  -3.2078
    -2.6741  -2.5320  -1.9088  -1.4448  -0.2325   0.1341   0.7665   2.9495
     3.5431   3.6625   4.7366   5.3703   5.8009   6.6097   7.7471   8.1449
     8.5393   8.6881   9.3428   9.4568  10.0953  10.2674  10.5758  10.9522
    11.3223  11.4714  11.8388  11.9369  12.3222  12.6491  12.9570  13.1226
    13.2361  13.5070  13.5715  13.6515  13.7755  14.0708  14.2320  14.3216
    14.8736  14.9877  15.2640  15.7341  16.0372  16.2647  16.3821  16.4653
    16.9445  17.1406  17.4196  17.5491  17.6326  17.9174  18.0408  18.1069
    18.3137  18.5979  18.6718  18.8588  18.9736  19.0927  19.7006  19.8077
    19.9684  20.2360  20.3036  20.5716

     occupation numbers 
     1.0000   1.0000   1.0000   1.0000   1.0000   1.0000   1.0000   1.0000
     1.0000   1.0000   1.0000   1.0000   1.0000   1.0000   1.0000   1.0000
     1.0000   1.0000   1.0000   1.0000   1.0000   1.0000   1.0000   1.0000
     1.0000   1.0000   1.0000   1.0000   1.0000   1.0000   1.0000   1.0000
     1.0000   1.0000   1.0000   1.0000   1.0000   1.0000   1.0000   0.0000
     0.0000   0.0000   0.0000   0.0000   0.0000   0.0000   0.0000   0.0000
     0.0000   0.0000   0.0000   0.0000   0.0000   0.0000   0.0000   0.0000
     0.0000   0.0000   0.0000   0.0000   0.0000   0.0000   0.0000   0.0000
     0.0000   0.0000   0.0000   0.0000   0.0000   0.0000   0.0000   0.0000
     0.0000   0.0000   0.0000   0.0000   0.0000   0.0000   0.0000   0.0000
     0.0000   0.0000   0.0000   0.0000   0.0000   0.0000   0.0000   0.0000
     0.0000   0.0000   0.0000   0.0000   0.0000   0.0000   0.0000   0.0000
     0.0000   0.0000   0.0000   0.0000

     highest occupied, lowest unoccupied level (ev):     1.0595    2.4196

     Writing all to output data dir tmp/Sb2Te3-uatsx-c4-0.0.save/ :
     XML data file, pseudopotentials, collected wavefunctions

     init_run     :     12.23s CPU     12.60s WALL (       1 calls)
     electrons    :    826.02s CPU    834.24s WALL (       1 calls)

     Called by init_run:
     aceinit0     :     11.43s CPU     11.77s WALL (       1 calls)
     wfcinit      :      0.00s CPU      0.02s WALL (       1 calls)
     wfcinit:wfcr :      5.83s CPU      5.92s WALL (      86 calls)
     potinit      :      0.58s CPU      0.58s WALL (       1 calls)
     hinit0       :      0.15s CPU      0.15s WALL (       1 calls)

     Called by electrons:
     c_bands      :    258.74s CPU    261.52s WALL (       2 calls)
     sum_band     :      1.83s CPU      1.86s WALL (       1 calls)
     v_of_rho     :      0.02s CPU      0.02s WALL (       2 calls)
     v_h          :      0.00s CPU      0.00s WALL (       2 calls)
     v_xc         :      0.02s CPU      0.02s WALL (       2 calls)

     Called by c_bands:
     init_us_2    :      0.03s CPU      0.03s WALL (     129 calls)
     cegterg      :    237.45s CPU    239.89s WALL (     267 calls)

     Called by sum_band:
     sum_band:wei :      0.00s CPU      0.00s WALL (       1 calls)
     sum_band:loo :      1.83s CPU      1.86s WALL (       1 calls)
     sum_band:buf :      0.01s CPU      0.01s WALL (      43 calls)
     sum_band:ini :      0.01s CPU      0.01s WALL (      43 calls)

     Called by *egterg:
     cdiaghg      :     74.37s CPU     74.60s WALL (    4638 calls)
     cegterg:over :     16.59s CPU     16.71s WALL (    4552 calls)
     cegterg:upda :      3.52s CPU      3.55s WALL (    4552 calls)
     cegterg:last :      6.84s CPU      6.88s WALL (    2322 calls)
     h_psi        :    132.16s CPU    134.22s WALL (    4905 calls)
     g_psi        :      0.66s CPU      0.66s WALL (    4552 calls)

     Called by h_psi:
     h_psi:calbec :      6.70s CPU      6.77s WALL (    4905 calls)
     vloc_psi     :    112.79s CPU    114.69s WALL (    4905 calls)
     add_vuspsi   :      1.66s CPU      1.68s WALL (    4905 calls)

     General routines
     calbec       :     15.07s CPU     15.20s WALL (    9853 calls)
     fft          :      0.16s CPU      0.16s WALL (      19 calls)
     ffts         :      0.00s CPU      0.00s WALL (       1 calls)
     fftw         :    110.04s CPU    111.89s WALL (  476260 calls)
     fftc         :    466.76s CPU    471.07s WALL (  860000 calls)
     fftcw        :      4.70s CPU      4.76s WALL (   12900 calls)
     davcio       :      0.04s CPU      0.05s WALL (     258 calls)

     Parallel routines

     EXX routines
     exx_grid     :      0.03s CPU      0.03s WALL (       1 calls)
     exxinit      :     23.79s CPU     24.19s WALL (       1 calls)
     vexx         :    527.87s CPU    532.77s WALL (      43 calls)
     matcalc      :      8.42s CPU      8.47s WALL (    4948 calls)
     aceupdate    :      0.04s CPU      0.04s WALL (      43 calls)
     vexxace      :     10.68s CPU     10.76s WALL (    4905 calls)
     aceinit      :    528.04s CPU    532.95s WALL (      43 calls)

     PWSCF        :  14m21.15s CPU  15m11.01s WALL


   This run was terminated on:   1: 2:35  20May2025            

=------------------------------------------------------------------------------=
   JOB DONE.
=------------------------------------------------------------------------------=
