
     Program PWSCF v.7.3.1 starts on 20May2025 at  2:15:44 

     This program is part of the open-source Quantum ESPRESSO suite
     for quantum simulation of materials; please cite
         "P. Giannozzi et al., J. Phys.:Condens. Matter 21 395502 (2009);
         "P. Giannozzi et al., J. Phys.:Condens. Matter 29 465901 (2017);
         "P. Giannozzi et al., J. Chem. Phys. 152 154105 (2020);
          URL http://www.quantum-espresso.org", 
     in publications or presentations arising from this work. More details at
     http://www.quantum-espresso.org/quote

     Parallel version (MPI & OpenMP), running on     168 processor cores
     Number of MPI processes:               168
     Threads/MPI process:                     1

     MPI processes distributed on     7 nodes
     106086 MiB available memory on the printing compute node when the environment starts

     Waiting for input...
     Reading input from standard input

     Current dimensions of program PWSCF are:
     Max number of different atomic species (ntypx) = 10
     Max number of k-points (npk) =  40000
     Max angular momentum in pseudopotentials (lmaxx) =  4

     IMPORTANT: XC functional enforced from input :
     Exchange-correlation= GAUP
                           (   1   4  20   4   0   0   0)
     EXX-fraction              =        0.24
     Any further DFT definition will be discarded
     Please, verify this is what you really want


     Atomic positions and unit cell read from directory:
     tmp/Sb2Te3-uatsx-c4-1.0.save/


     K-points division:     npool     =       2
     R & G space division:  proc/nbgrp/npool/nimage =      84
     Subspace diagonalization in iterative solution of the eigenvalue problem:
     a serial algorithm will be used

     EXX: q-point mesh:     1    1    1
     EXX: setup a grid of 85 q-points centered on each k-point
     (k+q)-points:
   0.0000000   0.0000000   0.0000000         1    1
   0.0000000   0.0897122   0.0000000         2    1
   0.0000000   0.1794244   0.0000000         3    1
   0.0000000   0.2691367   0.0000000         4    1
   0.0000000   0.3588489   0.0000000         5    1
   0.0000000   0.4485611   0.0000000         6    1
   0.0000000   0.5382733   0.0000000         7    1
   0.0769231   0.0444120   0.0000000         8    1
   0.0769231   0.1341242   0.0000000         9    1
   0.0769231   0.2238364   0.0000000        10    1
   0.0769231   0.3135486   0.0000000        11    1
   0.0769231   0.4032609   0.0000000        12    1
   0.0769231   0.4929731   0.0000000        13    1
   0.0769231   0.5826853   0.0000000        14    1
   0.0769231  -0.4938613   0.0000000        15    1
   0.0769231  -0.4041491   0.0000000        16    1
   0.0769231  -0.3144369   0.0000000        17    1
   0.0769231  -0.2247247   0.0000000        18    1
   0.0769231  -0.1350124   0.0000000        19    1
   0.0769231  -0.0453002   0.0000000        20    1
   0.1538462   0.0888240   0.0000000        21    1
   0.1538462   0.1785362   0.0000000        22    1
   0.1538462   0.2682484   0.0000000        23    1
   0.1538462   0.3579606   0.0000000        24    1
   0.1538462   0.4476728   0.0000000        25    1
   0.1538462   0.5373851   0.0000000        26    1
   0.1538462   0.6270973   0.0000000        27    1
   0.1538462  -0.4494493   0.0000000        28    1
   0.1538462  -0.3597371   0.0000000        29    1
   0.1538462  -0.2700249   0.0000000        30    1
   0.1538462  -0.1803127   0.0000000        31    1
   0.1538462  -0.0906005   0.0000000        32    1
   0.1538462  -0.0008882   0.0000000        33    1
   0.2307692   0.1332360   0.0000000        34    1
   0.2307692   0.2229482   0.0000000        35    1
   0.2307692   0.3126604   0.0000000        36    1
   0.2307692   0.4023726   0.0000000        37    1
   0.2307692   0.4920848   0.0000000        38    1
   0.2307692   0.5817971   0.0000000        39    1
   0.2307692   0.6715093   0.0000000        40    1
   0.2307692  -0.4050373   0.0000000        41    1
   0.2307692  -0.3153251   0.0000000        42    1
   0.2307692  -0.2256129   0.0000000        43    1
   0.2307692  -0.1359007   0.0000000        44    1
   0.2307692  -0.0461885   0.0000000        45    1
   0.2307692   0.0435237   0.0000000        46    1
   0.3076923   0.1776480   0.0000000        47    1
   0.3076923   0.2673602   0.0000000        48    1
   0.3076923   0.3570724   0.0000000        49    1
   0.3076923   0.4467846   0.0000000        50    1
   0.3076923   0.5364968   0.0000000        51    1
   0.3076923   0.6262090   0.0000000        52    1
   0.3076923   0.7159213   0.0000000        53    1
   0.3076923  -0.3606253   0.0000000        54    1
   0.3076923  -0.2709131   0.0000000        55    1
   0.3076923  -0.1812009   0.0000000        56    1
   0.3076923  -0.0914887   0.0000000        57    1
   0.3076923  -0.0017765   0.0000000        58    1
   0.3076923   0.0879357   0.0000000        59    1
   0.3846154   0.2220599   0.0000000        60    1
   0.3846154   0.3117722   0.0000000        61    1
   0.3846154   0.4014844   0.0000000        62    1
   0.3846154   0.4911966   0.0000000        63    1
   0.3846154   0.5809088   0.0000000        64    1
   0.3846154   0.6706210   0.0000000        65    1
   0.3846154   0.7603332   0.0000000        66    1
   0.3846154  -0.3162134   0.0000000        67    1
   0.3846154  -0.2265011   0.0000000        68    1
   0.3846154  -0.1367889   0.0000000        69    1
   0.3846154  -0.0470767   0.0000000        70    1
   0.3846154   0.0426355   0.0000000        71    1
   0.3846154   0.1323477   0.0000000        72    1
   0.4615385   0.2664719   0.0000000        73    1
   0.4615385   0.3561841   0.0000000        74    1
   0.4615385   0.4458964   0.0000000        75    1
   0.4615385   0.5356086   0.0000000        76    1
   0.4615385   0.6253208   0.0000000        77    1
   0.4615385   0.7150330   0.0000000        78    1
   0.4615385   0.8047452   0.0000000        79    1
   0.4615385  -0.2718014   0.0000000        80    1
   0.4615385  -0.1820892   0.0000000        81    1
   0.4615385  -0.0923769   0.0000000        82    1
   0.4615385  -0.0026647   0.0000000        83    1
   0.4615385   0.0870475   0.0000000        84    1
   0.4615385   0.1767597   0.0000000        85    1

     Parallelization info
     --------------------
     sticks:   dense  smooth     PW     G-vecs:    dense   smooth      PW
     Min          15      15      4                 2281     2281     352
     Max          16      16      5                 2308     2308     385
     Sum        1285    1285    379               192371   192371   30683

     Using Slab Decomposition



     bravais-lattice index     =            0
     lattice parameter (alat)  =       8.2271  a.u.
     unit-cell volume          =    2430.6623 (a.u.)^3
     number of atoms/cell      =            5
     number of atomic types    =            2
     number of electrons       =        78.00
     number of Kohn-Sham states=          100
     kinetic-energy cutoff     =      70.0000  Ry
     charge density cutoff     =     280.0000  Ry
     cutoff for Fock operator  =     280.0000  Ry
     Exchange-correlation= GAUP
                           (   1   4  20   4   0   0   0)
     EXX-fraction              =        0.24

     celldm(1)=   8.227090  celldm(2)=   0.000000  celldm(3)=   0.000000
     celldm(4)=   0.000000  celldm(5)=   0.000000  celldm(6)=   0.000000

     crystal axes: (cart. coord. in units of alat)
               a(1) = (   1.000000   0.000000   0.000000 )  
               a(2) = (  -0.495050   0.857443   0.000000 )  
               a(3) = (   0.000000   0.000000   5.090739 )  

     reciprocal axes: (cart. coord. in units 2 pi/alat)
               b(1) = (  1.000000  0.577356 -0.000000 )  
               b(2) = (  0.000000  1.166259  0.000000 )  
               b(3) = (  0.000000 -0.000000  0.196435 )  


     PseudoPot. # 1 for Sb read from file:
     /zfs-home/202401017n/pseudos/Sb_ONCV_PBE-1.2.upf
     MD5 check sum: 0417cd6c0fe8ce4611e2b23135f1abd9
     Pseudo is Norm-conserving, Zval = 15.0
     Generated using ONCVPSP code by D. R. Hamann
     Using radial grid of  602 points,  6 beta functions with: 
                l(1) =   0
                l(2) =   0
                l(3) =   1
                l(4) =   1
                l(5) =   2
                l(6) =   2

     PseudoPot. # 2 for Te read from file:
     /zfs-home/202401017n/pseudos/Te_ONCV_PBE-1.2.upf
     MD5 check sum: dd4de4dac1e38587f63aaf3700bb29d3
     Pseudo is Norm-conserving, Zval = 16.0
     Generated using ONCVPSP code by D. R. Hamann
     Using radial grid of  602 points,  6 beta functions with: 
                l(1) =   0
                l(2) =   0
                l(3) =   1
                l(4) =   1
                l(5) =   2
                l(6) =   2

     atomic species   valence    mass     pseudopotential
     Sb               15.00   121.76000     Sb( 1.00)
     Te               16.00   127.60000     Te( 1.00)

     No symmetry found


                                    s                        frac. trans.

      isym =  1     identity                                     

 cryst.   s( 1) = (     1          0          0      )
                  (     0          1          0      )
                  (     0          0          1      )

 cart.    s( 1) = (  1.0000000  0.0000000  0.0000000 )
                  (  0.0000000  1.0000000  0.0000000 )
                  (  0.0000000  0.0000000  1.0000000 )


   Cartesian axes

     site n.     atom                  positions (alat units)
         1        Sb     tau(   1) = (   0.5788554   0.4207610   3.0040749  )
         2        Te     tau(   2) = (   0.5752577   0.4138624   1.6972962  )
         3        Sb     tau(   3) = (   0.0743102   0.1298379   2.0866212  )
         4        Te     tau(   4) = (   0.0782247   0.1361538   3.3933943  )
         5        Te     tau(   5) = (   0.0792404   0.7036244   2.5453648  )

     -------------------------------------------------
     Parameters for Dispersion (Grimme-D2) Correction:
     -------------------------------------------------
       atom      VdW radius       C_6     

        Sb         3.555       1333.532
        Te         3.575       1101.101

   Crystallographic axes

     site n.     atom                  positions (cryst. coord.)
         1        Sb     tau(   1) = (  0.8217842  0.4907162  0.5901058  )
         2        Te     tau(   2) = (  0.8142035  0.4826706  0.3334086  )
         3        Sb     tau(   3) = (  0.1492728  0.1514246  0.4098857  )
         4        Te     tau(   4) = (  0.1568340  0.1587906  0.6665818  )
         5        Te     tau(   5) = (  0.4854821  0.8206082  0.4999990  )

     number of k points=    85
                       cart. coord. in units 2pi/alat
        k(    1) = (   0.0000000   0.0000000   0.0000000), wk =   0.0118343
        k(    2) = (   0.0000000   0.0897122   0.0000000), wk =   0.0236686
        k(    3) = (   0.0000000   0.1794244   0.0000000), wk =   0.0236686
        k(    4) = (   0.0000000   0.2691367   0.0000000), wk =   0.0236686
        k(    5) = (   0.0000000   0.3588489   0.0000000), wk =   0.0236686
        k(    6) = (   0.0000000   0.4485611   0.0000000), wk =   0.0236686
        k(    7) = (   0.0000000   0.5382733   0.0000000), wk =   0.0236686
        k(    8) = (   0.0769231   0.0444120   0.0000000), wk =   0.0236686
        k(    9) = (   0.0769231   0.1341242   0.0000000), wk =   0.0236686
        k(   10) = (   0.0769231   0.2238364   0.0000000), wk =   0.0236686
        k(   11) = (   0.0769231   0.3135486   0.0000000), wk =   0.0236686
        k(   12) = (   0.0769231   0.4032609   0.0000000), wk =   0.0236686
        k(   13) = (   0.0769231   0.4929731   0.0000000), wk =   0.0236686
        k(   14) = (   0.0769231   0.5826853   0.0000000), wk =   0.0236686
        k(   15) = (   0.0769231  -0.4938613   0.0000000), wk =   0.0236686
        k(   16) = (   0.0769231  -0.4041491   0.0000000), wk =   0.0236686
        k(   17) = (   0.0769231  -0.3144369   0.0000000), wk =   0.0236686
        k(   18) = (   0.0769231  -0.2247247   0.0000000), wk =   0.0236686
        k(   19) = (   0.0769231  -0.1350124   0.0000000), wk =   0.0236686
        k(   20) = (   0.0769231  -0.0453002   0.0000000), wk =   0.0236686
        k(   21) = (   0.1538462   0.0888240   0.0000000), wk =   0.0236686
        k(   22) = (   0.1538462   0.1785362   0.0000000), wk =   0.0236686
        k(   23) = (   0.1538462   0.2682484   0.0000000), wk =   0.0236686
        k(   24) = (   0.1538462   0.3579606   0.0000000), wk =   0.0236686
        k(   25) = (   0.1538462   0.4476728   0.0000000), wk =   0.0236686
        k(   26) = (   0.1538462   0.5373851   0.0000000), wk =   0.0236686
        k(   27) = (   0.1538462   0.6270973   0.0000000), wk =   0.0236686
        k(   28) = (   0.1538462  -0.4494493   0.0000000), wk =   0.0236686
        k(   29) = (   0.1538462  -0.3597371   0.0000000), wk =   0.0236686
        k(   30) = (   0.1538462  -0.2700249   0.0000000), wk =   0.0236686
        k(   31) = (   0.1538462  -0.1803127   0.0000000), wk =   0.0236686
        k(   32) = (   0.1538462  -0.0906005   0.0000000), wk =   0.0236686
        k(   33) = (   0.1538462  -0.0008882   0.0000000), wk =   0.0236686
        k(   34) = (   0.2307692   0.1332360   0.0000000), wk =   0.0236686
        k(   35) = (   0.2307692   0.2229482   0.0000000), wk =   0.0236686
        k(   36) = (   0.2307692   0.3126604   0.0000000), wk =   0.0236686
        k(   37) = (   0.2307692   0.4023726   0.0000000), wk =   0.0236686
        k(   38) = (   0.2307692   0.4920848   0.0000000), wk =   0.0236686
        k(   39) = (   0.2307692   0.5817971   0.0000000), wk =   0.0236686
        k(   40) = (   0.2307692   0.6715093   0.0000000), wk =   0.0236686
        k(   41) = (   0.2307692  -0.4050373   0.0000000), wk =   0.0236686
        k(   42) = (   0.2307692  -0.3153251   0.0000000), wk =   0.0236686
        k(   43) = (   0.2307692  -0.2256129   0.0000000), wk =   0.0236686
        k(   44) = (   0.2307692  -0.1359007   0.0000000), wk =   0.0236686
        k(   45) = (   0.2307692  -0.0461885   0.0000000), wk =   0.0236686
        k(   46) = (   0.2307692   0.0435237   0.0000000), wk =   0.0236686
        k(   47) = (   0.3076923   0.1776480   0.0000000), wk =   0.0236686
        k(   48) = (   0.3076923   0.2673602   0.0000000), wk =   0.0236686
        k(   49) = (   0.3076923   0.3570724   0.0000000), wk =   0.0236686
        k(   50) = (   0.3076923   0.4467846   0.0000000), wk =   0.0236686
        k(   51) = (   0.3076923   0.5364968   0.0000000), wk =   0.0236686
        k(   52) = (   0.3076923   0.6262090   0.0000000), wk =   0.0236686
        k(   53) = (   0.3076923   0.7159213   0.0000000), wk =   0.0236686
        k(   54) = (   0.3076923  -0.3606253   0.0000000), wk =   0.0236686
        k(   55) = (   0.3076923  -0.2709131   0.0000000), wk =   0.0236686
        k(   56) = (   0.3076923  -0.1812009   0.0000000), wk =   0.0236686
        k(   57) = (   0.3076923  -0.0914887   0.0000000), wk =   0.0236686
        k(   58) = (   0.3076923  -0.0017765   0.0000000), wk =   0.0236686
        k(   59) = (   0.3076923   0.0879357   0.0000000), wk =   0.0236686
        k(   60) = (   0.3846154   0.2220599   0.0000000), wk =   0.0236686
        k(   61) = (   0.3846154   0.3117722   0.0000000), wk =   0.0236686
        k(   62) = (   0.3846154   0.4014844   0.0000000), wk =   0.0236686
        k(   63) = (   0.3846154   0.4911966   0.0000000), wk =   0.0236686
        k(   64) = (   0.3846154   0.5809088   0.0000000), wk =   0.0236686
        k(   65) = (   0.3846154   0.6706210   0.0000000), wk =   0.0236686
        k(   66) = (   0.3846154   0.7603332   0.0000000), wk =   0.0236686
        k(   67) = (   0.3846154  -0.3162134   0.0000000), wk =   0.0236686
        k(   68) = (   0.3846154  -0.2265011   0.0000000), wk =   0.0236686
        k(   69) = (   0.3846154  -0.1367889   0.0000000), wk =   0.0236686
        k(   70) = (   0.3846154  -0.0470767   0.0000000), wk =   0.0236686
        k(   71) = (   0.3846154   0.0426355   0.0000000), wk =   0.0236686
        k(   72) = (   0.3846154   0.1323477   0.0000000), wk =   0.0236686
        k(   73) = (   0.4615385   0.2664719   0.0000000), wk =   0.0236686
        k(   74) = (   0.4615385   0.3561841   0.0000000), wk =   0.0236686
        k(   75) = (   0.4615385   0.4458964   0.0000000), wk =   0.0236686
        k(   76) = (   0.4615385   0.5356086   0.0000000), wk =   0.0236686
        k(   77) = (   0.4615385   0.6253208   0.0000000), wk =   0.0236686
        k(   78) = (   0.4615385   0.7150330   0.0000000), wk =   0.0236686
        k(   79) = (   0.4615385   0.8047452   0.0000000), wk =   0.0236686
        k(   80) = (   0.4615385  -0.2718014   0.0000000), wk =   0.0236686
        k(   81) = (   0.4615385  -0.1820892   0.0000000), wk =   0.0236686
        k(   82) = (   0.4615385  -0.0923769   0.0000000), wk =   0.0236686
        k(   83) = (   0.4615385  -0.0026647   0.0000000), wk =   0.0236686
        k(   84) = (   0.4615385   0.0870475   0.0000000), wk =   0.0236686
        k(   85) = (   0.4615385   0.1767597   0.0000000), wk =   0.0236686

                       cryst. coord.
        k(    1) = (   0.0000000   0.0000000   0.0000000), wk =   0.0118343
        k(    2) = (   0.0000000   0.0769231   0.0000000), wk =   0.0236686
        k(    3) = (   0.0000000   0.1538462   0.0000000), wk =   0.0236686
        k(    4) = (   0.0000000   0.2307692   0.0000000), wk =   0.0236686
        k(    5) = (   0.0000000   0.3076923   0.0000000), wk =   0.0236686
        k(    6) = (   0.0000000   0.3846154   0.0000000), wk =   0.0236686
        k(    7) = (   0.0000000   0.4615385   0.0000000), wk =   0.0236686
        k(    8) = (   0.0769231  -0.0000000   0.0000000), wk =   0.0236686
        k(    9) = (   0.0769231   0.0769231   0.0000000), wk =   0.0236686
        k(   10) = (   0.0769231   0.1538462   0.0000000), wk =   0.0236686
        k(   11) = (   0.0769231   0.2307692   0.0000000), wk =   0.0236686
        k(   12) = (   0.0769231   0.3076923   0.0000000), wk =   0.0236686
        k(   13) = (   0.0769231   0.3846154   0.0000000), wk =   0.0236686
        k(   14) = (   0.0769231   0.4615385   0.0000000), wk =   0.0236686
        k(   15) = (   0.0769231  -0.4615385   0.0000000), wk =   0.0236686
        k(   16) = (   0.0769231  -0.3846154   0.0000000), wk =   0.0236686
        k(   17) = (   0.0769231  -0.3076923   0.0000000), wk =   0.0236686
        k(   18) = (   0.0769231  -0.2307692   0.0000000), wk =   0.0236686
        k(   19) = (   0.0769231  -0.1538462   0.0000000), wk =   0.0236686
        k(   20) = (   0.0769231  -0.0769231   0.0000000), wk =   0.0236686
        k(   21) = (   0.1538462  -0.0000000   0.0000000), wk =   0.0236686
        k(   22) = (   0.1538462   0.0769231   0.0000000), wk =   0.0236686
        k(   23) = (   0.1538462   0.1538462   0.0000000), wk =   0.0236686
        k(   24) = (   0.1538462   0.2307692   0.0000000), wk =   0.0236686
        k(   25) = (   0.1538462   0.3076923   0.0000000), wk =   0.0236686
        k(   26) = (   0.1538462   0.3846154   0.0000000), wk =   0.0236686
        k(   27) = (   0.1538462   0.4615385   0.0000000), wk =   0.0236686
        k(   28) = (   0.1538462  -0.4615385   0.0000000), wk =   0.0236686
        k(   29) = (   0.1538462  -0.3846154   0.0000000), wk =   0.0236686
        k(   30) = (   0.1538462  -0.3076923   0.0000000), wk =   0.0236686
        k(   31) = (   0.1538462  -0.2307692   0.0000000), wk =   0.0236686
        k(   32) = (   0.1538462  -0.1538462   0.0000000), wk =   0.0236686
        k(   33) = (   0.1538462  -0.0769231   0.0000000), wk =   0.0236686
        k(   34) = (   0.2307692  -0.0000000   0.0000000), wk =   0.0236686
        k(   35) = (   0.2307692   0.0769231   0.0000000), wk =   0.0236686
        k(   36) = (   0.2307692   0.1538462   0.0000000), wk =   0.0236686
        k(   37) = (   0.2307692   0.2307692   0.0000000), wk =   0.0236686
        k(   38) = (   0.2307692   0.3076923   0.0000000), wk =   0.0236686
        k(   39) = (   0.2307692   0.3846154   0.0000000), wk =   0.0236686
        k(   40) = (   0.2307692   0.4615385   0.0000000), wk =   0.0236686
        k(   41) = (   0.2307692  -0.4615385   0.0000000), wk =   0.0236686
        k(   42) = (   0.2307692  -0.3846154   0.0000000), wk =   0.0236686
        k(   43) = (   0.2307692  -0.3076923   0.0000000), wk =   0.0236686
        k(   44) = (   0.2307692  -0.2307692   0.0000000), wk =   0.0236686
        k(   45) = (   0.2307692  -0.1538462   0.0000000), wk =   0.0236686
        k(   46) = (   0.2307692  -0.0769231   0.0000000), wk =   0.0236686
        k(   47) = (   0.3076923  -0.0000000   0.0000000), wk =   0.0236686
        k(   48) = (   0.3076923   0.0769231   0.0000000), wk =   0.0236686
        k(   49) = (   0.3076923   0.1538462   0.0000000), wk =   0.0236686
        k(   50) = (   0.3076923   0.2307692   0.0000000), wk =   0.0236686
        k(   51) = (   0.3076923   0.3076923   0.0000000), wk =   0.0236686
        k(   52) = (   0.3076923   0.3846154   0.0000000), wk =   0.0236686
        k(   53) = (   0.3076923   0.4615385   0.0000000), wk =   0.0236686
        k(   54) = (   0.3076923  -0.4615385   0.0000000), wk =   0.0236686
        k(   55) = (   0.3076923  -0.3846154   0.0000000), wk =   0.0236686
        k(   56) = (   0.3076923  -0.3076923   0.0000000), wk =   0.0236686
        k(   57) = (   0.3076923  -0.2307692   0.0000000), wk =   0.0236686
        k(   58) = (   0.3076923  -0.1538462   0.0000000), wk =   0.0236686
        k(   59) = (   0.3076923  -0.0769231   0.0000000), wk =   0.0236686
        k(   60) = (   0.3846154   0.0000000   0.0000000), wk =   0.0236686
        k(   61) = (   0.3846154   0.0769231   0.0000000), wk =   0.0236686
        k(   62) = (   0.3846154   0.1538462   0.0000000), wk =   0.0236686
        k(   63) = (   0.3846154   0.2307692   0.0000000), wk =   0.0236686
        k(   64) = (   0.3846154   0.3076923   0.0000000), wk =   0.0236686
        k(   65) = (   0.3846154   0.3846154   0.0000000), wk =   0.0236686
        k(   66) = (   0.3846154   0.4615385   0.0000000), wk =   0.0236686
        k(   67) = (   0.3846154  -0.4615385   0.0000000), wk =   0.0236686
        k(   68) = (   0.3846154  -0.3846154   0.0000000), wk =   0.0236686
        k(   69) = (   0.3846154  -0.3076923   0.0000000), wk =   0.0236686
        k(   70) = (   0.3846154  -0.2307692   0.0000000), wk =   0.0236686
        k(   71) = (   0.3846154  -0.1538462   0.0000000), wk =   0.0236686
        k(   72) = (   0.3846154  -0.0769231   0.0000000), wk =   0.0236686
        k(   73) = (   0.4615385  -0.0000000   0.0000000), wk =   0.0236686
        k(   74) = (   0.4615385   0.0769231   0.0000000), wk =   0.0236686
        k(   75) = (   0.4615385   0.1538462   0.0000000), wk =   0.0236686
        k(   76) = (   0.4615385   0.2307692   0.0000000), wk =   0.0236686
        k(   77) = (   0.4615385   0.3076923   0.0000000), wk =   0.0236686
        k(   78) = (   0.4615385   0.3846154   0.0000000), wk =   0.0236686
        k(   79) = (   0.4615385   0.4615385   0.0000000), wk =   0.0236686
        k(   80) = (   0.4615385  -0.4615385   0.0000000), wk =   0.0236686
        k(   81) = (   0.4615385  -0.3846154   0.0000000), wk =   0.0236686
        k(   82) = (   0.4615385  -0.3076923   0.0000000), wk =   0.0236686
        k(   83) = (   0.4615385  -0.2307692   0.0000000), wk =   0.0236686
        k(   84) = (   0.4615385  -0.1538462   0.0000000), wk =   0.0236686
        k(   85) = (   0.4615385  -0.0769231   0.0000000), wk =   0.0236686

     Dense  grid:   192371 G-vectors     FFT dimensions: (  45,  45, 225)

     Dynamical RAM for                 wfc:       0.44 MB

     Dynamical RAM for     wfc (w. buffer):       0.44 MB

     Dynamical RAM for                 EXX:     624.41 MB

     Dynamical RAM for           str. fact:       0.07 MB

     Dynamical RAM for           local pot:       0.00 MB

     Dynamical RAM for          nlocal pot:       0.39 MB

     Dynamical RAM for                qrad:       2.85 MB

     Dynamical RAM for          rho,v,vnew:       0.24 MB

     Dynamical RAM for           G-vectors:       0.15 MB

     Dynamical RAM for          h,s,v(r/c):       1.83 MB

     Dynamical RAM for          <psi|beta>:       0.14 MB

     Dynamical RAM for                 psi:       0.87 MB

     Dynamical RAM for                hpsi:       0.87 MB

     Dynamical RAM for      wfcinit/wfcrot:       1.10 MB

     Estimated static dynamical RAM per process >     628.89 MB

     Estimated max dynamical RAM per process >     632.60 MB

     Estimated total dynamical RAM >     103.79 GB
     EXX: initializing ACE and reading from file
     ACE potential read for      100 bands
     ACE potential read for      100 bands
     ACE potential read for      100 bands
     ACE potential read for      100 bands
     ACE potential read for      100 bands
     ACE potential read for      100 bands
     ACE potential read for      100 bands
     ACE potential read for      100 bands
     ACE potential read for      100 bands
     ACE potential read for      100 bands
     ACE potential read for      100 bands
     ACE potential read for      100 bands
     ACE potential read for      100 bands
     ACE potential read for      100 bands
     ACE potential read for      100 bands
     ACE potential read for      100 bands
     ACE potential read for      100 bands
     ACE potential read for      100 bands
     ACE potential read for      100 bands
     ACE potential read for      100 bands
     ACE potential read for      100 bands
     ACE potential read for      100 bands
     ACE potential read for      100 bands
     ACE potential read for      100 bands
     ACE potential read for      100 bands
     ACE potential read for      100 bands
     ACE potential read for      100 bands
     ACE potential read for      100 bands
     ACE potential read for      100 bands
     ACE potential read for      100 bands
     ACE potential read for      100 bands
     ACE potential read for      100 bands
     ACE potential read for      100 bands
     ACE potential read for      100 bands
     ACE potential read for      100 bands
     ACE potential read for      100 bands
     ACE potential read for      100 bands
     ACE potential read for      100 bands
     ACE potential read for      100 bands
     ACE potential read for      100 bands
     ACE potential read for      100 bands
     ACE potential read for      100 bands
     ACE potential read for      100 bands
     Starting ACE correctly read from file

     The potential is recalculated from file :
     tmp/Sb2Te3-uatsx-c4-1.0.save/charge-density

     Starting wfcs are random

     Band Structure Calculation
     Davidson diagonalization with overlap

     Computing kpt #:     1  of    43 on this pool
     total cpu time spent up to now is       17.0 secs

     Computing kpt #:     2  of    43 on this pool
     total cpu time spent up to now is       19.8 secs

     Computing kpt #:     3  of    43 on this pool
     total cpu time spent up to now is       23.0 secs

     Computing kpt #:     4  of    43 on this pool
     total cpu time spent up to now is       26.2 secs

     Computing kpt #:     5  of    43 on this pool
     total cpu time spent up to now is       30.0 secs

     Computing kpt #:     6  of    43 on this pool
     total cpu time spent up to now is       33.0 secs

     Computing kpt #:     7  of    43 on this pool
     total cpu time spent up to now is       36.0 secs

     Computing kpt #:     8  of    43 on this pool
     total cpu time spent up to now is       39.1 secs

     Computing kpt #:     9  of    43 on this pool
     total cpu time spent up to now is       42.2 secs

     Computing kpt #:    10  of    43 on this pool
     total cpu time spent up to now is       45.3 secs

     Computing kpt #:    11  of    43 on this pool
     total cpu time spent up to now is       48.3 secs

     Computing kpt #:    12  of    43 on this pool
     total cpu time spent up to now is       51.1 secs

     Computing kpt #:    13  of    43 on this pool
     total cpu time spent up to now is       54.3 secs

     Computing kpt #:    14  of    43 on this pool
     total cpu time spent up to now is       57.2 secs

     Computing kpt #:    15  of    43 on this pool
     total cpu time spent up to now is       60.0 secs

     Computing kpt #:    16  of    43 on this pool
     total cpu time spent up to now is       63.2 secs

     Computing kpt #:    17  of    43 on this pool
     total cpu time spent up to now is       66.0 secs

     Computing kpt #:    18  of    43 on this pool
     total cpu time spent up to now is       69.0 secs

     Computing kpt #:    19  of    43 on this pool
     total cpu time spent up to now is       72.1 secs

     Computing kpt #:    20  of    43 on this pool
     total cpu time spent up to now is       75.3 secs

     Computing kpt #:    21  of    43 on this pool
     total cpu time spent up to now is       78.3 secs

     Computing kpt #:    22  of    43 on this pool
     total cpu time spent up to now is       81.4 secs

     Computing kpt #:    23  of    43 on this pool
     total cpu time spent up to now is       85.7 secs

     Computing kpt #:    24  of    43 on this pool
     total cpu time spent up to now is       88.5 secs

     Computing kpt #:    25  of    43 on this pool
     total cpu time spent up to now is       91.7 secs

     Computing kpt #:    26  of    43 on this pool
     total cpu time spent up to now is       94.7 secs

     Computing kpt #:    27  of    43 on this pool
     total cpu time spent up to now is       97.5 secs

     Computing kpt #:    28  of    43 on this pool
     total cpu time spent up to now is      100.4 secs

     Computing kpt #:    29  of    43 on this pool
     total cpu time spent up to now is      103.3 secs

     Computing kpt #:    30  of    43 on this pool
     total cpu time spent up to now is      106.2 secs

     Computing kpt #:    31  of    43 on this pool
     total cpu time spent up to now is      109.2 secs

     Computing kpt #:    32  of    43 on this pool
     total cpu time spent up to now is      112.1 secs

     Computing kpt #:    33  of    43 on this pool
     total cpu time spent up to now is      115.1 secs

     Computing kpt #:    34  of    43 on this pool
     total cpu time spent up to now is      118.1 secs

     Computing kpt #:    35  of    43 on this pool
     total cpu time spent up to now is      121.3 secs

     Computing kpt #:    36  of    43 on this pool
     total cpu time spent up to now is      124.0 secs

     Computing kpt #:    37  of    43 on this pool
     total cpu time spent up to now is      126.9 secs

     Computing kpt #:    38  of    43 on this pool
     total cpu time spent up to now is      129.8 secs

     Computing kpt #:    39  of    43 on this pool
     total cpu time spent up to now is      133.0 secs

     Computing kpt #:    40  of    43 on this pool
     total cpu time spent up to now is      136.3 secs

     Computing kpt #:    41  of    43 on this pool
     total cpu time spent up to now is      139.4 secs

     Computing kpt #:    42  of    43 on this pool
     total cpu time spent up to now is      142.2 secs

     Computing kpt #:    43  of    43 on this pool
     total cpu time spent up to now is      145.1 secs

     ethr =  1.28E-10,  avg # of iterations = 52.0

     total cpu time spent up to now is      146.6 secs

     End of band structure calculation

          k = 0.0000 0.0000 0.0000 ( 23927 PWs)   bands (ev):

   -36.4687 -36.4673 -36.4627 -36.4609 -36.4422 -36.4397 -36.4359 -36.4337
   -36.4240 -36.4178 -36.1615 -36.1594 -36.1473 -36.1327 -36.1322 -29.1453
   -29.1444 -29.1395 -29.1384 -29.0967 -29.0960 -29.0912 -29.0903 -29.0795
   -29.0740 -12.8529 -12.3303 -11.0308  -7.7873  -6.2270  -1.1845  -1.0315
    -0.9475  -0.7770  -0.7144  -0.1646   0.0196   0.0627   0.5686   2.2774
     2.5632   2.5980   3.6359   3.6443   3.8896   6.3150   6.4901   7.4129
     7.9121   8.4579   8.6017   8.7058   9.3064   9.3119   9.7128   9.8631
    10.3741  10.4251  10.4759  10.5833  11.1863  11.9133  11.9909  12.0690
    12.3228  12.3939  13.2190  13.3632  14.6713  14.8091  14.8582  14.9163
    14.9729  15.6145  16.3248  16.4176  16.4713  16.6079  16.6993  16.7719
    17.0989  17.3831  17.4887  17.5370  17.6326  17.6651  17.7442  17.8111
    17.8280  17.9059  17.9380  17.9976  18.2324  18.4984  19.4988  19.5448
    19.6242  19.6695  19.6754  19.8426

     occupation numbers 
     1.0000   1.0000   1.0000   1.0000   1.0000   1.0000   1.0000   1.0000
     1.0000   1.0000   1.0000   1.0000   1.0000   1.0000   1.0000   1.0000
     1.0000   1.0000   1.0000   1.0000   1.0000   1.0000   1.0000   1.0000
     1.0000   1.0000   1.0000   1.0000   1.0000   1.0000   1.0000   1.0000
     1.0000   1.0000   1.0000   1.0000   1.0000   1.0000   1.0000   0.0000
     0.0000   0.0000   0.0000   0.0000   0.0000   0.0000   0.0000   0.0000
     0.0000   0.0000   0.0000   0.0000   0.0000   0.0000   0.0000   0.0000
     0.0000   0.0000   0.0000   0.0000   0.0000   0.0000   0.0000   0.0000
     0.0000   0.0000   0.0000   0.0000   0.0000   0.0000   0.0000   0.0000
     0.0000   0.0000   0.0000   0.0000   0.0000   0.0000   0.0000   0.0000
     0.0000   0.0000   0.0000   0.0000   0.0000   0.0000   0.0000   0.0000
     0.0000   0.0000   0.0000   0.0000   0.0000   0.0000   0.0000   0.0000
     0.0000   0.0000   0.0000   0.0000

          k = 0.0000 0.0897 0.0000 ( 23925 PWs)   bands (ev):

   -36.4718 -36.4701 -36.4653 -36.4641 -36.4421 -36.4362 -36.4355 -36.4291
   -36.4162 -36.4100 -36.1646 -36.1571 -36.1521 -36.1264 -36.1230 -29.1394
   -29.1384 -29.1336 -29.1326 -29.1005 -29.0987 -29.0946 -29.0933 -29.0750
   -29.0694 -12.7737 -12.2452 -10.9933  -7.8252  -6.3737  -1.5736  -1.2477
    -1.2300  -0.9855  -0.8584  -0.5128   0.0798   0.3697   0.8649   2.3674
     2.6558   2.8147   3.6159   3.7478   4.1498   6.4041   6.5438   7.4904
     7.8280   8.1649   8.5578   8.8550   9.1928   9.3906   9.6989   9.7812
    10.2510  10.5817  10.8663  11.0826  11.4789  11.5912  11.7098  12.0957
    12.7765  12.8757  13.3866  13.4575  14.1177  14.2338  14.9463  15.1290
    15.2296  15.6100  15.8881  16.0339  16.2027  16.4423  16.6317  16.7052
    16.8557  17.0172  17.0893  17.2304  17.3624  17.3946  17.8243  18.2414
    18.4134  18.4372  18.5037  18.6738  18.7027  18.8428  18.9124  19.1677
    19.2097  19.3098  19.5254  19.7797

     occupation numbers 
     1.0000   1.0000   1.0000   1.0000   1.0000   1.0000   1.0000   1.0000
     1.0000   1.0000   1.0000   1.0000   1.0000   1.0000   1.0000   1.0000
     1.0000   1.0000   1.0000   1.0000   1.0000   1.0000   1.0000   1.0000
     1.0000   1.0000   1.0000   1.0000   1.0000   1.0000   1.0000   1.0000
     1.0000   1.0000   1.0000   1.0000   1.0000   1.0000   1.0000   0.0000
     0.0000   0.0000   0.0000   0.0000   0.0000   0.0000   0.0000   0.0000
     0.0000   0.0000   0.0000   0.0000   0.0000   0.0000   0.0000   0.0000
     0.0000   0.0000   0.0000   0.0000   0.0000   0.0000   0.0000   0.0000
     0.0000   0.0000   0.0000   0.0000   0.0000   0.0000   0.0000   0.0000
     0.0000   0.0000   0.0000   0.0000   0.0000   0.0000   0.0000   0.0000
     0.0000   0.0000   0.0000   0.0000   0.0000   0.0000   0.0000   0.0000
     0.0000   0.0000   0.0000   0.0000   0.0000   0.0000   0.0000   0.0000
     0.0000   0.0000   0.0000   0.0000

          k = 0.0000 0.1794 0.0000 ( 23955 PWs)   bands (ev):

   -36.4622 -36.4578 -36.4557 -36.4518 -36.4268 -36.4243 -36.4205 -36.4184
   -36.4060 -36.3998 -36.1591 -36.1518 -36.1438 -36.1199 -36.1159 -29.1381
   -29.1360 -29.1323 -29.1301 -29.1129 -29.1071 -29.1022 -29.0967 -29.0949
   -29.0895 -12.5705 -12.0270 -10.8586  -7.9176  -6.7301  -2.4253  -1.6792
    -1.6171  -1.4345  -1.0984  -0.8429   0.1254   0.4728   0.8881   2.6181
     2.8585   3.1852   3.9722   4.0220   4.6010   6.6096   6.6718   7.3041
     7.8157   8.0385   8.8302   8.9252   9.0958   9.2792   9.8838  10.0702
    10.1174  10.7703  11.2124  11.4550  11.7706  11.9603  12.3178  12.5022
    12.9466  13.0779  13.3754  13.7930  13.9036  14.2577  14.4616  14.8630
    14.8800  15.0615  15.4322  15.6817  16.1655  16.1973  16.3139  16.3689
    16.5915  16.8322  16.8384  17.1277  17.2659  17.7490  18.0776  18.3022
    18.3959  18.5130  18.6229  18.7243  18.8805  19.4231  19.5439  19.6691
    19.7440  19.8270  20.0788  20.3606

     occupation numbers 
     1.0000   1.0000   1.0000   1.0000   1.0000   1.0000   1.0000   1.0000
     1.0000   1.0000   1.0000   1.0000   1.0000   1.0000   1.0000   1.0000
     1.0000   1.0000   1.0000   1.0000   1.0000   1.0000   1.0000   1.0000
     1.0000   1.0000   1.0000   1.0000   1.0000   1.0000   1.0000   1.0000
     1.0000   1.0000   1.0000   1.0000   1.0000   1.0000   1.0000   0.0000
     0.0000   0.0000   0.0000   0.0000   0.0000   0.0000   0.0000   0.0000
     0.0000   0.0000   0.0000   0.0000   0.0000   0.0000   0.0000   0.0000
     0.0000   0.0000   0.0000   0.0000   0.0000   0.0000   0.0000   0.0000
     0.0000   0.0000   0.0000   0.0000   0.0000   0.0000   0.0000   0.0000
     0.0000   0.0000   0.0000   0.0000   0.0000   0.0000   0.0000   0.0000
     0.0000   0.0000   0.0000   0.0000   0.0000   0.0000   0.0000   0.0000
     0.0000   0.0000   0.0000   0.0000   0.0000   0.0000   0.0000   0.0000
     0.0000   0.0000   0.0000   0.0000

          k = 0.0000 0.2691 0.0000 ( 23986 PWs)   bands (ev):

   -36.4576 -36.4512 -36.4511 -36.4451 -36.4200 -36.4150 -36.4136 -36.4092
   -36.4002 -36.3940 -36.1542 -36.1487 -36.1351 -36.1125 -36.1074 -29.1359
   -29.1320 -29.1301 -29.1262 -29.1151 -29.1093 -29.1065 -29.1009 -29.0908
   -29.0852 -12.2723 -11.7619 -10.6987  -8.0677  -7.2123  -3.1736  -2.1997
    -1.9915  -1.8659  -1.3823  -0.8109  -0.1477   0.0825   0.9617   2.6438
     3.0428   3.5731   4.3128   4.3447   5.1271   6.5311   6.9123   7.2282
     8.0072   8.3359   8.8175   9.3050   9.3155   9.3544  10.2757  10.3372
    10.4141  10.9594  11.0365  11.9594  12.2227  12.5170  12.6683  12.7276
    12.9279  12.9479  13.4539  13.5963  14.0156  14.2434  14.4314  14.8360
    14.9757  15.0373  15.3229  15.5642  15.6833  15.7372  15.9235  16.0789
    16.2749  16.7603  17.0684  17.3537  17.7934  17.8301  17.9554  18.0509
    18.1443  18.4759  18.9198  18.9874  19.0663  19.2587  19.5108  19.6964
    19.7795  20.1545  20.3479  20.4227

     occupation numbers 
     1.0000   1.0000   1.0000   1.0000   1.0000   1.0000   1.0000   1.0000
     1.0000   1.0000   1.0000   1.0000   1.0000   1.0000   1.0000   1.0000
     1.0000   1.0000   1.0000   1.0000   1.0000   1.0000   1.0000   1.0000
     1.0000   1.0000   1.0000   1.0000   1.0000   1.0000   1.0000   1.0000
     1.0000   1.0000   1.0000   1.0000   1.0000   1.0000   1.0000   0.0000
     0.0000   0.0000   0.0000   0.0000   0.0000   0.0000   0.0000   0.0000
     0.0000   0.0000   0.0000   0.0000   0.0000   0.0000   0.0000   0.0000
     0.0000   0.0000   0.0000   0.0000   0.0000   0.0000   0.0000   0.0000
     0.0000   0.0000   0.0000   0.0000   0.0000   0.0000   0.0000   0.0000
     0.0000   0.0000   0.0000   0.0000   0.0000   0.0000   0.0000   0.0000
     0.0000   0.0000   0.0000   0.0000   0.0000   0.0000   0.0000   0.0000
     0.0000   0.0000   0.0000   0.0000   0.0000   0.0000   0.0000   0.0000
     0.0000   0.0000   0.0000   0.0000

          k = 0.0000 0.3588 0.0000 ( 24054 PWs)   bands (ev):

   -36.4526 -36.4461 -36.4452 -36.4390 -36.4141 -36.4078 -36.4076 -36.4020
   -36.3924 -36.3863 -36.1514 -36.1475 -36.1263 -36.1031 -36.0958 -29.1373
   -29.1321 -29.1316 -29.1264 -29.1161 -29.1102 -29.1084 -29.1027 -29.0926
   -29.0869 -11.8968 -11.4432 -10.5571  -8.3501  -7.7138  -3.7483  -2.6938
    -2.2996  -2.0425  -1.6374  -1.0124  -0.3635  -0.0028   0.7103   2.7257
     3.1459   3.5616   4.5588   4.6317   5.5768   6.1805   7.2935   7.4766
     8.1571   8.6547   9.1058   9.6085   9.8213  10.0535  10.4208  10.6796
    10.8586  11.0615  11.4239  11.5414  12.0811  12.4037  12.5604  12.7803
    13.1163  13.3558  13.4712  13.7930  14.1071  14.3111  14.5516  14.7534
    15.2145  15.2342  15.4351  15.5507  15.5785  15.7986  16.0451  16.2907
    16.6557  16.9571  17.1784  17.2390  17.3111  17.4766  17.5887  17.6359
    17.6683  17.9337  18.0249  18.2800  18.9631  19.0555  19.1685  19.4784
    19.6899  20.2211  20.2481  20.5333

     occupation numbers 
     1.0000   1.0000   1.0000   1.0000   1.0000   1.0000   1.0000   1.0000
     1.0000   1.0000   1.0000   1.0000   1.0000   1.0000   1.0000   1.0000
     1.0000   1.0000   1.0000   1.0000   1.0000   1.0000   1.0000   1.0000
     1.0000   1.0000   1.0000   1.0000   1.0000   1.0000   1.0000   1.0000
     1.0000   1.0000   1.0000   1.0000   1.0000   1.0000   1.0000   0.0000
     0.0000   0.0000   0.0000   0.0000   0.0000   0.0000   0.0000   0.0000
     0.0000   0.0000   0.0000   0.0000   0.0000   0.0000   0.0000   0.0000
     0.0000   0.0000   0.0000   0.0000   0.0000   0.0000   0.0000   0.0000
     0.0000   0.0000   0.0000   0.0000   0.0000   0.0000   0.0000   0.0000
     0.0000   0.0000   0.0000   0.0000   0.0000   0.0000   0.0000   0.0000
     0.0000   0.0000   0.0000   0.0000   0.0000   0.0000   0.0000   0.0000
     0.0000   0.0000   0.0000   0.0000   0.0000   0.0000   0.0000   0.0000
     0.0000   0.0000   0.0000   0.0000

          k = 0.0000 0.4486 0.0000 ( 24060 PWs)   bands (ev):

   -36.4477 -36.4412 -36.4393 -36.4331 -36.4129 -36.4064 -36.4040 -36.3982
   -36.3908 -36.3848 -36.1506 -36.1485 -36.1227 -36.0975 -36.0886 -29.1371
   -29.1316 -29.1314 -29.1259 -29.1160 -29.1099 -29.1063 -29.1006 -29.0932
   -29.0874 -11.4719 -11.1198 -10.5228  -8.7283  -8.1201  -4.1331  -2.9167
    -2.5146  -2.2688  -1.8231  -1.2582  -0.3264  -0.0861   0.4263   2.7365
     3.1820   3.4531   4.6983   4.8337   5.7160   5.9927   7.4347   7.9619
     8.3965   9.0851   9.6098   9.7754  10.0275  10.5509  10.7017  11.0357
    11.1450  11.3672  11.4127  11.7191  11.8630  12.2172  12.6444  12.8932
    13.1982  13.4566  13.9525  13.9587  14.1305  14.2341  14.4996  14.7196
    14.9805  15.0274  15.3840  15.4566  15.6396  15.9644  16.1780  16.3111
    16.4240  16.6388  16.8702  16.9280  17.1498  17.2331  17.4625  17.6407
    17.6728  17.8623  18.0559  18.1515  18.3617  18.9370  19.3786  19.4788
    19.6364  20.0659  20.1658  20.4231

     occupation numbers 
     1.0000   1.0000   1.0000   1.0000   1.0000   1.0000   1.0000   1.0000
     1.0000   1.0000   1.0000   1.0000   1.0000   1.0000   1.0000   1.0000
     1.0000   1.0000   1.0000   1.0000   1.0000   1.0000   1.0000   1.0000
     1.0000   1.0000   1.0000   1.0000   1.0000   1.0000   1.0000   1.0000
     1.0000   1.0000   1.0000   1.0000   1.0000   1.0000   1.0000   0.0000
     0.0000   0.0000   0.0000   0.0000   0.0000   0.0000   0.0000   0.0000
     0.0000   0.0000   0.0000   0.0000   0.0000   0.0000   0.0000   0.0000
     0.0000   0.0000   0.0000   0.0000   0.0000   0.0000   0.0000   0.0000
     0.0000   0.0000   0.0000   0.0000   0.0000   0.0000   0.0000   0.0000
     0.0000   0.0000   0.0000   0.0000   0.0000   0.0000   0.0000   0.0000
     0.0000   0.0000   0.0000   0.0000   0.0000   0.0000   0.0000   0.0000
     0.0000   0.0000   0.0000   0.0000   0.0000   0.0000   0.0000   0.0000
     0.0000   0.0000   0.0000   0.0000

          k = 0.0000 0.5383 0.0000 ( 24063 PWs)   bands (ev):

   -36.4449 -36.4383 -36.4360 -36.4296 -36.4135 -36.4070 -36.4008 -36.3951
   -36.3937 -36.3876 -36.1509 -36.1499 -36.1219 -36.0951 -36.0855 -29.1365
   -29.1309 -29.1308 -29.1252 -29.1152 -29.1089 -29.1036 -29.0978 -29.0926
   -29.0869 -11.0451 -10.8891 -10.6708  -9.0143  -8.3589  -4.3340  -2.8821
    -2.6254  -2.5578  -1.9200  -1.3232  -0.3177  -0.1356   0.2763   2.6717
     3.1887   3.4412   4.7181   4.9314   5.7315   5.8828   7.5346   8.5304
     8.7920   9.1743   9.3886   9.7315  10.1010  10.4075  10.8537  11.3578
    11.5624  11.7715  11.9314  12.1823  12.2835  12.3782  12.5996  13.0037
    13.1291  13.4387  13.5063  13.7158  14.2469  14.2826  14.5458  14.6438
    14.7497  14.8412  14.9336  15.1989  15.4153  15.4726  15.6749  15.9868
    16.1309  16.3279  16.9055  17.0172  17.1560  17.3135  17.6252  17.9859
    18.2207  18.2715  18.3332  18.7315  18.9442  19.0378  19.1056  19.4243
    19.4556  20.0618  20.1454  20.2675

     occupation numbers 
     1.0000   1.0000   1.0000   1.0000   1.0000   1.0000   1.0000   1.0000
     1.0000   1.0000   1.0000   1.0000   1.0000   1.0000   1.0000   1.0000
     1.0000   1.0000   1.0000   1.0000   1.0000   1.0000   1.0000   1.0000
     1.0000   1.0000   1.0000   1.0000   1.0000   1.0000   1.0000   1.0000
     1.0000   1.0000   1.0000   1.0000   1.0000   1.0000   1.0000   0.0000
     0.0000   0.0000   0.0000   0.0000   0.0000   0.0000   0.0000   0.0000
     0.0000   0.0000   0.0000   0.0000   0.0000   0.0000   0.0000   0.0000
     0.0000   0.0000   0.0000   0.0000   0.0000   0.0000   0.0000   0.0000
     0.0000   0.0000   0.0000   0.0000   0.0000   0.0000   0.0000   0.0000
     0.0000   0.0000   0.0000   0.0000   0.0000   0.0000   0.0000   0.0000
     0.0000   0.0000   0.0000   0.0000   0.0000   0.0000   0.0000   0.0000
     0.0000   0.0000   0.0000   0.0000   0.0000   0.0000   0.0000   0.0000
     0.0000   0.0000   0.0000   0.0000

          k = 0.0769 0.0444 0.0000 ( 23957 PWs)   bands (ev):

   -36.4730 -36.4698 -36.4668 -36.4636 -36.4438 -36.4377 -36.4334 -36.4273
   -36.4161 -36.4100 -36.1627 -36.1575 -36.1537 -36.1263 -36.1240 -29.1393
   -29.1384 -29.1335 -29.1325 -29.1009 -29.0983 -29.0953 -29.0927 -29.0749
   -29.0693 -12.7752 -12.2473 -10.9954  -7.8271  -6.3788  -1.6009  -1.3314
    -1.1555  -0.9813  -0.7987  -0.5283   0.1207   0.3607   0.8636   2.4118
     2.6817   2.7468   3.6459   3.7455   4.1195   6.4025   6.5419   7.4921
     7.8192   8.1064   8.6790   8.8468   9.1588   9.3554   9.7027   9.8286
    10.2690  10.6265  10.8317  11.0192  11.4764  11.5307  11.8267  12.0006
    12.8397  12.8727  13.3672  13.4007  14.0642  14.3458  14.9200  15.0428
    15.3079  15.5604  15.8958  16.0491  16.1368  16.3550  16.5845  16.7743
    16.9660  17.0634  17.1398  17.2808  17.3774  17.4767  17.8224  18.1407
    18.3520  18.3720  18.5191  18.6855  18.7534  18.9529  18.9730  19.1848
    19.2743  19.3525  19.3952  19.6375

     occupation numbers 
     1.0000   1.0000   1.0000   1.0000   1.0000   1.0000   1.0000   1.0000
     1.0000   1.0000   1.0000   1.0000   1.0000   1.0000   1.0000   1.0000
     1.0000   1.0000   1.0000   1.0000   1.0000   1.0000   1.0000   1.0000
     1.0000   1.0000   1.0000   1.0000   1.0000   1.0000   1.0000   1.0000
     1.0000   1.0000   1.0000   1.0000   1.0000   1.0000   1.0000   0.0000
     0.0000   0.0000   0.0000   0.0000   0.0000   0.0000   0.0000   0.0000
     0.0000   0.0000   0.0000   0.0000   0.0000   0.0000   0.0000   0.0000
     0.0000   0.0000   0.0000   0.0000   0.0000   0.0000   0.0000   0.0000
     0.0000   0.0000   0.0000   0.0000   0.0000   0.0000   0.0000   0.0000
     0.0000   0.0000   0.0000   0.0000   0.0000   0.0000   0.0000   0.0000
     0.0000   0.0000   0.0000   0.0000   0.0000   0.0000   0.0000   0.0000
     0.0000   0.0000   0.0000   0.0000   0.0000   0.0000   0.0000   0.0000
     0.0000   0.0000   0.0000   0.0000

          k = 0.0769 0.1341 0.0000 ( 23979 PWs)   bands (ev):

   -36.4741 -36.4678 -36.4585 -36.4522 -36.4338 -36.4276 -36.4257 -36.4198
   -36.4099 -36.4038 -36.1602 -36.1554 -36.1525 -36.1189 -36.1186 -29.1428
   -29.1371 -29.1282 -29.1224 -29.1089 -29.1033 -29.0991 -29.0936 -29.0858
   -29.0801 -12.6368 -12.0974 -10.9097  -7.8911  -6.6277  -2.1316  -1.7419
    -1.4928  -1.3121  -0.9429  -0.6414  -0.0966   0.7829   0.8185   2.5294
     2.9025   3.0012   3.7750   4.0541   4.4153   6.5488   6.6445   7.5356
     7.7464   7.7797   8.8977   8.9376   9.1330   9.2893   9.5917   9.9558
    10.4575  10.7781  11.0586  11.4640  11.4955  11.8034  12.0193  12.2228
    13.0621  13.1799  13.5882  13.6941  13.8679  14.1744  14.3759  14.6233
    15.3573  15.4575  15.5517  15.6732  15.7905  15.8131  16.2446  16.8583
    17.0306  17.0644  17.3233  17.4318  17.6217  17.6708  17.7757  18.0021
    18.0294  18.1631  18.1941  18.2533  19.0561  19.5299  19.8226  19.8982
    19.9558  20.0137  20.2090  20.2552

     occupation numbers 
     1.0000   1.0000   1.0000   1.0000   1.0000   1.0000   1.0000   1.0000
     1.0000   1.0000   1.0000   1.0000   1.0000   1.0000   1.0000   1.0000
     1.0000   1.0000   1.0000   1.0000   1.0000   1.0000   1.0000   1.0000
     1.0000   1.0000   1.0000   1.0000   1.0000   1.0000   1.0000   1.0000
     1.0000   1.0000   1.0000   1.0000   1.0000   1.0000   1.0000   0.0000
     0.0000   0.0000   0.0000   0.0000   0.0000   0.0000   0.0000   0.0000
     0.0000   0.0000   0.0000   0.0000   0.0000   0.0000   0.0000   0.0000
     0.0000   0.0000   0.0000   0.0000   0.0000   0.0000   0.0000   0.0000
     0.0000   0.0000   0.0000   0.0000   0.0000   0.0000   0.0000   0.0000
     0.0000   0.0000   0.0000   0.0000   0.0000   0.0000   0.0000   0.0000
     0.0000   0.0000   0.0000   0.0000   0.0000   0.0000   0.0000   0.0000
     0.0000   0.0000   0.0000   0.0000   0.0000   0.0000   0.0000   0.0000
     0.0000   0.0000   0.0000   0.0000

          k = 0.0769 0.2238 0.0000 ( 23983 PWs)   bands (ev):

   -36.4615 -36.4556 -36.4550 -36.4495 -36.4234 -36.4173 -36.4169 -36.4118
   -36.4007 -36.3946 -36.1551 -36.1519 -36.1431 -36.1121 -36.1102 -29.1405
   -29.1348 -29.1257 -29.1199 -29.1136 -29.1080 -29.1031 -29.0974 -29.0956
   -29.0899 -12.3889 -11.8625 -10.7624  -8.0049  -7.0461  -2.8056  -2.3180
    -1.8309  -1.6308  -1.2836  -0.8587  -0.1283   0.4672   0.9648   2.7047
     2.9440   3.4681   3.9922   4.5123   4.8682   6.7544   6.7906   7.2542
     7.7457   8.0052   8.8488   9.0303   9.2345   9.4915   9.9938  10.2105
    10.5749  10.8090  11.4134  11.6027  11.9584  12.1074  12.5683  12.7369
    13.0776  13.3718  13.6578  13.7347  13.7749  14.0740  14.2863  14.5434
    14.6654  14.8561  15.1484  15.2232  16.0668  16.1959  16.2996  16.4042
    16.6047  16.9067  17.1074  17.2573  17.4078  17.5524  17.7535  18.1142
    18.5914  18.8673  19.0401  19.0534  19.1873  19.2058  19.3867  19.4851
    19.6233  19.8608  19.9643  20.0829

     occupation numbers 
     1.0000   1.0000   1.0000   1.0000   1.0000   1.0000   1.0000   1.0000
     1.0000   1.0000   1.0000   1.0000   1.0000   1.0000   1.0000   1.0000
     1.0000   1.0000   1.0000   1.0000   1.0000   1.0000   1.0000   1.0000
     1.0000   1.0000   1.0000   1.0000   1.0000   1.0000   1.0000   1.0000
     1.0000   1.0000   1.0000   1.0000   1.0000   1.0000   1.0000   0.0000
     0.0000   0.0000   0.0000   0.0000   0.0000   0.0000   0.0000   0.0000
     0.0000   0.0000   0.0000   0.0000   0.0000   0.0000   0.0000   0.0000
     0.0000   0.0000   0.0000   0.0000   0.0000   0.0000   0.0000   0.0000
     0.0000   0.0000   0.0000   0.0000   0.0000   0.0000   0.0000   0.0000
     0.0000   0.0000   0.0000   0.0000   0.0000   0.0000   0.0000   0.0000
     0.0000   0.0000   0.0000   0.0000   0.0000   0.0000   0.0000   0.0000
     0.0000   0.0000   0.0000   0.0000   0.0000   0.0000   0.0000   0.0000
     0.0000   0.0000   0.0000   0.0000

          k = 0.0769 0.3135 0.0000 ( 24030 PWs)   bands (ev):

   -36.4553 -36.4489 -36.4468 -36.4405 -36.4172 -36.4107 -36.4106 -36.4050
   -36.3954 -36.3895 -36.1513 -36.1495 -36.1335 -36.1037 -36.1001 -29.1372
   -29.1316 -29.1281 -29.1223 -29.1157 -29.1100 -29.1071 -29.1015 -29.0938
   -29.0881 -12.0547 -11.5719 -10.6070  -8.2127  -7.5458  -3.4491  -2.7034
    -2.1405  -1.9890  -1.6614  -0.9564  -0.1569   0.0458   0.8937   2.8433
     3.0395   3.5727   4.3428   4.7726   5.3658   6.4867   7.1355   7.3840
     8.0203   8.4314   8.5504   9.3436   9.5590  10.1543  10.3353  10.4995
    10.7067  11.0342  11.6684  11.7471  12.0192  12.5295  12.7881  12.9224
    13.0417  13.2004  13.2677  13.3874  13.8585  14.2089  14.5952  14.6911
    14.8556  14.9427  15.2148  15.4952  15.7899  15.9101  16.1984  16.4652
    16.5930  16.8764  17.0195  17.0693  17.1912  17.5648  17.6974  17.8871
    18.2837  18.3954  18.6929  18.8721  19.1392  19.2240  19.4264  19.4531
    19.6496  19.9757  20.1556  20.2325

     occupation numbers 
     1.0000   1.0000   1.0000   1.0000   1.0000   1.0000   1.0000   1.0000
     1.0000   1.0000   1.0000   1.0000   1.0000   1.0000   1.0000   1.0000
     1.0000   1.0000   1.0000   1.0000   1.0000   1.0000   1.0000   1.0000
     1.0000   1.0000   1.0000   1.0000   1.0000   1.0000   1.0000   1.0000
     1.0000   1.0000   1.0000   1.0000   1.0000   1.0000   1.0000   0.0000
     0.0000   0.0000   0.0000   0.0000   0.0000   0.0000   0.0000   0.0000
     0.0000   0.0000   0.0000   0.0000   0.0000   0.0000   0.0000   0.0000
     0.0000   0.0000   0.0000   0.0000   0.0000   0.0000   0.0000   0.0000
     0.0000   0.0000   0.0000   0.0000   0.0000   0.0000   0.0000   0.0000
     0.0000   0.0000   0.0000   0.0000   0.0000   0.0000   0.0000   0.0000
     0.0000   0.0000   0.0000   0.0000   0.0000   0.0000   0.0000   0.0000
     0.0000   0.0000   0.0000   0.0000   0.0000   0.0000   0.0000   0.0000
     0.0000   0.0000   0.0000   0.0000

          k = 0.0769 0.4033 0.0000 ( 24058 PWs)   bands (ev):

   -36.4490 -36.4425 -36.4407 -36.4344 -36.4138 -36.4072 -36.4060 -36.4004
   -36.3931 -36.3872 -36.1499 -36.1488 -36.1277 -36.0975 -36.0916 -29.1360
   -29.1303 -29.1289 -29.1231 -29.1159 -29.1102 -29.1061 -29.1006 -29.0933
   -29.0876 -11.6534 -11.2469 -10.5091  -8.5473  -8.0099  -3.9281  -2.8942
    -2.5336  -2.2825  -1.7790  -1.1596  -0.3324  -0.0579   0.6941   2.8846
     3.0622   3.5767   4.5905   4.9248   5.6800   6.1955   7.4504   7.7231
     8.2646   8.8049   9.0409   9.6987   9.9092  10.2147  10.6833  10.9264
    11.0429  11.3022  11.7166  11.7715  11.8590  12.2964  12.4831  13.0217
    13.1685  13.4857  13.5772  13.8767  13.9037  14.0297  14.2716  14.3580
    14.4797  15.4422  15.6366  15.9909  16.0599  16.1139  16.1621  16.4440
    16.4742  16.6551  16.7645  16.8812  17.0522  17.2140  17.4608  17.7421
    17.9462  18.2156  18.4281  18.5068  18.8471  18.9791  19.0414  19.4145
    19.8949  19.9752  20.0814  20.3387

     occupation numbers 
     1.0000   1.0000   1.0000   1.0000   1.0000   1.0000   1.0000   1.0000
     1.0000   1.0000   1.0000   1.0000   1.0000   1.0000   1.0000   1.0000
     1.0000   1.0000   1.0000   1.0000   1.0000   1.0000   1.0000   1.0000
     1.0000   1.0000   1.0000   1.0000   1.0000   1.0000   1.0000   1.0000
     1.0000   1.0000   1.0000   1.0000   1.0000   1.0000   1.0000   0.0000
     0.0000   0.0000   0.0000   0.0000   0.0000   0.0000   0.0000   0.0000
     0.0000   0.0000   0.0000   0.0000   0.0000   0.0000   0.0000   0.0000
     0.0000   0.0000   0.0000   0.0000   0.0000   0.0000   0.0000   0.0000
     0.0000   0.0000   0.0000   0.0000   0.0000   0.0000   0.0000   0.0000
     0.0000   0.0000   0.0000   0.0000   0.0000   0.0000   0.0000   0.0000
     0.0000   0.0000   0.0000   0.0000   0.0000   0.0000   0.0000   0.0000
     0.0000   0.0000   0.0000   0.0000   0.0000   0.0000   0.0000   0.0000
     0.0000   0.0000   0.0000   0.0000

          k = 0.0769 0.4930 0.0000 ( 24038 PWs)   bands (ev):

   -36.4448 -36.4383 -36.4369 -36.4306 -36.4124 -36.4058 -36.4024 -36.3968
   -36.3937 -36.3876 -36.1502 -36.1484 -36.1253 -36.0936 -36.0862 -29.1354
   -29.1297 -29.1289 -29.1233 -29.1155 -29.1098 -29.1039 -29.0984 -29.0935
   -29.0877 -11.2185 -10.9534 -10.5488  -8.9068  -8.3420  -4.2221  -2.9219
    -2.7932  -2.4881  -1.8860  -1.3556  -0.3663  -0.1070   0.5054   2.9528
     2.9990   3.4937   4.7864   4.9601   5.7767   6.0330   7.5405   8.2812
     8.5894   9.3000   9.5350   9.5405  10.1066  10.3636  10.7262  10.8859
    11.2632  11.4215  11.9012  12.0629  12.2524  12.4170  12.5892  12.9769
    13.1319  13.2441  13.4831  13.5987  13.8765  14.1729  14.3203  14.6496
    14.8319  15.1600  15.3894  15.5435  15.6505  15.8502  16.0593  16.2461
    16.4223  16.5225  16.5523  16.9994  17.4209  17.5723  17.6207  17.8822
    18.0229  18.3745  18.4772  18.5490  18.7258  18.9290  19.0936  19.3958
    19.5614  19.7631  19.9276  20.2628

     occupation numbers 
     1.0000   1.0000   1.0000   1.0000   1.0000   1.0000   1.0000   1.0000
     1.0000   1.0000   1.0000   1.0000   1.0000   1.0000   1.0000   1.0000
     1.0000   1.0000   1.0000   1.0000   1.0000   1.0000   1.0000   1.0000
     1.0000   1.0000   1.0000   1.0000   1.0000   1.0000   1.0000   1.0000
     1.0000   1.0000   1.0000   1.0000   1.0000   1.0000   1.0000   0.0000
     0.0000   0.0000   0.0000   0.0000   0.0000   0.0000   0.0000   0.0000
     0.0000   0.0000   0.0000   0.0000   0.0000   0.0000   0.0000   0.0000
     0.0000   0.0000   0.0000   0.0000   0.0000   0.0000   0.0000   0.0000
     0.0000   0.0000   0.0000   0.0000   0.0000   0.0000   0.0000   0.0000
     0.0000   0.0000   0.0000   0.0000   0.0000   0.0000   0.0000   0.0000
     0.0000   0.0000   0.0000   0.0000   0.0000   0.0000   0.0000   0.0000
     0.0000   0.0000   0.0000   0.0000   0.0000   0.0000   0.0000   0.0000
     0.0000   0.0000   0.0000   0.0000

          k = 0.0769 0.5827 0.0000 ( 24046 PWs)   bands (ev):

   -36.4437 -36.4372 -36.4353 -36.4290 -36.4122 -36.4057 -36.4006 -36.3950
   -36.3948 -36.3886 -36.1507 -36.1484 -36.1246 -36.0922 -36.0845 -29.1351
   -29.1294 -29.1289 -29.1232 -29.1152 -29.1094 -29.1029 -29.0973 -29.0936
   -29.0878 -10.8689 -10.8342 -10.7339  -9.0675  -8.4684  -4.3230  -2.9411
    -2.8096  -2.5962  -1.9640  -1.4073  -0.3231  -0.1714   0.4369   2.9573
     3.0024   3.4341   4.8677   4.9513   5.8423   5.9065   7.6015   8.7196
     8.9925   9.0472   9.1871   9.9958  10.1084  10.1206  10.8218  11.2634
    11.3646  11.5912  11.8622  12.1838  12.2259  12.3346  12.7633  12.8372
    13.0283  13.1961  13.4834  13.8562  13.9819  14.3385  14.6479  14.7147
    14.8800  14.9866  14.9962  15.0599  15.4510  15.5375  15.8558  16.1241
    16.3495  16.5005  16.7691  16.9372  17.1253  17.6591  17.6867  17.9185
    18.3236  18.6669  18.6886  18.9091  18.9507  19.0198  19.1681  19.6409
    19.6544  19.8270  19.8773  19.9624

     occupation numbers 
     1.0000   1.0000   1.0000   1.0000   1.0000   1.0000   1.0000   1.0000
     1.0000   1.0000   1.0000   1.0000   1.0000   1.0000   1.0000   1.0000
     1.0000   1.0000   1.0000   1.0000   1.0000   1.0000   1.0000   1.0000
     1.0000   1.0000   1.0000   1.0000   1.0000   1.0000   1.0000   1.0000
     1.0000   1.0000   1.0000   1.0000   1.0000   1.0000   1.0000   0.0000
     0.0000   0.0000   0.0000   0.0000   0.0000   0.0000   0.0000   0.0000
     0.0000   0.0000   0.0000   0.0000   0.0000   0.0000   0.0000   0.0000
     0.0000   0.0000   0.0000   0.0000   0.0000   0.0000   0.0000   0.0000
     0.0000   0.0000   0.0000   0.0000   0.0000   0.0000   0.0000   0.0000
     0.0000   0.0000   0.0000   0.0000   0.0000   0.0000   0.0000   0.0000
     0.0000   0.0000   0.0000   0.0000   0.0000   0.0000   0.0000   0.0000
     0.0000   0.0000   0.0000   0.0000   0.0000   0.0000   0.0000   0.0000
     0.0000   0.0000   0.0000   0.0000

          k = 0.0769-0.4939 0.0000 ( 24062 PWs)   bands (ev):

   -36.4449 -36.4384 -36.4369 -36.4306 -36.4128 -36.4063 -36.4022 -36.3964
   -36.3937 -36.3876 -36.1506 -36.1486 -36.1250 -36.0935 -36.0863 -29.1354
   -29.1297 -29.1290 -29.1233 -29.1153 -29.1096 -29.1041 -29.0986 -29.0933
   -29.0875 -11.2148 -10.9511 -10.5502  -8.9082  -8.3410  -4.2239  -2.9203
    -2.8032  -2.4760  -1.8946  -1.3477  -0.3636  -0.1162   0.5048   2.9525
     2.9956   3.4847   4.7853   4.9509   5.7710   6.0259   7.5363   8.2857
     8.5961   9.2910   9.5030   9.5268  10.0945  10.3194  10.7191  10.8593
    11.2202  11.4203  11.9108  12.1044  12.2971  12.4502  12.6222  12.9823
    13.1543  13.3459  13.5168  13.6435  13.9115  14.1813  14.3484  14.6167
    14.8499  15.1624  15.3978  15.5424  15.5972  15.8527  16.0314  16.2451
    16.3608  16.5446  16.5697  16.9663  17.3798  17.5596  17.5681  17.9289
    18.0323  18.3833  18.4827  18.5375  18.6793  18.9412  19.1360  19.4066
    19.5580  19.7521  19.9572  20.2398

     occupation numbers 
     1.0000   1.0000   1.0000   1.0000   1.0000   1.0000   1.0000   1.0000
     1.0000   1.0000   1.0000   1.0000   1.0000   1.0000   1.0000   1.0000
     1.0000   1.0000   1.0000   1.0000   1.0000   1.0000   1.0000   1.0000
     1.0000   1.0000   1.0000   1.0000   1.0000   1.0000   1.0000   1.0000
     1.0000   1.0000   1.0000   1.0000   1.0000   1.0000   1.0000   0.0000
     0.0000   0.0000   0.0000   0.0000   0.0000   0.0000   0.0000   0.0000
     0.0000   0.0000   0.0000   0.0000   0.0000   0.0000   0.0000   0.0000
     0.0000   0.0000   0.0000   0.0000   0.0000   0.0000   0.0000   0.0000
     0.0000   0.0000   0.0000   0.0000   0.0000   0.0000   0.0000   0.0000
     0.0000   0.0000   0.0000   0.0000   0.0000   0.0000   0.0000   0.0000
     0.0000   0.0000   0.0000   0.0000   0.0000   0.0000   0.0000   0.0000
     0.0000   0.0000   0.0000   0.0000   0.0000   0.0000   0.0000   0.0000
     0.0000   0.0000   0.0000   0.0000

          k = 0.0769-0.4041 0.0000 ( 24067 PWs)   bands (ev):

   -36.4492 -36.4427 -36.4405 -36.4343 -36.4143 -36.4079 -36.4058 -36.3999
   -36.3931 -36.3870 -36.1508 -36.1490 -36.1271 -36.0973 -36.0916 -29.1362
   -29.1305 -29.1289 -29.1232 -29.1156 -29.1099 -29.1065 -29.1010 -29.0930
   -29.0873 -11.6499 -11.2438 -10.5084  -8.5485  -8.0074  -3.9315  -2.9001
    -2.5359  -2.2680  -1.7904  -1.1471  -0.3320  -0.0715   0.6883   2.8913
     3.0487   3.5559   4.5788   4.9230   5.6670   6.1850   7.4461   7.7258
     8.2623   8.7778   8.9974   9.6718   9.9109  10.2007  10.6789  10.9537
    11.0354  11.3760  11.7023  11.8018  11.8674  12.3054  12.5081  13.0304
    13.1787  13.5018  13.5827  13.8927  13.9015  14.0483  14.2857  14.3772
    14.4955  15.4405  15.6492  16.0582  16.1187  16.1616  16.1897  16.4485
    16.4984  16.6393  16.7680  16.8810  17.0388  17.2025  17.4868  17.6846
    17.9477  18.1137  18.3874  18.5195  18.8290  18.9459  19.0446  19.4252
    19.8753  19.9844  20.0127  20.3955

     occupation numbers 
     1.0000   1.0000   1.0000   1.0000   1.0000   1.0000   1.0000   1.0000
     1.0000   1.0000   1.0000   1.0000   1.0000   1.0000   1.0000   1.0000
     1.0000   1.0000   1.0000   1.0000   1.0000   1.0000   1.0000   1.0000
     1.0000   1.0000   1.0000   1.0000   1.0000   1.0000   1.0000   1.0000
     1.0000   1.0000   1.0000   1.0000   1.0000   1.0000   1.0000   0.0000
     0.0000   0.0000   0.0000   0.0000   0.0000   0.0000   0.0000   0.0000
     0.0000   0.0000   0.0000   0.0000   0.0000   0.0000   0.0000   0.0000
     0.0000   0.0000   0.0000   0.0000   0.0000   0.0000   0.0000   0.0000
     0.0000   0.0000   0.0000   0.0000   0.0000   0.0000   0.0000   0.0000
     0.0000   0.0000   0.0000   0.0000   0.0000   0.0000   0.0000   0.0000
     0.0000   0.0000   0.0000   0.0000   0.0000   0.0000   0.0000   0.0000
     0.0000   0.0000   0.0000   0.0000   0.0000   0.0000   0.0000   0.0000
     0.0000   0.0000   0.0000   0.0000

          k = 0.0769-0.3144 0.0000 ( 24040 PWs)   bands (ev):

   -36.4555 -36.4489 -36.4463 -36.4402 -36.4176 -36.4112 -36.4105 -36.4046
   -36.3955 -36.3894 -36.1522 -36.1496 -36.1325 -36.1034 -36.1000 -29.1377
   -29.1320 -29.1282 -29.1225 -29.1154 -29.1097 -29.1075 -29.1019 -29.0936
   -29.0880 -12.0518 -11.5689 -10.6047  -8.2119  -7.5417  -3.4543  -2.7048
    -2.1466  -1.9758  -1.6668  -0.9412  -0.1728   0.0365   0.8819   2.8340
     3.0300   3.5536   4.3150   4.7856   5.3557   6.4741   7.1352   7.3823
     7.9982   8.4146   8.5365   9.3234   9.5646  10.2174  10.3537  10.5016
    10.7183  11.0404  11.6884  11.7668  12.0041  12.5223  12.7820  12.9217
    13.0422  13.1829  13.2551  13.4261  13.8663  14.2232  14.6285  14.6957
    14.8696  14.9529  15.1849  15.5343  15.7735  15.9270  16.2117  16.4537
    16.6227  16.8545  17.0441  17.1556  17.2185  17.5578  17.8238  17.8938
    18.2805  18.4280  18.6997  18.8698  19.0629  19.1751  19.3707  19.4786
    19.7091  19.9026  20.0027  20.1401

     occupation numbers 
     1.0000   1.0000   1.0000   1.0000   1.0000   1.0000   1.0000   1.0000
     1.0000   1.0000   1.0000   1.0000   1.0000   1.0000   1.0000   1.0000
     1.0000   1.0000   1.0000   1.0000   1.0000   1.0000   1.0000   1.0000
     1.0000   1.0000   1.0000   1.0000   1.0000   1.0000   1.0000   1.0000
     1.0000   1.0000   1.0000   1.0000   1.0000   1.0000   1.0000   0.0000
     0.0000   0.0000   0.0000   0.0000   0.0000   0.0000   0.0000   0.0000
     0.0000   0.0000   0.0000   0.0000   0.0000   0.0000   0.0000   0.0000
     0.0000   0.0000   0.0000   0.0000   0.0000   0.0000   0.0000   0.0000
     0.0000   0.0000   0.0000   0.0000   0.0000   0.0000   0.0000   0.0000
     0.0000   0.0000   0.0000   0.0000   0.0000   0.0000   0.0000   0.0000
     0.0000   0.0000   0.0000   0.0000   0.0000   0.0000   0.0000   0.0000
     0.0000   0.0000   0.0000   0.0000   0.0000   0.0000   0.0000   0.0000
     0.0000   0.0000   0.0000   0.0000

          k = 0.0769-0.2247 0.0000 ( 23987 PWs)   bands (ev):

   -36.4614 -36.4553 -36.4549 -36.4492 -36.4241 -36.4179 -36.4168 -36.4108
   -36.4008 -36.3947 -36.1556 -36.1520 -36.1421 -36.1119 -36.1101 -29.1409
   -29.1352 -29.1257 -29.1200 -29.1133 -29.1077 -29.1033 -29.0976 -29.0954
   -29.0898 -12.3867 -11.8602 -10.7596  -8.0024  -7.0407  -2.8093  -2.3132
    -1.8388  -1.6157  -1.2909  -0.8511  -0.1429   0.4456   0.9563   2.6636
     2.9379   3.4822   3.9537   4.5385   4.8640   6.7486   6.7921   7.2437
     7.7317   8.0028   8.8448   9.0260   9.2472   9.5202  10.0125  10.2163
    10.5538  10.8155  11.4079  11.6205  11.9630  12.1052  12.5884  12.7262
    13.0728  13.3879  13.6672  13.7288  13.7760  14.0801  14.2817  14.5608
    14.7011  14.8970  15.1561  15.2279  16.0455  16.1751  16.2884  16.3908
    16.6237  16.9246  17.1196  17.2503  17.3816  17.5366  17.7558  18.0248
    18.6654  18.8116  19.0065  19.0277  19.1436  19.2652  19.4539  19.5258
    19.6367  19.9346  19.9844  20.0969

     occupation numbers 
     1.0000   1.0000   1.0000   1.0000   1.0000   1.0000   1.0000   1.0000
     1.0000   1.0000   1.0000   1.0000   1.0000   1.0000   1.0000   1.0000
     1.0000   1.0000   1.0000   1.0000   1.0000   1.0000   1.0000   1.0000
     1.0000   1.0000   1.0000   1.0000   1.0000   1.0000   1.0000   1.0000
     1.0000   1.0000   1.0000   1.0000   1.0000   1.0000   1.0000   0.0000
     0.0000   0.0000   0.0000   0.0000   0.0000   0.0000   0.0000   0.0000
     0.0000   0.0000   0.0000   0.0000   0.0000   0.0000   0.0000   0.0000
     0.0000   0.0000   0.0000   0.0000   0.0000   0.0000   0.0000   0.0000
     0.0000   0.0000   0.0000   0.0000   0.0000   0.0000   0.0000   0.0000
     0.0000   0.0000   0.0000   0.0000   0.0000   0.0000   0.0000   0.0000
     0.0000   0.0000   0.0000   0.0000   0.0000   0.0000   0.0000   0.0000
     0.0000   0.0000   0.0000   0.0000   0.0000   0.0000   0.0000   0.0000
     0.0000   0.0000   0.0000   0.0000

          k = 0.0769-0.1350 0.0000 ( 23933 PWs)   bands (ev):

   -36.4737 -36.4675 -36.4577 -36.4515 -36.4343 -36.4281 -36.4255 -36.4194
   -36.4100 -36.4039 -36.1606 -36.1552 -36.1512 -36.1187 -36.1184 -29.1431
   -29.1374 -29.1284 -29.1226 -29.1087 -29.1032 -29.0993 -29.0938 -29.0861
   -29.0805 -12.6355 -12.0962 -10.9066  -7.8884  -6.6221  -2.1198  -1.7415
    -1.4796  -1.3124  -0.9631  -0.6460  -0.1148   0.7731   0.8067   2.4849
     2.9314   2.9769   3.7595   4.0875   4.4172   6.5502   6.6454   7.5234
     7.7565   7.7797   8.9102   8.9428   9.1018   9.3033   9.5927   9.9657
    10.4162  10.7747  11.0589  11.4818  11.4990  11.8187  12.0378  12.2570
    13.0903  13.1280  13.5609  13.7317  13.8765  14.1693  14.4122  14.6173
    15.4096  15.4474  15.5454  15.7018  15.7938  15.8085  16.2392  16.8101
    16.9923  17.0666  17.3567  17.4514  17.5809  17.6387  17.7767  17.9422
    17.9946  18.1150  18.1166  18.2799  19.1119  19.5538  19.7979  19.8841
    19.9005  19.9449  20.2645  20.3096

     occupation numbers 
     1.0000   1.0000   1.0000   1.0000   1.0000   1.0000   1.0000   1.0000
     1.0000   1.0000   1.0000   1.0000   1.0000   1.0000   1.0000   1.0000
     1.0000   1.0000   1.0000   1.0000   1.0000   1.0000   1.0000   1.0000
     1.0000   1.0000   1.0000   1.0000   1.0000   1.0000   1.0000   1.0000
     1.0000   1.0000   1.0000   1.0000   1.0000   1.0000   1.0000   0.0000
     0.0000   0.0000   0.0000   0.0000   0.0000   0.0000   0.0000   0.0000
     0.0000   0.0000   0.0000   0.0000   0.0000   0.0000   0.0000   0.0000
     0.0000   0.0000   0.0000   0.0000   0.0000   0.0000   0.0000   0.0000
     0.0000   0.0000   0.0000   0.0000   0.0000   0.0000   0.0000   0.0000
     0.0000   0.0000   0.0000   0.0000   0.0000   0.0000   0.0000   0.0000
     0.0000   0.0000   0.0000   0.0000   0.0000   0.0000   0.0000   0.0000
     0.0000   0.0000   0.0000   0.0000   0.0000   0.0000   0.0000   0.0000
     0.0000   0.0000   0.0000   0.0000

          k = 0.0769-0.0453 0.0000 ( 23931 PWs)   bands (ev):

   -36.4723 -36.4699 -36.4664 -36.4635 -36.4433 -36.4368 -36.4341 -36.4283
   -36.4162 -36.4100 -36.1638 -36.1569 -36.1531 -36.1262 -36.1236 -29.1393
   -29.1384 -29.1335 -29.1326 -29.1006 -29.0986 -29.0951 -29.0929 -29.0750
   -29.0694 -12.7744 -12.2463 -10.9943  -7.8261  -6.3762  -1.5872  -1.2893
    -1.1967  -0.9818  -0.8272  -0.5195   0.0983   0.3664   0.8643   2.3867
     2.6688   2.7829   3.6325   3.7452   4.1351   6.4033   6.5428   7.4909
     7.8233   8.1348   8.6190   8.8515   9.1744   9.3757   9.7120   9.7910
    10.2617  10.6002  10.8520  11.0514  11.4776  11.5580  11.7719  12.0458
    12.8033  12.8799  13.3939  13.4120  14.0902  14.2905  14.9514  15.0699
    15.2580  15.5932  15.8941  16.0877  16.1247  16.3965  16.6096  16.7283
    16.9167  17.0472  17.1027  17.2543  17.3697  17.4332  17.8405  18.1868
    18.3777  18.4248  18.4723  18.6839  18.7262  18.8931  18.9570  19.2082
    19.2207  19.3564  19.4449  19.7010

     occupation numbers 
     1.0000   1.0000   1.0000   1.0000   1.0000   1.0000   1.0000   1.0000
     1.0000   1.0000   1.0000   1.0000   1.0000   1.0000   1.0000   1.0000
     1.0000   1.0000   1.0000   1.0000   1.0000   1.0000   1.0000   1.0000
     1.0000   1.0000   1.0000   1.0000   1.0000   1.0000   1.0000   1.0000
     1.0000   1.0000   1.0000   1.0000   1.0000   1.0000   1.0000   0.0000
     0.0000   0.0000   0.0000   0.0000   0.0000   0.0000   0.0000   0.0000
     0.0000   0.0000   0.0000   0.0000   0.0000   0.0000   0.0000   0.0000
     0.0000   0.0000   0.0000   0.0000   0.0000   0.0000   0.0000   0.0000
     0.0000   0.0000   0.0000   0.0000   0.0000   0.0000   0.0000   0.0000
     0.0000   0.0000   0.0000   0.0000   0.0000   0.0000   0.0000   0.0000
     0.0000   0.0000   0.0000   0.0000   0.0000   0.0000   0.0000   0.0000
     0.0000   0.0000   0.0000   0.0000   0.0000   0.0000   0.0000   0.0000
     0.0000   0.0000   0.0000   0.0000

          k = 0.1538 0.0888 0.0000 ( 23991 PWs)   bands (ev):

   -36.4639 -36.4581 -36.4578 -36.4519 -36.4268 -36.4243 -36.4204 -36.4184
   -36.4062 -36.4001 -36.1573 -36.1514 -36.1471 -36.1200 -36.1170 -29.1372
   -29.1367 -29.1314 -29.1309 -29.1133 -29.1075 -29.1020 -29.0964 -29.0937
   -29.0881 -12.5749 -12.0324 -10.8653  -7.9248  -6.7443  -2.4657  -1.7313
    -1.5323  -1.4625  -1.0281  -0.8344   0.1755   0.4942   0.8925   2.6982
     2.8905   3.1381   3.9911   4.0302   4.5476   6.6068   6.6621   7.2899
     7.8075   8.0297   8.9007   8.9412   9.0662   9.2438   9.9932  10.0259
    10.1331  10.8193  11.1460  11.3970  11.7113  12.0579  12.2558  12.4249
    12.9280  13.1525  13.3666  13.7037  13.8334  14.3488  14.3574  14.7390
    14.9633  14.9925  15.5071  15.7121  16.1655  16.2825  16.4235  16.4435
    16.6300  16.7624  16.9253  17.0547  17.2247  17.6997  18.1581  18.3584
    18.4187  18.5858  18.6953  18.7534  18.9087  19.4415  19.5996  19.6331
    19.7389  19.8152  19.9874  20.2058

     occupation numbers 
     1.0000   1.0000   1.0000   1.0000   1.0000   1.0000   1.0000   1.0000
     1.0000   1.0000   1.0000   1.0000   1.0000   1.0000   1.0000   1.0000
     1.0000   1.0000   1.0000   1.0000   1.0000   1.0000   1.0000   1.0000
     1.0000   1.0000   1.0000   1.0000   1.0000   1.0000   1.0000   1.0000
     1.0000   1.0000   1.0000   1.0000   1.0000   1.0000   1.0000   0.0000
     0.0000   0.0000   0.0000   0.0000   0.0000   0.0000   0.0000   0.0000
     0.0000   0.0000   0.0000   0.0000   0.0000   0.0000   0.0000   0.0000
     0.0000   0.0000   0.0000   0.0000   0.0000   0.0000   0.0000   0.0000
     0.0000   0.0000   0.0000   0.0000   0.0000   0.0000   0.0000   0.0000
     0.0000   0.0000   0.0000   0.0000   0.0000   0.0000   0.0000   0.0000
     0.0000   0.0000   0.0000   0.0000   0.0000   0.0000   0.0000   0.0000
     0.0000   0.0000   0.0000   0.0000   0.0000   0.0000   0.0000   0.0000
     0.0000   0.0000   0.0000   0.0000

          k = 0.1538 0.1785 0.0000 ( 24012 PWs)   bands (ev):

   -36.4627 -36.4565 -36.4559 -36.4497 -36.4236 -36.4172 -36.4171 -36.4117
   -36.4011 -36.3950 -36.1547 -36.1523 -36.1448 -36.1121 -36.1107 -29.1404
   -29.1347 -29.1253 -29.1195 -29.1136 -29.1080 -29.1033 -29.0977 -29.0942
   -29.0884 -12.3926 -11.8668 -10.7683  -8.0108  -7.0546  -2.8399  -2.2855
    -1.8724  -1.5663  -1.2908  -0.8305  -0.1059   0.4728   0.9836   2.7009
     3.0115   3.4555   3.9558   4.5919   4.8002   6.7420   6.7913   7.2376
     7.7545   7.9965   8.8128   9.0177   9.2449   9.5874   9.9927  10.1807
    10.6305  10.7731  11.3998  11.6172  11.9595  12.0697  12.5788  12.7104
    12.9905  13.3211  13.6813  13.7001  13.8359  14.0581  14.2412  14.5344
    14.6410  14.9594  15.1494  15.2998  16.0427  16.0930  16.3293  16.3871
    16.5754  17.0246  17.1841  17.3318  17.4936  17.5786  17.7528  18.0556
    18.6010  18.8202  18.9446  19.0112  19.1215  19.1862  19.3759  19.4695
    19.6452  19.8675  20.0434  20.1740

     occupation numbers 
     1.0000   1.0000   1.0000   1.0000   1.0000   1.0000   1.0000   1.0000
     1.0000   1.0000   1.0000   1.0000   1.0000   1.0000   1.0000   1.0000
     1.0000   1.0000   1.0000   1.0000   1.0000   1.0000   1.0000   1.0000
     1.0000   1.0000   1.0000   1.0000   1.0000   1.0000   1.0000   1.0000
     1.0000   1.0000   1.0000   1.0000   1.0000   1.0000   1.0000   0.0000
     0.0000   0.0000   0.0000   0.0000   0.0000   0.0000   0.0000   0.0000
     0.0000   0.0000   0.0000   0.0000   0.0000   0.0000   0.0000   0.0000
     0.0000   0.0000   0.0000   0.0000   0.0000   0.0000   0.0000   0.0000
     0.0000   0.0000   0.0000   0.0000   0.0000   0.0000   0.0000   0.0000
     0.0000   0.0000   0.0000   0.0000   0.0000   0.0000   0.0000   0.0000
     0.0000   0.0000   0.0000   0.0000   0.0000   0.0000   0.0000   0.0000
     0.0000   0.0000   0.0000   0.0000   0.0000   0.0000   0.0000   0.0000
     0.0000   0.0000   0.0000   0.0000

          k = 0.1538 0.2682 0.0000 ( 24045 PWs)   bands (ev):

   -36.4571 -36.4518 -36.4507 -36.4457 -36.4177 -36.4112 -36.4103 -36.4047
   -36.3899 -36.3840 -36.1544 -36.1528 -36.1381 -36.1003 -36.0985 -29.1377
   -29.1320 -29.1263 -29.1205 -29.1158 -29.1101 -29.1050 -29.1028 -29.0992
   -29.0971 -12.1079 -11.6098 -10.6291  -8.1710  -7.4959  -3.1158  -3.0205
    -2.1030  -1.9058  -1.5913  -1.1503  -0.1175   0.5839   0.7069   2.8280
     3.3332   3.4036   4.1651   5.0556   5.1291   6.9556   6.9722   7.3120
     7.5919   8.2974   8.4937   9.0010   9.5730  10.1688  10.4247  10.4990
    10.7111  11.2315  11.5735  11.6476  12.2955  12.6015  12.7783  12.8084
    12.9003  13.1959  13.3705  13.6900  13.7774  13.8417  13.8862  14.5048
    14.8631  15.0773  15.4388  15.5368  15.7702  15.8343  16.0467  16.1568
    16.7324  16.8829  17.2456  17.3157  17.4686  17.7566  18.2075  18.3255
    18.3994  18.5102  18.5781  18.6979  18.7725  19.0083  19.0517  19.1017
    19.5053  20.0731  20.3367  20.5977

     occupation numbers 
     1.0000   1.0000   1.0000   1.0000   1.0000   1.0000   1.0000   1.0000
     1.0000   1.0000   1.0000   1.0000   1.0000   1.0000   1.0000   1.0000
     1.0000   1.0000   1.0000   1.0000   1.0000   1.0000   1.0000   1.0000
     1.0000   1.0000   1.0000   1.0000   1.0000   1.0000   1.0000   1.0000
     1.0000   1.0000   1.0000   1.0000   1.0000   1.0000   1.0000   0.0000
     0.0000   0.0000   0.0000   0.0000   0.0000   0.0000   0.0000   0.0000
     0.0000   0.0000   0.0000   0.0000   0.0000   0.0000   0.0000   0.0000
     0.0000   0.0000   0.0000   0.0000   0.0000   0.0000   0.0000   0.0000
     0.0000   0.0000   0.0000   0.0000   0.0000   0.0000   0.0000   0.0000
     0.0000   0.0000   0.0000   0.0000   0.0000   0.0000   0.0000   0.0000
     0.0000   0.0000   0.0000   0.0000   0.0000   0.0000   0.0000   0.0000
     0.0000   0.0000   0.0000   0.0000   0.0000   0.0000   0.0000   0.0000
     0.0000   0.0000   0.0000   0.0000

          k = 0.1538 0.3580 0.0000 ( 24054 PWs)   bands (ev):

   -36.4499 -36.4436 -36.4434 -36.4374 -36.4160 -36.4094 -36.4063 -36.4006
   -36.3892 -36.3834 -36.1530 -36.1507 -36.1336 -36.0950 -36.0924 -29.1329
   -29.1273 -29.1255 -29.1198 -29.1147 -29.1091 -29.1077 -29.1020 -29.1002
   -29.0946 -11.7474 -11.3073 -10.5107  -8.4193  -7.9835  -3.6127  -3.2266
    -2.4695  -2.2161  -1.8857  -1.3482  -0.0964   0.2133   0.7010   2.9022
     3.4092   3.4988   4.4661   5.1830   5.4992   6.7446   7.3775   7.6407
     7.9060   8.3407   8.7412   9.2016   9.8186  10.0999  10.7390  10.8402
    11.1542  11.4967  11.7141  12.1667  12.2706  12.3492  12.6816  12.8996
    12.9690  13.1405  13.3503  13.4713  13.5726  13.7854  14.4948  14.5779
    14.7037  14.9981  15.1873  15.5287  15.7231  15.9941  16.0656  16.4980
    16.6178  16.8897  17.1812  17.3076  17.4818  17.6347  17.8483  18.0938
    18.1896  18.2314  18.3363  18.5749  18.8624  19.4383  19.7535  19.8708
    19.9144  20.0157  20.1786  20.2876

     occupation numbers 
     1.0000   1.0000   1.0000   1.0000   1.0000   1.0000   1.0000   1.0000
     1.0000   1.0000   1.0000   1.0000   1.0000   1.0000   1.0000   1.0000
     1.0000   1.0000   1.0000   1.0000   1.0000   1.0000   1.0000   1.0000
     1.0000   1.0000   1.0000   1.0000   1.0000   1.0000   1.0000   1.0000
     1.0000   1.0000   1.0000   1.0000   1.0000   1.0000   1.0000   0.0000
     0.0000   0.0000   0.0000   0.0000   0.0000   0.0000   0.0000   0.0000
     0.0000   0.0000   0.0000   0.0000   0.0000   0.0000   0.0000   0.0000
     0.0000   0.0000   0.0000   0.0000   0.0000   0.0000   0.0000   0.0000
     0.0000   0.0000   0.0000   0.0000   0.0000   0.0000   0.0000   0.0000
     0.0000   0.0000   0.0000   0.0000   0.0000   0.0000   0.0000   0.0000
     0.0000   0.0000   0.0000   0.0000   0.0000   0.0000   0.0000   0.0000
     0.0000   0.0000   0.0000   0.0000   0.0000   0.0000   0.0000   0.0000
     0.0000   0.0000   0.0000   0.0000

          k = 0.1538 0.4477 0.0000 ( 24036 PWs)   bands (ev):

   -36.4452 -36.4397 -36.4387 -36.4335 -36.4146 -36.4079 -36.4009 -36.3953
   -36.3924 -36.3865 -36.1523 -36.1478 -36.1313 -36.0928 -36.0888 -29.1301
   -29.1246 -29.1244 -29.1189 -29.1138 -29.1083 -29.1053 -29.0999 -29.0958
   -29.0902 -11.3315 -10.9973 -10.4661  -8.7614  -8.3958  -3.9967  -3.2597
    -2.7227  -2.6025  -1.9474  -1.5142  -0.2855   0.0664   0.6741   2.8451
     3.4373   3.6073   4.6349   5.2491   5.7392   6.5158   7.6901   8.0729
     8.4739   8.6193   9.2653   9.3930  10.0252  10.1708  10.5145  10.8840
    11.2383  11.4120  11.7245  11.8567  12.1756  12.4772  12.7858  12.9837
    13.0680  13.3317  13.4259  13.5443  13.6725  13.9589  14.1393  14.2591
    14.7324  14.8521  15.1076  15.5972  15.8820  16.1632  16.2771  16.3815
    16.8605  16.9483  17.3233  17.4508  17.4788  17.7794  17.8898  17.9261
    18.1805  18.4714  18.5191  18.7438  18.8289  18.9947  19.5568  19.6997
[...]
     1.0000   1.0000   1.0000   1.0000   1.0000   1.0000   1.0000   1.0000
     1.0000   1.0000   1.0000   1.0000   1.0000   1.0000   1.0000   0.0000
     0.0000   0.0000   0.0000   0.0000   0.0000   0.0000   0.0000   0.0000
     0.0000   0.0000   0.0000   0.0000   0.0000   0.0000   0.0000   0.0000
     0.0000   0.0000   0.0000   0.0000   0.0000   0.0000   0.0000   0.0000
     0.0000   0.0000   0.0000   0.0000   0.0000   0.0000   0.0000   0.0000
     0.0000   0.0000   0.0000   0.0000   0.0000   0.0000   0.0000   0.0000
     0.0000   0.0000   0.0000   0.0000   0.0000   0.0000   0.0000   0.0000
     0.0000   0.0000   0.0000   0.0000   0.0000   0.0000   0.0000   0.0000
     0.0000   0.0000   0.0000   0.0000

          k = 0.4615 0.7150 0.0000 ( 24045 PWs)   bands (ev):

   -36.4799 -36.4736 -36.4467 -36.4341 -36.4278 -36.4031 -36.3969 -36.3703
   -36.3587 -36.3521 -36.1473 -36.1398 -36.1276 -36.0868 -36.0822 -29.1524
   -29.1483 -29.1372 -29.1268 -29.1179 -29.0988 -29.0946 -29.0842 -29.0738
   -29.0652 -10.9399 -10.7859 -10.5744  -9.0535  -8.6282  -4.1822  -3.2263
    -3.0396  -2.5568  -1.9437  -1.7387  -0.3419   0.0472   0.6361   2.9542
     3.4327   3.5276   4.8328   5.3005   5.8325   6.4123   7.7676   8.5963
     8.8744   9.1665   9.3411   9.7250   9.9820  10.1880  10.6316  10.7111
    10.9062  11.1182  11.4139  11.9150  12.1050  12.3500  12.5042  12.7754
    12.8499  13.1187  13.5906  13.6523  13.8567  14.3315  14.5849  14.7332
    14.7773  15.0446  15.3339  15.4266  15.7495  15.8536  16.2075  16.5420
    16.6896  16.7800  17.4348  17.4614  17.5712  17.6375  17.9550  18.0339
    18.3121  18.5123  18.6650  18.7441  19.0896  19.3194  19.3904  19.4787
    19.5718  19.8312  20.0466  20.3749

     occupation numbers 
     1.0000   1.0000   1.0000   1.0000   1.0000   1.0000   1.0000   1.0000
     1.0000   1.0000   1.0000   1.0000   1.0000   1.0000   1.0000   1.0000
     1.0000   1.0000   1.0000   1.0000   1.0000   1.0000   1.0000   1.0000
     1.0000   1.0000   1.0000   1.0000   1.0000   1.0000   1.0000   1.0000
     1.0000   1.0000   1.0000   1.0000   1.0000   1.0000   1.0000   0.0000
     0.0000   0.0000   0.0000   0.0000   0.0000   0.0000   0.0000   0.0000
     0.0000   0.0000   0.0000   0.0000   0.0000   0.0000   0.0000   0.0000
     0.0000   0.0000   0.0000   0.0000   0.0000   0.0000   0.0000   0.0000
     0.0000   0.0000   0.0000   0.0000   0.0000   0.0000   0.0000   0.0000
     0.0000   0.0000   0.0000   0.0000   0.0000   0.0000   0.0000   0.0000
     0.0000   0.0000   0.0000   0.0000   0.0000   0.0000   0.0000   0.0000
     0.0000   0.0000   0.0000   0.0000   0.0000   0.0000   0.0000   0.0000
     0.0000   0.0000   0.0000   0.0000

          k = 0.4615 0.8047 0.0000 ( 24077 PWs)   bands (ev):

   -36.4801 -36.4714 -36.4467 -36.4368 -36.4301 -36.4032 -36.3946 -36.3704
   -36.3613 -36.3543 -36.1466 -36.1432 -36.1223 -36.0882 -36.0810 -29.1580
   -29.1523 -29.1384 -29.1264 -29.1157 -29.1043 -29.0986 -29.0854 -29.0735
   -29.0630 -10.9095 -10.8331 -10.7410  -9.0752  -8.4656  -4.3186  -2.9189
    -2.8222  -2.5679  -1.9407  -1.3922  -0.3125  -0.1406   0.4811   3.0046
     3.0417   3.4462   4.8769   5.0022   5.8499   5.9196   7.5886   8.6949
     8.9685   9.0384   9.1655   9.9729  10.0877  10.1152  10.8004  11.2051
    11.3624  11.5790  11.8822  12.1751  12.2103  12.3449  12.7734  12.8616
    12.9913  13.1896  13.5232  13.8289  14.0386  14.3488  14.6547  14.7125
    14.8416  14.9833  15.0030  15.0473  15.4894  15.5353  15.8828  16.1780
    16.3835  16.5199  16.7628  16.9345  17.1213  17.6404  17.6714  17.9167
    18.2885  18.6791  18.7202  18.8985  18.9350  18.9754  19.1191  19.5924
    19.6301  19.7712  19.8462  19.9024

     occupation numbers 
     1.0000   1.0000   1.0000   1.0000   1.0000   1.0000   1.0000   1.0000
     1.0000   1.0000   1.0000   1.0000   1.0000   1.0000   1.0000   1.0000
     1.0000   1.0000   1.0000   1.0000   1.0000   1.0000   1.0000   1.0000
     1.0000   1.0000   1.0000   1.0000   1.0000   1.0000   1.0000   1.0000
     1.0000   1.0000   1.0000   1.0000   1.0000   1.0000   1.0000   0.0000
     0.0000   0.0000   0.0000   0.0000   0.0000   0.0000   0.0000   0.0000
     0.0000   0.0000   0.0000   0.0000   0.0000   0.0000   0.0000   0.0000
     0.0000   0.0000   0.0000   0.0000   0.0000   0.0000   0.0000   0.0000
     0.0000   0.0000   0.0000   0.0000   0.0000   0.0000   0.0000   0.0000
     0.0000   0.0000   0.0000   0.0000   0.0000   0.0000   0.0000   0.0000
     0.0000   0.0000   0.0000   0.0000   0.0000   0.0000   0.0000   0.0000
     0.0000   0.0000   0.0000   0.0000   0.0000   0.0000   0.0000   0.0000
     0.0000   0.0000   0.0000   0.0000

          k = 0.4615-0.2718 0.0000 ( 24071 PWs)   bands (ev):

   -36.4814 -36.4720 -36.4481 -36.4369 -36.4293 -36.4045 -36.3952 -36.3718
   -36.3613 -36.3536 -36.1461 -36.1452 -36.1195 -36.0912 -36.0823 -29.1594
   -29.1544 -29.1384 -29.1269 -29.1148 -29.1057 -29.1007 -29.0854 -29.0741
   -29.0621 -11.0667 -10.9043 -10.6814  -9.0236  -8.3584  -4.3304  -2.8821
    -2.5899  -2.5603  -1.8699  -1.3203  -0.3079  -0.0939   0.3179   2.7247
     3.2214   3.4515   4.7702   4.9426   5.7388   5.8900   7.5179   8.5096
     8.7763   9.1498   9.3699   9.7151  10.0923  10.3798  10.8327  11.3472
    11.5222  11.8124  11.8965  12.2011  12.2695  12.4067  12.5923  12.9597
    13.1055  13.4029  13.5297  13.7333  14.2673  14.3093  14.5197  14.6723
    14.7584  14.8878  14.9555  15.2067  15.4557  15.4982  15.6779  15.9767
    16.0998  16.3438  16.8968  17.0365  17.1881  17.3300  17.6651  17.9360
    18.2085  18.2290  18.3419  18.6374  18.8762  19.0432  19.0712  19.3417
    19.3748  20.0961  20.1441  20.2045

     occupation numbers 
     1.0000   1.0000   1.0000   1.0000   1.0000   1.0000   1.0000   1.0000
     1.0000   1.0000   1.0000   1.0000   1.0000   1.0000   1.0000   1.0000
     1.0000   1.0000   1.0000   1.0000   1.0000   1.0000   1.0000   1.0000
     1.0000   1.0000   1.0000   1.0000   1.0000   1.0000   1.0000   1.0000
     1.0000   1.0000   1.0000   1.0000   1.0000   1.0000   1.0000   0.0000
     0.0000   0.0000   0.0000   0.0000   0.0000   0.0000   0.0000   0.0000
     0.0000   0.0000   0.0000   0.0000   0.0000   0.0000   0.0000   0.0000
     0.0000   0.0000   0.0000   0.0000   0.0000   0.0000   0.0000   0.0000
     0.0000   0.0000   0.0000   0.0000   0.0000   0.0000   0.0000   0.0000
     0.0000   0.0000   0.0000   0.0000   0.0000   0.0000   0.0000   0.0000
     0.0000   0.0000   0.0000   0.0000   0.0000   0.0000   0.0000   0.0000
     0.0000   0.0000   0.0000   0.0000   0.0000   0.0000   0.0000   0.0000
     0.0000   0.0000   0.0000   0.0000

          k = 0.4615-0.1821 0.0000 ( 24035 PWs)   bands (ev):

   -36.4812 -36.4729 -36.4467 -36.4386 -36.4292 -36.4043 -36.3962 -36.3703
   -36.3632 -36.3535 -36.1459 -36.1431 -36.1231 -36.0896 -36.0828 -29.1582
   -29.1523 -29.1389 -29.1273 -29.1158 -29.1046 -29.0986 -29.0859 -29.0744
   -29.0631 -11.2360 -10.9687 -10.5588  -8.9157  -8.3412  -4.2180  -2.9303
    -2.7602  -2.4753  -1.8634  -1.3447  -0.3510  -0.0769   0.5479   2.9812
     3.0578   3.5072   4.7986   5.0090   5.7862   6.0466   7.5297   8.2624
     8.5736   9.2791   9.5127   9.5511  10.0932  10.3797  10.7094  10.8764
    11.2670  11.4249  11.8772  12.0487  12.2232  12.4277  12.5632  12.9819
    13.1011  13.1889  13.4782  13.5836  13.8998  14.1861  14.2917  14.6596
    14.8184  15.1560  15.3791  15.5640  15.6659  15.8486  16.0658  16.2792
    16.4486  16.5397  16.5943  17.0111  17.4300  17.5366  17.6056  17.8389
    18.0113  18.2915  18.4713  18.5266  18.7352  18.9339  19.0767  19.3954
    19.5357  19.7454  19.8650  20.2511

     occupation numbers 
     1.0000   1.0000   1.0000   1.0000   1.0000   1.0000   1.0000   1.0000
     1.0000   1.0000   1.0000   1.0000   1.0000   1.0000   1.0000   1.0000
     1.0000   1.0000   1.0000   1.0000   1.0000   1.0000   1.0000   1.0000
     1.0000   1.0000   1.0000   1.0000   1.0000   1.0000   1.0000   1.0000
     1.0000   1.0000   1.0000   1.0000   1.0000   1.0000   1.0000   0.0000
     0.0000   0.0000   0.0000   0.0000   0.0000   0.0000   0.0000   0.0000
     0.0000   0.0000   0.0000   0.0000   0.0000   0.0000   0.0000   0.0000
     0.0000   0.0000   0.0000   0.0000   0.0000   0.0000   0.0000   0.0000
     0.0000   0.0000   0.0000   0.0000   0.0000   0.0000   0.0000   0.0000
     0.0000   0.0000   0.0000   0.0000   0.0000   0.0000   0.0000   0.0000
     0.0000   0.0000   0.0000   0.0000   0.0000   0.0000   0.0000   0.0000
     0.0000   0.0000   0.0000   0.0000   0.0000   0.0000   0.0000   0.0000
     0.0000   0.0000   0.0000   0.0000

          k = 0.4615-0.0924 0.0000 ( 24040 PWs)   bands (ev):

   -36.4814 -36.4752 -36.4489 -36.4368 -36.4281 -36.4045 -36.3986 -36.3725
   -36.3614 -36.3525 -36.1480 -36.1419 -36.1291 -36.0887 -36.0850 -29.1528
   -29.1478 -29.1373 -29.1287 -29.1188 -29.0992 -29.0942 -29.0844 -29.0757
   -29.0660 -11.3457 -11.0097 -10.4720  -8.7677  -8.3934  -3.9911  -3.2470
    -2.7162  -2.5942  -1.9345  -1.5175  -0.2706   0.0915   0.7046   2.8785
     3.4797   3.6255   4.6575   5.2903   5.7516   6.5493   7.6922   8.0608
     8.4645   8.6465   9.2488   9.3940  10.0116  10.1767  10.5105  10.8665
    11.2340  11.3900  11.7089  11.8326  12.1849  12.4362  12.7674  12.9627
    13.0808  13.3343  13.4012  13.4976  13.6701  13.9339  14.1082  14.2560
    14.7262  14.8369  15.1017  15.6019  15.7746  16.1621  16.2518  16.3429
    16.8432  17.0189  17.3117  17.4259  17.4661  17.7032  17.9400  17.9836
    18.2161  18.4692  18.5109  18.7357  18.8082  19.0015  19.5759  19.6391
    19.8063  20.1312  20.2453  20.4700

     occupation numbers 
     1.0000   1.0000   1.0000   1.0000   1.0000   1.0000   1.0000   1.0000
     1.0000   1.0000   1.0000   1.0000   1.0000   1.0000   1.0000   1.0000
     1.0000   1.0000   1.0000   1.0000   1.0000   1.0000   1.0000   1.0000
     1.0000   1.0000   1.0000   1.0000   1.0000   1.0000   1.0000   1.0000
     1.0000   1.0000   1.0000   1.0000   1.0000   1.0000   1.0000   0.0000
     0.0000   0.0000   0.0000   0.0000   0.0000   0.0000   0.0000   0.0000
     0.0000   0.0000   0.0000   0.0000   0.0000   0.0000   0.0000   0.0000
     0.0000   0.0000   0.0000   0.0000   0.0000   0.0000   0.0000   0.0000
     0.0000   0.0000   0.0000   0.0000   0.0000   0.0000   0.0000   0.0000
     0.0000   0.0000   0.0000   0.0000   0.0000   0.0000   0.0000   0.0000
     0.0000   0.0000   0.0000   0.0000   0.0000   0.0000   0.0000   0.0000
     0.0000   0.0000   0.0000   0.0000   0.0000   0.0000   0.0000   0.0000
     0.0000   0.0000   0.0000   0.0000

          k = 0.4615-0.0027 0.0000 ( 24052 PWs)   bands (ev):

   -36.4837 -36.4680 -36.4475 -36.4387 -36.4260 -36.4069 -36.3915 -36.3713
   -36.3630 -36.3504 -36.1466 -36.1406 -36.1291 -36.0865 -36.0840 -29.1510
   -29.1477 -29.1363 -29.1305 -29.1291 -29.0974 -29.0941 -29.0833 -29.0776
   -29.0763 -11.3817 -11.0221 -10.4341  -8.6802  -8.4501  -3.7198  -3.6144
    -2.6691  -2.3984  -2.2817  -1.5437  -0.1511   0.3319   0.5131   3.2585
     3.2879   3.6368   4.8390   5.3737   5.6370   7.3209   7.4439   7.9051
     8.0900   8.5517   9.0066   9.1981   9.9950  10.0312  10.6987  10.9474
    11.0799  11.3841  11.7857  11.8766  12.0586  12.4856  12.6573  12.7218
    13.0643  13.2189  13.4119  13.7077  13.7417  14.1598  14.2838  14.3765
    14.4885  14.6866  14.8970  15.0186  15.6609  15.7751  16.3060  16.7797
    16.9592  17.2061  17.2328  17.4599  17.5113  17.8300  18.0506  18.3366
    18.4774  18.5012  18.8644  19.2299  19.4152  19.4847  19.6173  19.7592
    19.9389  20.0036  20.4607  20.5481

     occupation numbers 
     1.0000   1.0000   1.0000   1.0000   1.0000   1.0000   1.0000   1.0000
     1.0000   1.0000   1.0000   1.0000   1.0000   1.0000   1.0000   1.0000
     1.0000   1.0000   1.0000   1.0000   1.0000   1.0000   1.0000   1.0000
     1.0000   1.0000   1.0000   1.0000   1.0000   1.0000   1.0000   1.0000
     1.0000   1.0000   1.0000   1.0000   1.0000   1.0000   1.0000   0.0000
     0.0000   0.0000   0.0000   0.0000   0.0000   0.0000   0.0000   0.0000
     0.0000   0.0000   0.0000   0.0000   0.0000   0.0000   0.0000   0.0000
     0.0000   0.0000   0.0000   0.0000   0.0000   0.0000   0.0000   0.0000
     0.0000   0.0000   0.0000   0.0000   0.0000   0.0000   0.0000   0.0000
     0.0000   0.0000   0.0000   0.0000   0.0000   0.0000   0.0000   0.0000
     0.0000   0.0000   0.0000   0.0000   0.0000   0.0000   0.0000   0.0000
     0.0000   0.0000   0.0000   0.0000   0.0000   0.0000   0.0000   0.0000
     0.0000   0.0000   0.0000   0.0000

          k = 0.4615 0.0870 0.0000 ( 24029 PWs)   bands (ev):

   -36.4818 -36.4752 -36.4482 -36.4377 -36.4284 -36.4051 -36.3987 -36.3721
   -36.3620 -36.3528 -36.1481 -36.1414 -36.1301 -36.0886 -36.0852 -29.1523
   -29.1478 -29.1374 -29.1292 -29.1183 -29.0987 -29.0942 -29.0845 -29.0763
   -29.0654 -11.3518 -11.0177 -10.4809  -8.7769  -8.3907  -3.9915  -3.2422
    -2.7102  -2.5784  -1.9387  -1.5004  -0.2608   0.1006   0.7295   2.9139
     3.5085   3.6161   4.6720   5.3180   5.7424   6.5686   7.6852   8.0516
     8.4617   8.5988   9.2375   9.3641   9.9840  10.1792  10.4938  10.8448
    11.2402  11.3569  11.7127  11.8054  12.2201  12.4675  12.8096  12.9744
    13.1314  13.3854  13.4141  13.4939  13.6547  13.9359  14.0986  14.2432
    14.7276  14.8585  15.1326  15.6148  15.7654  16.1194  16.2442  16.3253
    16.8067  17.0704  17.2891  17.4236  17.4725  17.6840  17.9348  18.0180
    18.2211  18.4879  18.4944  18.6769  18.7878  18.9315  19.5413  19.6351
    19.7925  20.1500  20.1839  20.4295

     occupation numbers 
     1.0000   1.0000   1.0000   1.0000   1.0000   1.0000   1.0000   1.0000
     1.0000   1.0000   1.0000   1.0000   1.0000   1.0000   1.0000   1.0000
     1.0000   1.0000   1.0000   1.0000   1.0000   1.0000   1.0000   1.0000
     1.0000   1.0000   1.0000   1.0000   1.0000   1.0000   1.0000   1.0000
     1.0000   1.0000   1.0000   1.0000   1.0000   1.0000   1.0000   0.0000
     0.0000   0.0000   0.0000   0.0000   0.0000   0.0000   0.0000   0.0000
     0.0000   0.0000   0.0000   0.0000   0.0000   0.0000   0.0000   0.0000
     0.0000   0.0000   0.0000   0.0000   0.0000   0.0000   0.0000   0.0000
     0.0000   0.0000   0.0000   0.0000   0.0000   0.0000   0.0000   0.0000
     0.0000   0.0000   0.0000   0.0000   0.0000   0.0000   0.0000   0.0000
     0.0000   0.0000   0.0000   0.0000   0.0000   0.0000   0.0000   0.0000
     0.0000   0.0000   0.0000   0.0000   0.0000   0.0000   0.0000   0.0000
     0.0000   0.0000   0.0000   0.0000

          k = 0.4615 0.1768 0.0000 ( 24075 PWs)   bands (ev):

   -36.4820 -36.4734 -36.4460 -36.4395 -36.4295 -36.4054 -36.3969 -36.3698
   -36.3638 -36.3538 -36.1459 -36.1421 -36.1250 -36.0899 -36.0835 -29.1576
   -29.1523 -29.1389 -29.1277 -29.1151 -29.1039 -29.0986 -29.0860 -29.0749
   -29.0622 -11.2481 -10.9839 -10.5737  -8.9262  -8.3415  -4.2164  -2.9394
    -2.7388  -2.4502  -1.8461  -1.3279  -0.3349  -0.0553   0.5882   3.0147
     3.1089   3.5121   4.8089   5.0506   5.7900   6.0536   7.5157   8.2496
     8.5644   9.2527   9.4834   9.5262  10.0719  10.3486  10.6875  10.8419
    11.2267  11.4269  11.8661  12.0926  12.2536  12.4434  12.5662  13.0058
    13.0924  13.2270  13.4909  13.6146  13.9566  14.2037  14.2952  14.6480
    14.8178  15.1546  15.3941  15.5663  15.6444  15.8363  16.0390  16.3106
    16.4675  16.5495  16.6248  16.9861  17.4085  17.4927  17.5435  17.8487
    17.9862  18.2258  18.4587  18.4888  18.6879  18.9448  19.1102  19.4099
    19.5039  19.7313  19.8382  20.1954

     occupation numbers 
     1.0000   1.0000   1.0000   1.0000   1.0000   1.0000   1.0000   1.0000
     1.0000   1.0000   1.0000   1.0000   1.0000   1.0000   1.0000   1.0000
     1.0000   1.0000   1.0000   1.0000   1.0000   1.0000   1.0000   1.0000
     1.0000   1.0000   1.0000   1.0000   1.0000   1.0000   1.0000   1.0000
     1.0000   1.0000   1.0000   1.0000   1.0000   1.0000   1.0000   0.0000
     0.0000   0.0000   0.0000   0.0000   0.0000   0.0000   0.0000   0.0000
     0.0000   0.0000   0.0000   0.0000   0.0000   0.0000   0.0000   0.0000
     0.0000   0.0000   0.0000   0.0000   0.0000   0.0000   0.0000   0.0000
     0.0000   0.0000   0.0000   0.0000   0.0000   0.0000   0.0000   0.0000
     0.0000   0.0000   0.0000   0.0000   0.0000   0.0000   0.0000   0.0000
     0.0000   0.0000   0.0000   0.0000   0.0000   0.0000   0.0000   0.0000
     0.0000   0.0000   0.0000   0.0000   0.0000   0.0000   0.0000   0.0000
     0.0000   0.0000   0.0000   0.0000

     highest occupied, lowest unoccupied level (ev):     0.9948    2.2782

     Writing all to output data dir tmp/Sb2Te3-uatsx-c4-1.0.save/ :
     XML data file, pseudopotentials, collected wavefunctions

     init_run     :     12.63s CPU     13.08s WALL (       1 calls)
     electrons    :    832.85s CPU    841.16s WALL (       1 calls)

     Called by init_run:
     aceinit0     :     11.69s CPU     12.05s WALL (       1 calls)
     wfcinit      :      0.00s CPU      0.07s WALL (       1 calls)
     wfcinit:wfcr :      5.78s CPU      5.87s WALL (      86 calls)
     potinit      :      0.74s CPU      0.74s WALL (       1 calls)
     hinit0       :      0.15s CPU      0.15s WALL (       1 calls)

     Called by electrons:
     c_bands      :    258.55s CPU    261.20s WALL (       2 calls)
     sum_band     :      1.50s CPU      1.53s WALL (       1 calls)
     v_of_rho     :      0.02s CPU      0.02s WALL (       2 calls)
     v_h          :      0.00s CPU      0.00s WALL (       2 calls)
     v_xc         :      0.02s CPU      0.02s WALL (       2 calls)

     Called by c_bands:
     init_us_2    :      0.03s CPU      0.04s WALL (     129 calls)
     cegterg      :    235.55s CPU    237.92s WALL (     259 calls)

     Called by sum_band:
     sum_band:wei :      0.00s CPU      0.00s WALL (       1 calls)
     sum_band:loo :      1.50s CPU      1.53s WALL (       1 calls)
     sum_band:buf :      0.01s CPU      0.01s WALL (      43 calls)
     sum_band:ini :      0.01s CPU      0.01s WALL (      43 calls)

     Called by *egterg:
     cdiaghg      :     72.71s CPU     72.91s WALL (    4461 calls)
     cegterg:over :     16.48s CPU     16.59s WALL (    4375 calls)
     cegterg:upda :      3.70s CPU      3.73s WALL (    4375 calls)
     cegterg:last :      7.14s CPU      7.19s WALL (    2306 calls)
     h_psi        :    131.49s CPU    133.53s WALL (    4720 calls)
     g_psi        :      0.69s CPU      0.70s WALL (    4375 calls)

     Called by h_psi:
     h_psi:calbec :      6.61s CPU      6.67s WALL (    4720 calls)
     vloc_psi     :    112.44s CPU    114.32s WALL (    4720 calls)
     add_vuspsi   :      1.73s CPU      1.75s WALL (    4720 calls)

     General routines
     calbec       :     14.68s CPU     14.81s WALL (    9483 calls)
     fft          :      0.16s CPU      0.16s WALL (      19 calls)
     ffts         :      0.00s CPU      0.00s WALL (       1 calls)
     fftw         :    109.46s CPU    111.27s WALL (  473136 calls)
     fftc         :    466.24s CPU    470.70s WALL (  860000 calls)
     fftcw        :      4.55s CPU      4.60s WALL (   12900 calls)
     davcio       :      0.04s CPU      0.15s WALL (     258 calls)

     Parallel routines

     EXX routines
     exx_grid     :      0.00s CPU      0.00s WALL (       1 calls)
     exxinit      :     23.82s CPU     24.20s WALL (       1 calls)
     vexx         :    526.89s CPU    532.00s WALL (      43 calls)
     matcalc      :      8.12s CPU      8.18s WALL (    4763 calls)
     aceupdate    :      0.04s CPU      0.04s WALL (      43 calls)
     vexxace      :     10.37s CPU     10.46s WALL (    4720 calls)
     aceinit      :    527.07s CPU    532.18s WALL (      43 calls)

     PWSCF        :  14m28.51s CPU  15m21.12s WALL


   This run was terminated on:   2:31: 5  20May2025            

=------------------------------------------------------------------------------=
   JOB DONE.
=------------------------------------------------------------------------------=
