
     Program PWSCF v.7.3.1 starts on 20May2025 at  5: 9:15 

     This program is part of the open-source Quantum ESPRESSO suite
     for quantum simulation of materials; please cite
         "P. Giannozzi et al., J. Phys.:Condens. Matter 21 395502 (2009);
         "P. Giannozzi et al., J. Phys.:Condens. Matter 29 465901 (2017);
         "P. Giannozzi et al., J. Chem. Phys. 152 154105 (2020);
          URL http://www.quantum-espresso.org", 
     in publications or presentations arising from this work. More details at
     http://www.quantum-espresso.org/quote

     Parallel version (MPI & OpenMP), running on     168 processor cores
     Number of MPI processes:               168
     Threads/MPI process:                     1

     MPI processes distributed on     7 nodes
     98666 MiB available memory on the printing compute node when the environment starts

     Waiting for input...
     Reading input from standard input

     Current dimensions of program PWSCF are:
     Max number of different atomic species (ntypx) = 10
     Max number of k-points (npk) =  40000
     Max angular momentum in pseudopotentials (lmaxx) =  4

     IMPORTANT: XC functional enforced from input :
     Exchange-correlation= GAUP
                           (   1   4  20   4   0   0   0)
     EXX-fraction              =        0.24
     Any further DFT definition will be discarded
     Please, verify this is what you really want


     Atomic positions and unit cell read from directory:
     tmp/Sb2Te3-uatsx-c4-3.0.save/


     K-points division:     npool     =       2
     R & G space division:  proc/nbgrp/npool/nimage =      84
     Subspace diagonalization in iterative solution of the eigenvalue problem:
     a serial algorithm will be used

     EXX: q-point mesh:     1    1    1
     EXX: setup a grid of 85 q-points centered on each k-point
     (k+q)-points:
   0.0000000   0.0000000   0.0000000         1    1
   0.0000000   0.0914887   0.0000000         2    1
   0.0000000   0.1829774   0.0000000         3    1
   0.0000000   0.2744661   0.0000000         4    1
   0.0000000   0.3659548   0.0000000         5    1
   0.0000000   0.4574435   0.0000000         6    1
   0.0000000   0.5489322   0.0000000         7    1
   0.0769231   0.0444120   0.0000000         8    1
   0.0769231   0.1359007   0.0000000         9    1
   0.0769231   0.2273894   0.0000000        10    1
   0.0769231   0.3188781   0.0000000        11    1
   0.0769231   0.4103668   0.0000000        12    1
   0.0769231   0.5018555   0.0000000        13    1
   0.0769231   0.5933442   0.0000000        14    1
   0.0769231  -0.5045202   0.0000000        15    1
   0.0769231  -0.4130315   0.0000000        16    1
   0.0769231  -0.3215428   0.0000000        17    1
   0.0769231  -0.2300541   0.0000000        18    1
   0.0769231  -0.1385654   0.0000000        19    1
   0.0769231  -0.0470767   0.0000000        20    1
   0.1538462   0.0888240   0.0000000        21    1
   0.1538462   0.1803127   0.0000000        22    1
   0.1538462   0.2718014   0.0000000        23    1
   0.1538462   0.3632901   0.0000000        24    1
   0.1538462   0.4547788   0.0000000        25    1
   0.1538462   0.5462675   0.0000000        26    1
   0.1538462   0.6377562   0.0000000        27    1
   0.1538462  -0.4601082   0.0000000        28    1
   0.1538462  -0.3686195   0.0000000        29    1
   0.1538462  -0.2771308   0.0000000        30    1
   0.1538462  -0.1856421   0.0000000        31    1
   0.1538462  -0.0941534   0.0000000        32    1
   0.1538462  -0.0026647   0.0000000        33    1
   0.2307692   0.1332360   0.0000000        34    1
   0.2307692   0.2247247   0.0000000        35    1
   0.2307692   0.3162134   0.0000000        36    1
   0.2307692   0.4077021   0.0000000        37    1
   0.2307692   0.4991908   0.0000000        38    1
   0.2307692   0.5906795   0.0000000        39    1
   0.2307692   0.6821681   0.0000000        40    1
   0.2307692  -0.4156962   0.0000000        41    1
   0.2307692  -0.3242075   0.0000000        42    1
   0.2307692  -0.2327188   0.0000000        43    1
   0.2307692  -0.1412301   0.0000000        44    1
   0.2307692  -0.0497414   0.0000000        45    1
   0.2307692   0.0417473   0.0000000        46    1
   0.3076923   0.1776480   0.0000000        47    1
   0.3076923   0.2691367   0.0000000        48    1
   0.3076923   0.3606253   0.0000000        49    1
   0.3076923   0.4521140   0.0000000        50    1
   0.3076923   0.5436027   0.0000000        51    1
   0.3076923   0.6350914   0.0000000        52    1
   0.3076923   0.7265801   0.0000000        53    1
   0.3076923  -0.3712842   0.0000000        54    1
   0.3076923  -0.2797955   0.0000000        55    1
   0.3076923  -0.1883068   0.0000000        56    1
   0.3076923  -0.0968181   0.0000000        57    1
   0.3076923  -0.0053294   0.0000000        58    1
   0.3076923   0.0861593   0.0000000        59    1
   0.3846154   0.2220599   0.0000000        60    1
   0.3846154   0.3135486   0.0000000        61    1
   0.3846154   0.4050373   0.0000000        62    1
   0.3846154   0.4965260   0.0000000        63    1
   0.3846154   0.5880147   0.0000000        64    1
   0.3846154   0.6795034   0.0000000        65    1
   0.3846154   0.7709921   0.0000000        66    1
   0.3846154  -0.3268722   0.0000000        67    1
   0.3846154  -0.2353835   0.0000000        68    1
   0.3846154  -0.1438948   0.0000000        69    1
   0.3846154  -0.0524061   0.0000000        70    1
   0.3846154   0.0390826   0.0000000        71    1
   0.3846154   0.1305712   0.0000000        72    1
   0.4615385   0.2664719   0.0000000        73    1
   0.4615385   0.3579606   0.0000000        74    1
   0.4615385   0.4494493   0.0000000        75    1
   0.4615385   0.5409380   0.0000000        76    1
   0.4615385   0.6324267   0.0000000        77    1
   0.4615385   0.7239154   0.0000000        78    1
   0.4615385   0.8154041   0.0000000        79    1
   0.4615385  -0.2824602   0.0000000        80    1
   0.4615385  -0.1909716   0.0000000        81    1
   0.4615385  -0.0994829   0.0000000        82    1
   0.4615385  -0.0079942   0.0000000        83    1
   0.4615385   0.0834945   0.0000000        84    1
   0.4615385   0.1749832   0.0000000        85    1

     Parallelization info
     --------------------
     sticks:   dense  smooth     PW     G-vecs:    dense   smooth      PW
     Min          15      15      4                 2317     2317     356
     Max          16      16      5                 2352     2352     389
     Sum        1319    1319    385               196125   196125   31161

     Using Slab Decomposition



     bravais-lattice index     =            0
     lattice parameter (alat)  =       8.3900  a.u.
     unit-cell volume          =    2478.7943 (a.u.)^3
     number of atoms/cell      =            5
     number of atomic types    =            2
     number of electrons       =        78.00
     number of Kohn-Sham states=          100
     kinetic-energy cutoff     =      70.0000  Ry
     charge density cutoff     =     280.0000  Ry
     cutoff for Fock operator  =     280.0000  Ry
     Exchange-correlation= GAUP
                           (   1   4  20   4   0   0   0)
     EXX-fraction              =        0.24

     celldm(1)=   8.390002  celldm(2)=   0.000000  celldm(3)=   0.000000
     celldm(4)=   0.000000  celldm(5)=   0.000000  celldm(6)=   0.000000

     crystal axes: (cart. coord. in units of alat)
               a(1) = (   1.000000   0.000000   0.000000 )  
               a(2) = (  -0.485437   0.840793   0.000000 )  
               a(3) = (   0.000000   0.000000   4.991890 )  

     reciprocal axes: (cart. coord. in units 2 pi/alat)
               b(1) = (  1.000000  0.577356 -0.000000 )  
               b(2) = (  0.000000  1.189353  0.000000 )  
               b(3) = (  0.000000 -0.000000  0.200325 )  


     PseudoPot. # 1 for Sb read from file:
     /zfs-home/202401017n/pseudos/Sb_ONCV_PBE-1.2.upf
     MD5 check sum: 0417cd6c0fe8ce4611e2b23135f1abd9
     Pseudo is Norm-conserving, Zval = 15.0
     Generated using ONCVPSP code by D. R. Hamann
     Using radial grid of  602 points,  6 beta functions with: 
                l(1) =   0
                l(2) =   0
                l(3) =   1
                l(4) =   1
                l(5) =   2
                l(6) =   2

     PseudoPot. # 2 for Te read from file:
     /zfs-home/202401017n/pseudos/Te_ONCV_PBE-1.2.upf
     MD5 check sum: dd4de4dac1e38587f63aaf3700bb29d3
     Pseudo is Norm-conserving, Zval = 16.0
     Generated using ONCVPSP code by D. R. Hamann
     Using radial grid of  602 points,  6 beta functions with: 
                l(1) =   0
                l(2) =   0
                l(3) =   1
                l(4) =   1
                l(5) =   2
                l(6) =   2

     atomic species   valence    mass     pseudopotential
     Sb               15.00   121.76000     Sb( 1.00)
     Te               16.00   127.60000     Te( 1.00)

     No symmetry found


                                    s                        frac. trans.

      isym =  1     identity                                     

 cryst.   s( 1) = (     1          0          0      )
                  (     0          1          0      )
                  (     0          0          1      )

 cart.    s( 1) = (  1.0000000  0.0000000  0.0000000 )
                  (  0.0000000  1.0000000  0.0000000 )
                  (  0.0000000  0.0000000  1.0000000 )


   Cartesian axes

     site n.     atom                  positions (alat units)
         1        Sb     tau(   1) = (   0.5867812   0.4172984   2.9417443  )
         2        Te     tau(   2) = (   0.5754457   0.3979752   1.6726131  )
         3        Sb     tau(   3) = (   0.0727921   0.1220272   2.0501240  )
         4        Te     tau(   4) = (   0.0840698   0.1416820   3.3192296  )
         5        Te     tau(   5) = (   0.0870265   0.6902229   2.4959189  )

     -------------------------------------------------
     Parameters for Dispersion (Grimme-D2) Correction:
     -------------------------------------------------
       atom      VdW radius       C_6     

        Sb         3.555       1333.532
        Te         3.575       1101.101

   Crystallographic axes

     site n.     atom                  positions (cryst. coord.)
         1        Sb     tau(   1) = (  0.8277109  0.4963151  0.5893047  )
         2        Te     tau(   2) = (  0.8052190  0.4733330  0.3350661  )
         3        Sb     tau(   3) = (  0.1432452  0.1451335  0.4106909  )
         4        Te     tau(   4) = (  0.1658708  0.1685099  0.6649244  )
         5        Te     tau(   5) = (  0.4855307  0.8209187  0.4999948  )

     number of k points=    85
                       cart. coord. in units 2pi/alat
        k(    1) = (   0.0000000   0.0000000   0.0000000), wk =   0.0118343
        k(    2) = (   0.0000000   0.0914887   0.0000000), wk =   0.0236686
        k(    3) = (   0.0000000   0.1829774   0.0000000), wk =   0.0236686
        k(    4) = (   0.0000000   0.2744661   0.0000000), wk =   0.0236686
        k(    5) = (   0.0000000   0.3659548   0.0000000), wk =   0.0236686
        k(    6) = (   0.0000000   0.4574435   0.0000000), wk =   0.0236686
        k(    7) = (   0.0000000   0.5489322   0.0000000), wk =   0.0236686
        k(    8) = (   0.0769231   0.0444120   0.0000000), wk =   0.0236686
        k(    9) = (   0.0769231   0.1359007   0.0000000), wk =   0.0236686
        k(   10) = (   0.0769231   0.2273894   0.0000000), wk =   0.0236686
        k(   11) = (   0.0769231   0.3188781   0.0000000), wk =   0.0236686
        k(   12) = (   0.0769231   0.4103668   0.0000000), wk =   0.0236686
        k(   13) = (   0.0769231   0.5018555   0.0000000), wk =   0.0236686
        k(   14) = (   0.0769231   0.5933442   0.0000000), wk =   0.0236686
        k(   15) = (   0.0769231  -0.5045202   0.0000000), wk =   0.0236686
        k(   16) = (   0.0769231  -0.4130315   0.0000000), wk =   0.0236686
        k(   17) = (   0.0769231  -0.3215428   0.0000000), wk =   0.0236686
        k(   18) = (   0.0769231  -0.2300541   0.0000000), wk =   0.0236686
        k(   19) = (   0.0769231  -0.1385654   0.0000000), wk =   0.0236686
        k(   20) = (   0.0769231  -0.0470767   0.0000000), wk =   0.0236686
        k(   21) = (   0.1538462   0.0888240   0.0000000), wk =   0.0236686
        k(   22) = (   0.1538462   0.1803127   0.0000000), wk =   0.0236686
        k(   23) = (   0.1538462   0.2718014   0.0000000), wk =   0.0236686
        k(   24) = (   0.1538462   0.3632901   0.0000000), wk =   0.0236686
        k(   25) = (   0.1538462   0.4547788   0.0000000), wk =   0.0236686
        k(   26) = (   0.1538462   0.5462675   0.0000000), wk =   0.0236686
        k(   27) = (   0.1538462   0.6377562   0.0000000), wk =   0.0236686
        k(   28) = (   0.1538462  -0.4601082   0.0000000), wk =   0.0236686
        k(   29) = (   0.1538462  -0.3686195   0.0000000), wk =   0.0236686
        k(   30) = (   0.1538462  -0.2771308   0.0000000), wk =   0.0236686
        k(   31) = (   0.1538462  -0.1856421   0.0000000), wk =   0.0236686
        k(   32) = (   0.1538462  -0.0941534   0.0000000), wk =   0.0236686
        k(   33) = (   0.1538462  -0.0026647   0.0000000), wk =   0.0236686
        k(   34) = (   0.2307692   0.1332360   0.0000000), wk =   0.0236686
        k(   35) = (   0.2307692   0.2247247   0.0000000), wk =   0.0236686
        k(   36) = (   0.2307692   0.3162134   0.0000000), wk =   0.0236686
        k(   37) = (   0.2307692   0.4077021   0.0000000), wk =   0.0236686
        k(   38) = (   0.2307692   0.4991908   0.0000000), wk =   0.0236686
        k(   39) = (   0.2307692   0.5906795   0.0000000), wk =   0.0236686
        k(   40) = (   0.2307692   0.6821681   0.0000000), wk =   0.0236686
        k(   41) = (   0.2307692  -0.4156962   0.0000000), wk =   0.0236686
        k(   42) = (   0.2307692  -0.3242075   0.0000000), wk =   0.0236686
        k(   43) = (   0.2307692  -0.2327188   0.0000000), wk =   0.0236686
        k(   44) = (   0.2307692  -0.1412301   0.0000000), wk =   0.0236686
        k(   45) = (   0.2307692  -0.0497414   0.0000000), wk =   0.0236686
        k(   46) = (   0.2307692   0.0417473   0.0000000), wk =   0.0236686
        k(   47) = (   0.3076923   0.1776480   0.0000000), wk =   0.0236686
        k(   48) = (   0.3076923   0.2691367   0.0000000), wk =   0.0236686
        k(   49) = (   0.3076923   0.3606253   0.0000000), wk =   0.0236686
        k(   50) = (   0.3076923   0.4521140   0.0000000), wk =   0.0236686
        k(   51) = (   0.3076923   0.5436027   0.0000000), wk =   0.0236686
        k(   52) = (   0.3076923   0.6350914   0.0000000), wk =   0.0236686
        k(   53) = (   0.3076923   0.7265801   0.0000000), wk =   0.0236686
        k(   54) = (   0.3076923  -0.3712842   0.0000000), wk =   0.0236686
        k(   55) = (   0.3076923  -0.2797955   0.0000000), wk =   0.0236686
        k(   56) = (   0.3076923  -0.1883068   0.0000000), wk =   0.0236686
        k(   57) = (   0.3076923  -0.0968181   0.0000000), wk =   0.0236686
        k(   58) = (   0.3076923  -0.0053294   0.0000000), wk =   0.0236686
        k(   59) = (   0.3076923   0.0861593   0.0000000), wk =   0.0236686
        k(   60) = (   0.3846154   0.2220599   0.0000000), wk =   0.0236686
        k(   61) = (   0.3846154   0.3135486   0.0000000), wk =   0.0236686
        k(   62) = (   0.3846154   0.4050373   0.0000000), wk =   0.0236686
        k(   63) = (   0.3846154   0.4965260   0.0000000), wk =   0.0236686
        k(   64) = (   0.3846154   0.5880147   0.0000000), wk =   0.0236686
        k(   65) = (   0.3846154   0.6795034   0.0000000), wk =   0.0236686
        k(   66) = (   0.3846154   0.7709921   0.0000000), wk =   0.0236686
        k(   67) = (   0.3846154  -0.3268722   0.0000000), wk =   0.0236686
        k(   68) = (   0.3846154  -0.2353835   0.0000000), wk =   0.0236686
        k(   69) = (   0.3846154  -0.1438948   0.0000000), wk =   0.0236686
        k(   70) = (   0.3846154  -0.0524061   0.0000000), wk =   0.0236686
        k(   71) = (   0.3846154   0.0390826   0.0000000), wk =   0.0236686
        k(   72) = (   0.3846154   0.1305712   0.0000000), wk =   0.0236686
        k(   73) = (   0.4615385   0.2664719   0.0000000), wk =   0.0236686
        k(   74) = (   0.4615385   0.3579606   0.0000000), wk =   0.0236686
        k(   75) = (   0.4615385   0.4494493   0.0000000), wk =   0.0236686
        k(   76) = (   0.4615385   0.5409380   0.0000000), wk =   0.0236686
        k(   77) = (   0.4615385   0.6324267   0.0000000), wk =   0.0236686
        k(   78) = (   0.4615385   0.7239154   0.0000000), wk =   0.0236686
        k(   79) = (   0.4615385   0.8154041   0.0000000), wk =   0.0236686
        k(   80) = (   0.4615385  -0.2824602   0.0000000), wk =   0.0236686
        k(   81) = (   0.4615385  -0.1909716   0.0000000), wk =   0.0236686
        k(   82) = (   0.4615385  -0.0994829   0.0000000), wk =   0.0236686
        k(   83) = (   0.4615385  -0.0079942   0.0000000), wk =   0.0236686
        k(   84) = (   0.4615385   0.0834945   0.0000000), wk =   0.0236686
        k(   85) = (   0.4615385   0.1749832   0.0000000), wk =   0.0236686

                       cryst. coord.
        k(    1) = (   0.0000000   0.0000000   0.0000000), wk =   0.0118343
        k(    2) = (   0.0000000   0.0769231   0.0000000), wk =   0.0236686
        k(    3) = (   0.0000000   0.1538462   0.0000000), wk =   0.0236686
        k(    4) = (   0.0000000   0.2307692   0.0000000), wk =   0.0236686
        k(    5) = (   0.0000000   0.3076923   0.0000000), wk =   0.0236686
        k(    6) = (   0.0000000   0.3846154   0.0000000), wk =   0.0236686
        k(    7) = (   0.0000000   0.4615385   0.0000000), wk =   0.0236686
        k(    8) = (   0.0769231   0.0000000   0.0000000), wk =   0.0236686
        k(    9) = (   0.0769231   0.0769231   0.0000000), wk =   0.0236686
        k(   10) = (   0.0769231   0.1538462   0.0000000), wk =   0.0236686
        k(   11) = (   0.0769231   0.2307692   0.0000000), wk =   0.0236686
        k(   12) = (   0.0769231   0.3076923   0.0000000), wk =   0.0236686
        k(   13) = (   0.0769231   0.3846154   0.0000000), wk =   0.0236686
        k(   14) = (   0.0769231   0.4615385   0.0000000), wk =   0.0236686
        k(   15) = (   0.0769231  -0.4615385   0.0000000), wk =   0.0236686
        k(   16) = (   0.0769231  -0.3846154   0.0000000), wk =   0.0236686
        k(   17) = (   0.0769231  -0.3076923   0.0000000), wk =   0.0236686
        k(   18) = (   0.0769231  -0.2307692   0.0000000), wk =   0.0236686
        k(   19) = (   0.0769231  -0.1538462   0.0000000), wk =   0.0236686
        k(   20) = (   0.0769231  -0.0769231   0.0000000), wk =   0.0236686
        k(   21) = (   0.1538462   0.0000000   0.0000000), wk =   0.0236686
        k(   22) = (   0.1538462   0.0769231   0.0000000), wk =   0.0236686
        k(   23) = (   0.1538462   0.1538462   0.0000000), wk =   0.0236686
        k(   24) = (   0.1538462   0.2307692   0.0000000), wk =   0.0236686
        k(   25) = (   0.1538462   0.3076923   0.0000000), wk =   0.0236686
        k(   26) = (   0.1538462   0.3846154   0.0000000), wk =   0.0236686
        k(   27) = (   0.1538462   0.4615385   0.0000000), wk =   0.0236686
        k(   28) = (   0.1538462  -0.4615385   0.0000000), wk =   0.0236686
        k(   29) = (   0.1538462  -0.3846154   0.0000000), wk =   0.0236686
        k(   30) = (   0.1538462  -0.3076923   0.0000000), wk =   0.0236686
        k(   31) = (   0.1538462  -0.2307692   0.0000000), wk =   0.0236686
        k(   32) = (   0.1538462  -0.1538462   0.0000000), wk =   0.0236686
        k(   33) = (   0.1538462  -0.0769231   0.0000000), wk =   0.0236686
        k(   34) = (   0.2307692  -0.0000000   0.0000000), wk =   0.0236686
        k(   35) = (   0.2307692   0.0769231   0.0000000), wk =   0.0236686
        k(   36) = (   0.2307692   0.1538462   0.0000000), wk =   0.0236686
        k(   37) = (   0.2307692   0.2307692   0.0000000), wk =   0.0236686
        k(   38) = (   0.2307692   0.3076923   0.0000000), wk =   0.0236686
        k(   39) = (   0.2307692   0.3846154   0.0000000), wk =   0.0236686
        k(   40) = (   0.2307692   0.4615385   0.0000000), wk =   0.0236686
        k(   41) = (   0.2307692  -0.4615385   0.0000000), wk =   0.0236686
        k(   42) = (   0.2307692  -0.3846154   0.0000000), wk =   0.0236686
        k(   43) = (   0.2307692  -0.3076923   0.0000000), wk =   0.0236686
        k(   44) = (   0.2307692  -0.2307692   0.0000000), wk =   0.0236686
        k(   45) = (   0.2307692  -0.1538462   0.0000000), wk =   0.0236686
        k(   46) = (   0.2307692  -0.0769231   0.0000000), wk =   0.0236686
        k(   47) = (   0.3076923   0.0000000   0.0000000), wk =   0.0236686
        k(   48) = (   0.3076923   0.0769231   0.0000000), wk =   0.0236686
        k(   49) = (   0.3076923   0.1538462   0.0000000), wk =   0.0236686
        k(   50) = (   0.3076923   0.2307692   0.0000000), wk =   0.0236686
        k(   51) = (   0.3076923   0.3076923   0.0000000), wk =   0.0236686
        k(   52) = (   0.3076923   0.3846154   0.0000000), wk =   0.0236686
        k(   53) = (   0.3076923   0.4615385   0.0000000), wk =   0.0236686
        k(   54) = (   0.3076923  -0.4615385   0.0000000), wk =   0.0236686
        k(   55) = (   0.3076923  -0.3846154   0.0000000), wk =   0.0236686
        k(   56) = (   0.3076923  -0.3076923   0.0000000), wk =   0.0236686
        k(   57) = (   0.3076923  -0.2307692   0.0000000), wk =   0.0236686
        k(   58) = (   0.3076923  -0.1538462   0.0000000), wk =   0.0236686
        k(   59) = (   0.3076923  -0.0769231   0.0000000), wk =   0.0236686
        k(   60) = (   0.3846154  -0.0000000   0.0000000), wk =   0.0236686
        k(   61) = (   0.3846154   0.0769231   0.0000000), wk =   0.0236686
        k(   62) = (   0.3846154   0.1538462   0.0000000), wk =   0.0236686
        k(   63) = (   0.3846154   0.2307692   0.0000000), wk =   0.0236686
        k(   64) = (   0.3846154   0.3076923   0.0000000), wk =   0.0236686
        k(   65) = (   0.3846154   0.3846154   0.0000000), wk =   0.0236686
        k(   66) = (   0.3846154   0.4615385   0.0000000), wk =   0.0236686
        k(   67) = (   0.3846154  -0.4615385   0.0000000), wk =   0.0236686
        k(   68) = (   0.3846154  -0.3846154   0.0000000), wk =   0.0236686
        k(   69) = (   0.3846154  -0.3076923   0.0000000), wk =   0.0236686
        k(   70) = (   0.3846154  -0.2307692   0.0000000), wk =   0.0236686
        k(   71) = (   0.3846154  -0.1538462   0.0000000), wk =   0.0236686
        k(   72) = (   0.3846154  -0.0769231   0.0000000), wk =   0.0236686
        k(   73) = (   0.4615385  -0.0000000   0.0000000), wk =   0.0236686
        k(   74) = (   0.4615385   0.0769231   0.0000000), wk =   0.0236686
        k(   75) = (   0.4615385   0.1538462   0.0000000), wk =   0.0236686
        k(   76) = (   0.4615385   0.2307692   0.0000000), wk =   0.0236686
        k(   77) = (   0.4615385   0.3076923   0.0000000), wk =   0.0236686
        k(   78) = (   0.4615385   0.3846154   0.0000000), wk =   0.0236686
        k(   79) = (   0.4615385   0.4615385   0.0000000), wk =   0.0236686
        k(   80) = (   0.4615385  -0.4615385   0.0000000), wk =   0.0236686
        k(   81) = (   0.4615385  -0.3846154   0.0000000), wk =   0.0236686
        k(   82) = (   0.4615385  -0.3076923   0.0000000), wk =   0.0236686
        k(   83) = (   0.4615385  -0.2307692   0.0000000), wk =   0.0236686
        k(   84) = (   0.4615385  -0.1538462   0.0000000), wk =   0.0236686
        k(   85) = (   0.4615385  -0.0769231   0.0000000), wk =   0.0236686

     Dense  grid:   196125 G-vectors     FFT dimensions: (  45,  45, 225)

     Dynamical RAM for                 wfc:       0.44 MB

     Dynamical RAM for     wfc (w. buffer):       0.44 MB

     Dynamical RAM for                 EXX:     636.77 MB

     Dynamical RAM for           str. fact:       0.07 MB

     Dynamical RAM for           local pot:       0.00 MB

     Dynamical RAM for          nlocal pot:       0.40 MB

     Dynamical RAM for                qrad:       2.85 MB

     Dynamical RAM for          rho,v,vnew:       0.25 MB

     Dynamical RAM for           G-vectors:       0.15 MB

     Dynamical RAM for          h,s,v(r/c):       1.83 MB

     Dynamical RAM for          <psi|beta>:       0.14 MB

     Dynamical RAM for                 psi:       0.89 MB

     Dynamical RAM for                hpsi:       0.89 MB

     Dynamical RAM for      wfcinit/wfcrot:       1.12 MB

     Estimated static dynamical RAM per process >     641.28 MB

     Estimated max dynamical RAM per process >     645.02 MB

     Estimated total dynamical RAM >     105.82 GB
     EXX: initializing ACE and reading from file
     ACE potential read for      100 bands
     ACE potential read for      100 bands
     ACE potential read for      100 bands
     ACE potential read for      100 bands
     ACE potential read for      100 bands
     ACE potential read for      100 bands
     ACE potential read for      100 bands
     ACE potential read for      100 bands
     ACE potential read for      100 bands
     ACE potential read for      100 bands
     ACE potential read for      100 bands
     ACE potential read for      100 bands
     ACE potential read for      100 bands
     ACE potential read for      100 bands
     ACE potential read for      100 bands
     ACE potential read for      100 bands
     ACE potential read for      100 bands
     ACE potential read for      100 bands
     ACE potential read for      100 bands
     ACE potential read for      100 bands
     ACE potential read for      100 bands
     ACE potential read for      100 bands
     ACE potential read for      100 bands
     ACE potential read for      100 bands
     ACE potential read for      100 bands
     ACE potential read for      100 bands
     ACE potential read for      100 bands
     ACE potential read for      100 bands
     ACE potential read for      100 bands
     ACE potential read for      100 bands
     ACE potential read for      100 bands
     ACE potential read for      100 bands
     ACE potential read for      100 bands
     ACE potential read for      100 bands
     ACE potential read for      100 bands
     ACE potential read for      100 bands
     ACE potential read for      100 bands
     ACE potential read for      100 bands
     ACE potential read for      100 bands
     ACE potential read for      100 bands
     ACE potential read for      100 bands
     ACE potential read for      100 bands
     ACE potential read for      100 bands
     Starting ACE correctly read from file

     The potential is recalculated from file :
     tmp/Sb2Te3-uatsx-c4-3.0.save/charge-density

     Starting wfcs are random

     Band Structure Calculation
     Davidson diagonalization with overlap

     Computing kpt #:     1  of    43 on this pool
     total cpu time spent up to now is       16.6 secs

     Computing kpt #:     2  of    43 on this pool
     total cpu time spent up to now is       19.5 secs

     Computing kpt #:     3  of    43 on this pool
     total cpu time spent up to now is       22.7 secs

     Computing kpt #:     4  of    43 on this pool
     total cpu time spent up to now is       25.7 secs

     Computing kpt #:     5  of    43 on this pool
     total cpu time spent up to now is       28.6 secs

     Computing kpt #:     6  of    43 on this pool
     total cpu time spent up to now is       31.4 secs

     Computing kpt #:     7  of    43 on this pool
     total cpu time spent up to now is       34.7 secs

     Computing kpt #:     8  of    43 on this pool
     total cpu time spent up to now is       38.1 secs

     Computing kpt #:     9  of    43 on this pool
     total cpu time spent up to now is       41.3 secs

     Computing kpt #:    10  of    43 on this pool
     total cpu time spent up to now is       44.8 secs

     Computing kpt #:    11  of    43 on this pool
     total cpu time spent up to now is       47.8 secs

     Computing kpt #:    12  of    43 on this pool
     total cpu time spent up to now is       50.5 secs

     Computing kpt #:    13  of    43 on this pool
     total cpu time spent up to now is       53.4 secs

     Computing kpt #:    14  of    43 on this pool
     total cpu time spent up to now is       56.4 secs

     Computing kpt #:    15  of    43 on this pool
     total cpu time spent up to now is       59.5 secs

     Computing kpt #:    16  of    43 on this pool
     total cpu time spent up to now is       62.4 secs

     Computing kpt #:    17  of    43 on this pool
     total cpu time spent up to now is       65.2 secs

     Computing kpt #:    18  of    43 on this pool
     total cpu time spent up to now is       68.0 secs

     Computing kpt #:    19  of    43 on this pool
     total cpu time spent up to now is       70.9 secs

     Computing kpt #:    20  of    43 on this pool
     total cpu time spent up to now is       74.1 secs

     Computing kpt #:    21  of    43 on this pool
     total cpu time spent up to now is       77.1 secs

     Computing kpt #:    22  of    43 on this pool
     total cpu time spent up to now is       80.2 secs

     Computing kpt #:    23  of    43 on this pool
     total cpu time spent up to now is       83.1 secs

     Computing kpt #:    24  of    43 on this pool
     total cpu time spent up to now is       86.1 secs

     Computing kpt #:    25  of    43 on this pool
     total cpu time spent up to now is       88.9 secs

     Computing kpt #:    26  of    43 on this pool
     total cpu time spent up to now is       91.7 secs

     Computing kpt #:    27  of    43 on this pool
     total cpu time spent up to now is       95.0 secs

     Computing kpt #:    28  of    43 on this pool
     total cpu time spent up to now is       97.9 secs

     Computing kpt #:    29  of    43 on this pool
     total cpu time spent up to now is      101.0 secs

     Computing kpt #:    30  of    43 on this pool
     total cpu time spent up to now is      104.1 secs

     Computing kpt #:    31  of    43 on this pool
     total cpu time spent up to now is      107.1 secs

     Computing kpt #:    32  of    43 on this pool
     total cpu time spent up to now is      110.0 secs

     Computing kpt #:    33  of    43 on this pool
     total cpu time spent up to now is      113.1 secs

     Computing kpt #:    34  of    43 on this pool
     total cpu time spent up to now is      116.2 secs

     Computing kpt #:    35  of    43 on this pool
     total cpu time spent up to now is      119.2 secs

     Computing kpt #:    36  of    43 on this pool
     total cpu time spent up to now is      122.3 secs

     Computing kpt #:    37  of    43 on this pool
     total cpu time spent up to now is      125.2 secs

     Computing kpt #:    38  of    43 on this pool
     total cpu time spent up to now is      128.2 secs

     Computing kpt #:    39  of    43 on this pool
     total cpu time spent up to now is      131.2 secs

     Computing kpt #:    40  of    43 on this pool
     total cpu time spent up to now is      134.5 secs

     Computing kpt #:    41  of    43 on this pool
     total cpu time spent up to now is      137.7 secs

     Computing kpt #:    42  of    43 on this pool
     total cpu time spent up to now is      140.7 secs

     Computing kpt #:    43  of    43 on this pool
     total cpu time spent up to now is      143.5 secs

     ethr =  1.28E-10,  avg # of iterations = 52.0

     total cpu time spent up to now is      144.6 secs

     End of band structure calculation

          k = 0.0000 0.0000 0.0000 ( 24437 PWs)   bands (ev):

   -36.5986 -36.5981 -36.5945 -36.5938 -36.5687 -36.5679 -36.5620 -36.5615
   -36.5467 -36.5461 -36.3100 -36.3038 -36.2937 -36.2828 -36.2800 -29.2999
   -29.2971 -29.2969 -29.2942 -29.2527 -29.2505 -29.2502 -29.2479 -29.2350
   -29.2328 -12.9352 -12.4001 -11.1087  -7.8822  -6.3707  -1.3620  -1.1959
    -1.0403  -1.0357  -0.8581  -0.3092  -0.2320  -0.1093   0.3285   1.9513
     2.3502   2.4497   3.3893   3.4668   3.6778   6.2003   6.3714   7.3104
     7.7941   8.1011   8.5141   8.5702   9.1108   9.1234   9.3781   9.8081
    10.1370  10.2713  10.3417  10.4682  11.0448  11.6015  11.8088  12.0516
    12.0874  12.2902  13.0800  13.2665  14.3505  14.5628  14.7328  14.7479
    14.9008  15.4351  15.9370  16.2099  16.2332  16.3704  16.4643  16.6413
    16.9338  17.0282  17.1085  17.1446  17.3247  17.3458  17.4729  17.4999
    17.6321  17.6332  17.7739  17.8932  18.0101  18.2815  19.1072  19.1254
    19.3115  19.3994  19.4607  19.5257

     occupation numbers 
     1.0000   1.0000   1.0000   1.0000   1.0000   1.0000   1.0000   1.0000
     1.0000   1.0000   1.0000   1.0000   1.0000   1.0000   1.0000   1.0000
     1.0000   1.0000   1.0000   1.0000   1.0000   1.0000   1.0000   1.0000
     1.0000   1.0000   1.0000   1.0000   1.0000   1.0000   1.0000   1.0000
     1.0000   1.0000   1.0000   1.0000   1.0000   1.0000   1.0000   0.0000
     0.0000   0.0000   0.0000   0.0000   0.0000   0.0000   0.0000   0.0000
     0.0000   0.0000   0.0000   0.0000   0.0000   0.0000   0.0000   0.0000
     0.0000   0.0000   0.0000   0.0000   0.0000   0.0000   0.0000   0.0000
     0.0000   0.0000   0.0000   0.0000   0.0000   0.0000   0.0000   0.0000
     0.0000   0.0000   0.0000   0.0000   0.0000   0.0000   0.0000   0.0000
     0.0000   0.0000   0.0000   0.0000   0.0000   0.0000   0.0000   0.0000
     0.0000   0.0000   0.0000   0.0000   0.0000   0.0000   0.0000   0.0000
     0.0000   0.0000   0.0000   0.0000

          k = 0.0000 0.0915 0.0000 ( 24432 PWs)   bands (ev):

   -36.6003 -36.5998 -36.5983 -36.5976 -36.5657 -36.5652 -36.5616 -36.5608
   -36.5393 -36.5387 -36.3131 -36.3041 -36.2950 -36.2765 -36.2708 -29.2935
   -29.2910 -29.2905 -29.2881 -29.2554 -29.2542 -29.2529 -29.2519 -29.2308
   -29.2286 -12.8571 -12.3178 -11.0726  -7.9224  -6.5191  -1.6983  -1.5127
    -1.3007  -1.1136  -1.0544  -0.6676  -0.1568   0.1753   0.6354   2.0466
     2.4344   2.6459   3.3661   3.5711   3.9434   6.2870   6.4213   7.3834
     7.6944   8.0246   8.2243   8.6911   9.0595   9.2583   9.3838   9.6861
    10.0947  10.3547  10.7203  10.9475  11.3120  11.4002  11.4858  12.0506
    12.5397  12.7336  13.2326  13.3953  13.9489  13.9907  14.7065  14.9301
    15.0481  15.4719  15.5906  15.7607  16.1048  16.2378  16.3916  16.5048
    16.5418  16.6068  16.8416  16.9642  17.0736  17.2118  17.5478  17.9490
    18.0909  18.1817  18.2998  18.3579  18.4899  18.5165  18.6240  18.8193
    18.9350  19.0568  19.4088  19.6509

     occupation numbers 
     1.0000   1.0000   1.0000   1.0000   1.0000   1.0000   1.0000   1.0000
     1.0000   1.0000   1.0000   1.0000   1.0000   1.0000   1.0000   1.0000
     1.0000   1.0000   1.0000   1.0000   1.0000   1.0000   1.0000   1.0000
     1.0000   1.0000   1.0000   1.0000   1.0000   1.0000   1.0000   1.0000
     1.0000   1.0000   1.0000   1.0000   1.0000   1.0000   1.0000   0.0000
     0.0000   0.0000   0.0000   0.0000   0.0000   0.0000   0.0000   0.0000
     0.0000   0.0000   0.0000   0.0000   0.0000   0.0000   0.0000   0.0000
     0.0000   0.0000   0.0000   0.0000   0.0000   0.0000   0.0000   0.0000
     0.0000   0.0000   0.0000   0.0000   0.0000   0.0000   0.0000   0.0000
     0.0000   0.0000   0.0000   0.0000   0.0000   0.0000   0.0000   0.0000
     0.0000   0.0000   0.0000   0.0000   0.0000   0.0000   0.0000   0.0000
     0.0000   0.0000   0.0000   0.0000   0.0000   0.0000   0.0000   0.0000
     0.0000   0.0000   0.0000   0.0000

          k = 0.0000 0.1830 0.0000 ( 24476 PWs)   bands (ev):

   -36.5906 -36.5899 -36.5881 -36.5875 -36.5535 -36.5527 -36.5467 -36.5463
   -36.5287 -36.5280 -36.3080 -36.2996 -36.2868 -36.2705 -36.2643 -29.2919
   -29.2892 -29.2873 -29.2848 -29.2675 -29.2649 -29.2573 -29.2551 -29.2520
   -29.2497 -12.6544 -12.0980 -10.9432  -8.0248  -6.8792  -2.5276  -1.8942
    -1.7602  -1.5153  -1.3479  -0.9183  -0.1079   0.2546   0.7008   2.2944
     2.6351   3.0220   3.6539   3.8557   4.4231   6.4885   6.5468   7.1798
     7.6874   7.8593   8.4895   8.7584   8.9898   9.1979   9.5667   9.9223
     9.9729  10.5445  11.0773  11.3128  11.6669  11.6816  12.1814  12.3825
    12.7793  12.8414  13.2450  13.6718  13.7762  13.9821  14.3567  14.5540
    14.7464  14.9385  15.1161  15.4164  15.7810  15.9416  16.0306  16.1224
    16.2888  16.5328  16.7375  17.0301  17.1369  17.5703  17.7376  17.9102
    18.0905  18.2213  18.2674  18.4970  18.6893  19.0190  19.1419  19.3588
    19.5416  19.6531  19.9856  20.2344

     occupation numbers 
     1.0000   1.0000   1.0000   1.0000   1.0000   1.0000   1.0000   1.0000
     1.0000   1.0000   1.0000   1.0000   1.0000   1.0000   1.0000   1.0000
     1.0000   1.0000   1.0000   1.0000   1.0000   1.0000   1.0000   1.0000
     1.0000   1.0000   1.0000   1.0000   1.0000   1.0000   1.0000   1.0000
     1.0000   1.0000   1.0000   1.0000   1.0000   1.0000   1.0000   0.0000
     0.0000   0.0000   0.0000   0.0000   0.0000   0.0000   0.0000   0.0000
     0.0000   0.0000   0.0000   0.0000   0.0000   0.0000   0.0000   0.0000
     0.0000   0.0000   0.0000   0.0000   0.0000   0.0000   0.0000   0.0000
     0.0000   0.0000   0.0000   0.0000   0.0000   0.0000   0.0000   0.0000
     0.0000   0.0000   0.0000   0.0000   0.0000   0.0000   0.0000   0.0000
     0.0000   0.0000   0.0000   0.0000   0.0000   0.0000   0.0000   0.0000
     0.0000   0.0000   0.0000   0.0000   0.0000   0.0000   0.0000   0.0000
     0.0000   0.0000   0.0000   0.0000

          k = 0.0000 0.2745 0.0000 ( 24510 PWs)   bands (ev):

   -36.5863 -36.5856 -36.5818 -36.5811 -36.5464 -36.5456 -36.5378 -36.5374
   -36.5226 -36.5219 -36.3032 -36.2958 -36.2781 -36.2633 -36.2564 -29.2894
   -29.2867 -29.2834 -29.2809 -29.2698 -29.2672 -29.2620 -29.2596 -29.2477
   -29.2452 -12.3566 -11.8342 -10.7893  -8.1836  -7.3606  -3.2619  -2.3013
    -2.2680  -1.8834  -1.6338  -0.8992  -0.3261  -0.1478   0.7617   2.3662
     2.8163   3.4010   3.9942   4.1694   4.9567   6.4055   6.7912   7.0992
     7.8736   8.1480   8.7028   8.9825   9.1375   9.1821  10.0186  10.1402
    10.3219  10.7192  10.9348  11.7829  12.0892  12.3582  12.4231  12.6105
    12.6661  12.8120  13.3445  13.4640  13.9134  14.0745  14.1075  14.6142
    14.6318  14.7876  15.0757  15.3361  15.4278  15.5515  15.6091  15.7909
    16.0698  16.6729  16.8148  17.0343  17.4752  17.5861  17.6517  17.7546
    17.8718  18.3566  18.5528  18.7899  18.8405  18.9702  19.2004  19.3579
    19.5926  19.9027  19.9864  20.0879

     occupation numbers 
     1.0000   1.0000   1.0000   1.0000   1.0000   1.0000   1.0000   1.0000
     1.0000   1.0000   1.0000   1.0000   1.0000   1.0000   1.0000   1.0000
     1.0000   1.0000   1.0000   1.0000   1.0000   1.0000   1.0000   1.0000
     1.0000   1.0000   1.0000   1.0000   1.0000   1.0000   1.0000   1.0000
     1.0000   1.0000   1.0000   1.0000   1.0000   1.0000   1.0000   0.0000
     0.0000   0.0000   0.0000   0.0000   0.0000   0.0000   0.0000   0.0000
     0.0000   0.0000   0.0000   0.0000   0.0000   0.0000   0.0000   0.0000
     0.0000   0.0000   0.0000   0.0000   0.0000   0.0000   0.0000   0.0000
     0.0000   0.0000   0.0000   0.0000   0.0000   0.0000   0.0000   0.0000
     0.0000   0.0000   0.0000   0.0000   0.0000   0.0000   0.0000   0.0000
     0.0000   0.0000   0.0000   0.0000   0.0000   0.0000   0.0000   0.0000
     0.0000   0.0000   0.0000   0.0000   0.0000   0.0000   0.0000   0.0000
     0.0000   0.0000   0.0000   0.0000

          k = 0.0000 0.3660 0.0000 ( 24538 PWs)   bands (ev):

   -36.5815 -36.5808 -36.5756 -36.5749 -36.5404 -36.5395 -36.5308 -36.5304
   -36.5146 -36.5140 -36.3004 -36.2945 -36.2693 -36.2539 -36.2449 -29.2908
   -29.2882 -29.2838 -29.2814 -29.2708 -29.2679 -29.2637 -29.2613 -29.2495
   -29.2468 -11.9823 -11.5176 -10.6537  -8.4694  -7.8605  -3.8335  -2.7549
    -2.5765  -2.0710  -1.8883  -1.1362  -0.4834  -0.2315   0.5076   2.4440
     2.9275   3.4272   4.2480   4.4579   5.4176   6.0574   7.1796   7.3552
     8.0701   8.5198   8.8397   9.3947   9.6360   9.7474  10.3375  10.5217
    10.5721  10.9248  11.2664  11.3087  11.9594  12.2511  12.3089  12.6141
    13.0206  13.1803  13.3250  13.5109  13.7795  14.1597  14.3409  14.4940
    14.8526  14.9201  15.1512  15.2588  15.3913  15.5941  15.7910  16.0289
    16.5189  16.5685  16.8345  16.9840  17.1329  17.2216  17.2764  17.3527
    17.5209  17.6217  17.8081  18.0944  18.6161  18.8571  18.9720  19.0902
    19.4554  19.9417  19.9785  20.2182

     occupation numbers 
     1.0000   1.0000   1.0000   1.0000   1.0000   1.0000   1.0000   1.0000
     1.0000   1.0000   1.0000   1.0000   1.0000   1.0000   1.0000   1.0000
     1.0000   1.0000   1.0000   1.0000   1.0000   1.0000   1.0000   1.0000
     1.0000   1.0000   1.0000   1.0000   1.0000   1.0000   1.0000   1.0000
     1.0000   1.0000   1.0000   1.0000   1.0000   1.0000   1.0000   0.0000
     0.0000   0.0000   0.0000   0.0000   0.0000   0.0000   0.0000   0.0000
     0.0000   0.0000   0.0000   0.0000   0.0000   0.0000   0.0000   0.0000
     0.0000   0.0000   0.0000   0.0000   0.0000   0.0000   0.0000   0.0000
     0.0000   0.0000   0.0000   0.0000   0.0000   0.0000   0.0000   0.0000
     0.0000   0.0000   0.0000   0.0000   0.0000   0.0000   0.0000   0.0000
     0.0000   0.0000   0.0000   0.0000   0.0000   0.0000   0.0000   0.0000
     0.0000   0.0000   0.0000   0.0000   0.0000   0.0000   0.0000   0.0000
     0.0000   0.0000   0.0000   0.0000

          k = 0.0000 0.4574 0.0000 ( 24542 PWs)   bands (ev):

   -36.5767 -36.5760 -36.5698 -36.5692 -36.5392 -36.5383 -36.5270 -36.5266
   -36.5129 -36.5123 -36.2997 -36.2952 -36.2656 -36.2484 -36.2380 -29.2905
   -29.2881 -29.2833 -29.2810 -29.2707 -29.2676 -29.2614 -29.2589 -29.2504
   -29.2475 -11.5593 -11.1967 -10.6235  -8.8461  -8.2652  -4.2187  -2.9606
    -2.7910  -2.3061  -2.0753  -1.3662  -0.4330  -0.3148   0.2196   2.4425
     2.9689   3.3514   4.3989   4.6618   5.5836   5.8648   7.3651   7.8399
     8.2945   8.9492   9.3805   9.6176   9.8591  10.2955  10.5731  10.7459
    11.0009  11.1274  11.2405  11.5555  11.7137  11.9557  12.3373  12.7029
    13.0190  13.3182  13.6316  13.7713  13.9656  14.0447  14.1952  14.4169
    14.6104  14.6885  15.0230  15.1096  15.3193  15.6735  15.8789  16.1392
    16.2516  16.3021  16.6623  16.7624  16.9178  16.9847  17.1354  17.3749
    17.4808  17.6605  17.7564  17.8569  18.1900  18.7811  19.0348  19.2898
    19.4237  19.7525  19.9636  20.1340

     occupation numbers 
     1.0000   1.0000   1.0000   1.0000   1.0000   1.0000   1.0000   1.0000
     1.0000   1.0000   1.0000   1.0000   1.0000   1.0000   1.0000   1.0000
     1.0000   1.0000   1.0000   1.0000   1.0000   1.0000   1.0000   1.0000
     1.0000   1.0000   1.0000   1.0000   1.0000   1.0000   1.0000   1.0000
     1.0000   1.0000   1.0000   1.0000   1.0000   1.0000   1.0000   0.0000
     0.0000   0.0000   0.0000   0.0000   0.0000   0.0000   0.0000   0.0000
     0.0000   0.0000   0.0000   0.0000   0.0000   0.0000   0.0000   0.0000
     0.0000   0.0000   0.0000   0.0000   0.0000   0.0000   0.0000   0.0000
     0.0000   0.0000   0.0000   0.0000   0.0000   0.0000   0.0000   0.0000
     0.0000   0.0000   0.0000   0.0000   0.0000   0.0000   0.0000   0.0000
     0.0000   0.0000   0.0000   0.0000   0.0000   0.0000   0.0000   0.0000
     0.0000   0.0000   0.0000   0.0000   0.0000   0.0000   0.0000   0.0000
     0.0000   0.0000   0.0000   0.0000

          k = 0.0000 0.5489 0.0000 ( 24555 PWs)   bands (ev):

   -36.5739 -36.5731 -36.5667 -36.5660 -36.5398 -36.5389 -36.5238 -36.5234
   -36.5156 -36.5149 -36.2998 -36.2964 -36.2648 -36.2461 -36.2350 -29.2898
   -29.2874 -29.2827 -29.2804 -29.2700 -29.2666 -29.2584 -29.2558 -29.2501
   -29.2471 -11.1329 -10.9678 -10.7739  -9.1308  -8.5026  -4.4179  -2.9468
    -2.9010  -2.5702  -2.1730  -1.4265  -0.4099  -0.3668   0.0610   2.3808
     2.9778   3.3517   4.4197   4.7620   5.6100   5.7609   7.4873   8.4121
     8.6674   9.0460   9.2435   9.5913   9.9754  10.2717  10.6930  11.0723
    11.3813  11.5098  11.6878  11.9264  12.0488  12.1227  12.3832  12.7453
    12.9210  13.1671  13.2322  13.4460  13.9037  13.9564  14.2613  14.3786
    14.5027  14.5446  14.7204  14.9791  15.0644  15.2431  15.4987  15.6354
    15.9051  16.0299  16.6014  16.7110  16.8245  17.0433  17.2898  17.7644
    17.9512  18.0682  18.1438  18.5448  18.7053  18.8195  18.9548  19.3203
    19.3329  19.7817  19.8717  20.0865

     occupation numbers 
     1.0000   1.0000   1.0000   1.0000   1.0000   1.0000   1.0000   1.0000
     1.0000   1.0000   1.0000   1.0000   1.0000   1.0000   1.0000   1.0000
     1.0000   1.0000   1.0000   1.0000   1.0000   1.0000   1.0000   1.0000
     1.0000   1.0000   1.0000   1.0000   1.0000   1.0000   1.0000   1.0000
     1.0000   1.0000   1.0000   1.0000   1.0000   1.0000   1.0000   0.0000
     0.0000   0.0000   0.0000   0.0000   0.0000   0.0000   0.0000   0.0000
     0.0000   0.0000   0.0000   0.0000   0.0000   0.0000   0.0000   0.0000
     0.0000   0.0000   0.0000   0.0000   0.0000   0.0000   0.0000   0.0000
     0.0000   0.0000   0.0000   0.0000   0.0000   0.0000   0.0000   0.0000
     0.0000   0.0000   0.0000   0.0000   0.0000   0.0000   0.0000   0.0000
     0.0000   0.0000   0.0000   0.0000   0.0000   0.0000   0.0000   0.0000
     0.0000   0.0000   0.0000   0.0000   0.0000   0.0000   0.0000   0.0000
     0.0000   0.0000   0.0000   0.0000

          k = 0.0769 0.0444 0.0000 ( 24447 PWs)   bands (ev):

   -36.6027 -36.6022 -36.5981 -36.5974 -36.5697 -36.5690 -36.5565 -36.5559
   -36.5392 -36.5386 -36.3077 -36.3042 -36.2989 -36.2762 -36.2742 -29.2935
   -29.2909 -29.2906 -29.2881 -29.2572 -29.2547 -29.2528 -29.2506 -29.2310
   -29.2287 -12.8615 -12.3239 -11.0779  -7.9275  -6.5337  -1.7802  -1.5506
    -1.2911  -1.0523  -0.9294  -0.7035  -0.0419   0.1543   0.6246   2.1818
     2.4003   2.5430   3.4728   3.5499   3.8536   6.2824   6.4154   7.3869
     7.6560   7.8662   8.5613   8.6764   8.9750   9.1608   9.4464   9.7452
    10.1497  10.4723  10.6299  10.7738  11.2747  11.3142  11.7642  11.7806
    12.6794  12.7545  13.1382  13.2744  13.8383  14.2716  14.5705  14.8632
    15.1419  15.3540  15.5979  15.6922  15.9874  16.0857  16.3413  16.5951
    16.8092  16.8545  16.9489  17.1245  17.2113  17.2880  17.5270  17.7875
    17.9878  18.0356  18.2215  18.4440  18.5086  18.7207  18.8068  18.8554
    18.9389  19.1307  19.2193  19.3711

     occupation numbers 
     1.0000   1.0000   1.0000   1.0000   1.0000   1.0000   1.0000   1.0000
     1.0000   1.0000   1.0000   1.0000   1.0000   1.0000   1.0000   1.0000
     1.0000   1.0000   1.0000   1.0000   1.0000   1.0000   1.0000   1.0000
     1.0000   1.0000   1.0000   1.0000   1.0000   1.0000   1.0000   1.0000
     1.0000   1.0000   1.0000   1.0000   1.0000   1.0000   1.0000   0.0000
     0.0000   0.0000   0.0000   0.0000   0.0000   0.0000   0.0000   0.0000
     0.0000   0.0000   0.0000   0.0000   0.0000   0.0000   0.0000   0.0000
     0.0000   0.0000   0.0000   0.0000   0.0000   0.0000   0.0000   0.0000
     0.0000   0.0000   0.0000   0.0000   0.0000   0.0000   0.0000   0.0000
     0.0000   0.0000   0.0000   0.0000   0.0000   0.0000   0.0000   0.0000
     0.0000   0.0000   0.0000   0.0000   0.0000   0.0000   0.0000   0.0000
     0.0000   0.0000   0.0000   0.0000   0.0000   0.0000   0.0000   0.0000
     0.0000   0.0000   0.0000   0.0000

          k = 0.0769 0.1359 0.0000 ( 24471 PWs)   bands (ev):

   -36.6039 -36.6033 -36.5878 -36.5872 -36.5594 -36.5586 -36.5497 -36.5492
   -36.5330 -36.5324 -36.3082 -36.3021 -36.2969 -36.2694 -36.2678 -29.2951
   -29.2927 -29.2816 -29.2790 -29.2641 -29.2618 -29.2546 -29.2524 -29.2409
   -29.2385 -12.7240 -12.1739 -10.9969  -8.0002  -6.7878  -2.2883  -1.9011
    -1.6725  -1.4175  -1.0254  -0.8102  -0.2699   0.5412   0.6509   2.3157
     2.5678   2.8600   3.5917   3.7856   4.2030   6.4262   6.5112   7.3989
     7.5608   7.6455   8.6682   8.7526   8.9351   9.2018   9.3942   9.8222
    10.2505  10.5916  10.8663  11.2630  11.3363  11.6320  11.8437  12.0402
    12.9181  13.0161  13.3964  13.5163  13.6723  13.9582  14.1397  14.4981
    14.9791  15.1456  15.3681  15.4527  15.6501  15.6917  16.0728  16.6203
    16.7321  16.8968  17.0359  17.1845  17.3371  17.4663  17.6043  17.7116
    17.7635  17.9525  17.9657  18.0977  18.6709  19.2759  19.4503  19.6014
    19.6866  19.7551  19.8239  19.9422

     occupation numbers 
     1.0000   1.0000   1.0000   1.0000   1.0000   1.0000   1.0000   1.0000
     1.0000   1.0000   1.0000   1.0000   1.0000   1.0000   1.0000   1.0000
     1.0000   1.0000   1.0000   1.0000   1.0000   1.0000   1.0000   1.0000
     1.0000   1.0000   1.0000   1.0000   1.0000   1.0000   1.0000   1.0000
     1.0000   1.0000   1.0000   1.0000   1.0000   1.0000   1.0000   0.0000
     0.0000   0.0000   0.0000   0.0000   0.0000   0.0000   0.0000   0.0000
     0.0000   0.0000   0.0000   0.0000   0.0000   0.0000   0.0000   0.0000
     0.0000   0.0000   0.0000   0.0000   0.0000   0.0000   0.0000   0.0000
     0.0000   0.0000   0.0000   0.0000   0.0000   0.0000   0.0000   0.0000
     0.0000   0.0000   0.0000   0.0000   0.0000   0.0000   0.0000   0.0000
     0.0000   0.0000   0.0000   0.0000   0.0000   0.0000   0.0000   0.0000
     0.0000   0.0000   0.0000   0.0000   0.0000   0.0000   0.0000   0.0000
     0.0000   0.0000   0.0000   0.0000

          k = 0.0769 0.2274 0.0000 ( 24488 PWs)   bands (ev):

   -36.5903 -36.5895 -36.5859 -36.5853 -36.5488 -36.5479 -36.5413 -36.5410
   -36.5236 -36.5230 -36.3033 -36.2980 -36.2872 -36.2633 -36.2604 -29.2928
   -29.2904 -29.2786 -29.2760 -29.2685 -29.2662 -29.2577 -29.2552 -29.2530
   -29.2503 -12.4775 -11.9394 -10.8553  -8.1233  -7.2053  -2.8975  -2.5004
    -1.9208  -1.8307  -1.3861  -1.0044  -0.2894   0.2656   0.7751   2.4949
     2.6783   3.2702   3.8275   4.2006   4.7014   6.6202   6.6621   7.1234
     7.5598   7.8739   8.7489   8.8874   9.0205   9.1648   9.7954  10.0998
    10.3233  10.6652  11.2112  11.4209  11.7825  11.9243  12.4049  12.5801
    12.9377  13.2286  13.3787  13.4904  13.6149  13.8937  14.0908  14.3748
    14.4518  14.5119  14.8636  15.0727  15.8258  15.9624  16.1400  16.2627
    16.4252  16.6060  16.7896  16.9809  17.0835  17.3072  17.5267  17.8901
    18.2991  18.5343  18.7975  18.8360  18.9057  18.9600  19.0444  19.2837
    19.3520  19.6041  19.6938  19.7678

     occupation numbers 
     1.0000   1.0000   1.0000   1.0000   1.0000   1.0000   1.0000   1.0000
     1.0000   1.0000   1.0000   1.0000   1.0000   1.0000   1.0000   1.0000
     1.0000   1.0000   1.0000   1.0000   1.0000   1.0000   1.0000   1.0000
     1.0000   1.0000   1.0000   1.0000   1.0000   1.0000   1.0000   1.0000
     1.0000   1.0000   1.0000   1.0000   1.0000   1.0000   1.0000   0.0000
     0.0000   0.0000   0.0000   0.0000   0.0000   0.0000   0.0000   0.0000
     0.0000   0.0000   0.0000   0.0000   0.0000   0.0000   0.0000   0.0000
     0.0000   0.0000   0.0000   0.0000   0.0000   0.0000   0.0000   0.0000
     0.0000   0.0000   0.0000   0.0000   0.0000   0.0000   0.0000   0.0000
     0.0000   0.0000   0.0000   0.0000   0.0000   0.0000   0.0000   0.0000
     0.0000   0.0000   0.0000   0.0000   0.0000   0.0000   0.0000   0.0000
     0.0000   0.0000   0.0000   0.0000   0.0000   0.0000   0.0000   0.0000
     0.0000   0.0000   0.0000   0.0000

          k = 0.0769 0.3189 0.0000 ( 24516 PWs)   bands (ev):

   -36.5842 -36.5835 -36.5773 -36.5766 -36.5430 -36.5421 -36.5341 -36.5337
   -36.5181 -36.5175 -36.2993 -36.2953 -36.2775 -36.2554 -36.2504 -29.2901
   -29.2877 -29.2802 -29.2778 -29.2708 -29.2684 -29.2618 -29.2594 -29.2511
   -29.2485 -12.1446 -11.6511 -10.7056  -8.3358  -7.7012  -3.5321  -2.8415
    -2.2709  -2.1754  -1.7537  -1.1186  -0.2911  -0.1413   0.6923   2.6059
     2.7913   3.4310   4.1606   4.4862   5.2070   6.3558   7.0082   7.2528
     7.8740   8.2851   8.4381   9.1778   9.3677   9.7682  10.1412  10.4102
    10.5312  10.7778  11.4533  11.5183  11.8565  12.3722  12.6486  12.7955
    12.9071  13.0183  13.0866  13.1333  13.5970  13.8783  14.2467  14.4699
    14.6674  14.8347  15.0990  15.2640  15.5023  15.6796  15.9471  16.1807
    16.2736  16.5181  16.6047  16.7197  17.0436  17.2373  17.4284  17.7746
    18.1431  18.1662  18.3589  18.5574  18.8557  18.9885  19.1036  19.1469
    19.3315  19.7384  19.9312  19.9970

     occupation numbers 
     1.0000   1.0000   1.0000   1.0000   1.0000   1.0000   1.0000   1.0000
     1.0000   1.0000   1.0000   1.0000   1.0000   1.0000   1.0000   1.0000
     1.0000   1.0000   1.0000   1.0000   1.0000   1.0000   1.0000   1.0000
     1.0000   1.0000   1.0000   1.0000   1.0000   1.0000   1.0000   1.0000
     1.0000   1.0000   1.0000   1.0000   1.0000   1.0000   1.0000   0.0000
     0.0000   0.0000   0.0000   0.0000   0.0000   0.0000   0.0000   0.0000
     0.0000   0.0000   0.0000   0.0000   0.0000   0.0000   0.0000   0.0000
     0.0000   0.0000   0.0000   0.0000   0.0000   0.0000   0.0000   0.0000
     0.0000   0.0000   0.0000   0.0000   0.0000   0.0000   0.0000   0.0000
     0.0000   0.0000   0.0000   0.0000   0.0000   0.0000   0.0000   0.0000
     0.0000   0.0000   0.0000   0.0000   0.0000   0.0000   0.0000   0.0000
     0.0000   0.0000   0.0000   0.0000   0.0000   0.0000   0.0000   0.0000
     0.0000   0.0000   0.0000   0.0000

          k = 0.0769 0.4104 0.0000 ( 24529 PWs)   bands (ev):

   -36.5779 -36.5772 -36.5713 -36.5706 -36.5396 -36.5387 -36.5295 -36.5291
   -36.5157 -36.5151 -36.2978 -36.2952 -36.2712 -36.2491 -36.2416 -29.2894
   -29.2869 -29.2809 -29.2786 -29.2709 -29.2685 -29.2606 -29.2583 -29.2508
   -29.2480 -11.7454 -11.3289 -10.6116  -8.6683  -8.1618  -4.0133  -2.9794
    -2.7080  -2.4511  -1.8739  -1.3266  -0.4702  -0.2193   0.4810   2.6542
     2.7971   3.4682   4.3988   4.6597   5.5406   6.0638   7.3512   7.5961
     8.1715   8.6473   8.8697   9.5337   9.7396  10.0444  10.5839  10.6046
    10.8924  11.0317  11.4574  11.5771  11.7189  12.0356  12.2506  12.7422
    12.9562  13.2740  13.4144  13.6209  13.6447  13.8211  14.0520  14.1532
    14.2207  15.0859  15.3402  15.5927  15.7042  15.8049  15.8760  16.1501
    16.2284  16.4127  16.5795  16.6746  16.9259  17.0138  17.2330  17.4413
    17.6958  18.0182  18.1611  18.2745  18.5379  18.6926  18.8201  19.1104
    19.6191  19.7160  19.9218  20.0129

     occupation numbers 
     1.0000   1.0000   1.0000   1.0000   1.0000   1.0000   1.0000   1.0000
     1.0000   1.0000   1.0000   1.0000   1.0000   1.0000   1.0000   1.0000
     1.0000   1.0000   1.0000   1.0000   1.0000   1.0000   1.0000   1.0000
     1.0000   1.0000   1.0000   1.0000   1.0000   1.0000   1.0000   1.0000
     1.0000   1.0000   1.0000   1.0000   1.0000   1.0000   1.0000   0.0000
     0.0000   0.0000   0.0000   0.0000   0.0000   0.0000   0.0000   0.0000
     0.0000   0.0000   0.0000   0.0000   0.0000   0.0000   0.0000   0.0000
     0.0000   0.0000   0.0000   0.0000   0.0000   0.0000   0.0000   0.0000
     0.0000   0.0000   0.0000   0.0000   0.0000   0.0000   0.0000   0.0000
     0.0000   0.0000   0.0000   0.0000   0.0000   0.0000   0.0000   0.0000
     0.0000   0.0000   0.0000   0.0000   0.0000   0.0000   0.0000   0.0000
     0.0000   0.0000   0.0000   0.0000   0.0000   0.0000   0.0000   0.0000
     0.0000   0.0000   0.0000   0.0000

          k = 0.0769 0.5019 0.0000 ( 24550 PWs)   bands (ev):

   -36.5739 -36.5731 -36.5674 -36.5667 -36.5383 -36.5374 -36.5259 -36.5256
   -36.5160 -36.5154 -36.2973 -36.2960 -36.2683 -36.2449 -36.2362 -29.2889
   -29.2865 -29.2810 -29.2787 -29.2705 -29.2680 -29.2583 -29.2561 -29.2513
   -29.2482 -11.3128 -11.0372 -10.6518  -9.0252  -8.4906  -4.3077  -3.0047
    -2.9510  -2.6485  -2.0110  -1.5054  -0.4950  -0.2682   0.2812   2.6957
     2.7551   3.3977   4.5829   4.7113   5.6460   5.9018   7.4776   8.1500
     8.4654   9.1829   9.3751   9.3941   9.9669  10.1852  10.5932  10.7531
    11.1379  11.2463  11.6187  11.7426  11.9265  12.1763  12.3174  12.7040
    12.8532  12.9452  13.2054  13.3335  13.5499  13.9202  14.1329  14.4781
    14.5574  14.8382  15.0949  15.2410  15.4144  15.5892  15.8656  15.8972
    16.1376  16.2198  16.2852  16.7255  17.2036  17.3970  17.4498  17.5509
    17.7368  18.1300  18.2398  18.3262  18.5212  18.6615  18.7813  19.1451
    19.3983  19.6175  19.6747  20.1045

     occupation numbers 
     1.0000   1.0000   1.0000   1.0000   1.0000   1.0000   1.0000   1.0000
     1.0000   1.0000   1.0000   1.0000   1.0000   1.0000   1.0000   1.0000
     1.0000   1.0000   1.0000   1.0000   1.0000   1.0000   1.0000   1.0000
     1.0000   1.0000   1.0000   1.0000   1.0000   1.0000   1.0000   1.0000
     1.0000   1.0000   1.0000   1.0000   1.0000   1.0000   1.0000   0.0000
     0.0000   0.0000   0.0000   0.0000   0.0000   0.0000   0.0000   0.0000
     0.0000   0.0000   0.0000   0.0000   0.0000   0.0000   0.0000   0.0000
     0.0000   0.0000   0.0000   0.0000   0.0000   0.0000   0.0000   0.0000
     0.0000   0.0000   0.0000   0.0000   0.0000   0.0000   0.0000   0.0000
     0.0000   0.0000   0.0000   0.0000   0.0000   0.0000   0.0000   0.0000
     0.0000   0.0000   0.0000   0.0000   0.0000   0.0000   0.0000   0.0000
     0.0000   0.0000   0.0000   0.0000   0.0000   0.0000   0.0000   0.0000
     0.0000   0.0000   0.0000   0.0000

          k = 0.0769 0.5933 0.0000 ( 24545 PWs)   bands (ev):

   -36.5729 -36.5722 -36.5658 -36.5651 -36.5385 -36.5376 -36.5239 -36.5236
   -36.5169 -36.5162 -36.2977 -36.2964 -36.2673 -36.2434 -36.2344 -29.2887
   -29.2863 -29.2811 -29.2788 -29.2700 -29.2674 -29.2573 -29.2550 -29.2513
   -29.2482 -10.9506 -10.9178 -10.8471  -9.1868  -8.6154  -4.4087  -3.1042
    -2.8740  -2.7521  -2.1145  -1.5451  -0.4174  -0.3663   0.2079   2.6569
     2.7927   3.3424   4.6514   4.7068   5.7166   5.7671   7.5444   8.6119
     8.8453   8.8951   9.0634   9.8887   9.9472   9.9799  10.6643  10.9200
    11.1858  11.3997  11.6018  11.8871  12.0964  12.1586  12.4919  12.6465
    12.8370  12.9276  13.1631  13.4164  13.7280  14.0093  14.3498  14.4175
    14.6022  14.7888  14.8429  14.9185  15.1392  15.3661  15.5606  15.7684
    16.0065  16.1719  16.4545  16.6013  16.9211  17.3617  17.3788  17.6226
    18.1635  18.3428  18.4287  18.7068  18.7564  18.9037  19.0384  19.3351
    19.4012  19.5715  19.6903  19.7662

     occupation numbers 
     1.0000   1.0000   1.0000   1.0000   1.0000   1.0000   1.0000   1.0000
     1.0000   1.0000   1.0000   1.0000   1.0000   1.0000   1.0000   1.0000
     1.0000   1.0000   1.0000   1.0000   1.0000   1.0000   1.0000   1.0000
     1.0000   1.0000   1.0000   1.0000   1.0000   1.0000   1.0000   1.0000
     1.0000   1.0000   1.0000   1.0000   1.0000   1.0000   1.0000   0.0000
     0.0000   0.0000   0.0000   0.0000   0.0000   0.0000   0.0000   0.0000
     0.0000   0.0000   0.0000   0.0000   0.0000   0.0000   0.0000   0.0000
     0.0000   0.0000   0.0000   0.0000   0.0000   0.0000   0.0000   0.0000
     0.0000   0.0000   0.0000   0.0000   0.0000   0.0000   0.0000   0.0000
     0.0000   0.0000   0.0000   0.0000   0.0000   0.0000   0.0000   0.0000
     0.0000   0.0000   0.0000   0.0000   0.0000   0.0000   0.0000   0.0000
     0.0000   0.0000   0.0000   0.0000   0.0000   0.0000   0.0000   0.0000
     0.0000   0.0000   0.0000   0.0000

          k = 0.0769-0.5045 0.0000 ( 24534 PWs)   bands (ev):

   -36.5740 -36.5733 -36.5674 -36.5667 -36.5393 -36.5385 -36.5252 -36.5248
   -36.5160 -36.5154 -36.2988 -36.2962 -36.2676 -36.2445 -36.2362 -29.2891
   -29.2866 -29.2813 -29.2790 -29.2700 -29.2673 -29.2590 -29.2567 -29.2504
   -29.2475 -11.3019 -11.0300 -10.6558  -9.0297  -8.4876  -4.3126  -3.0096
    -2.9667  -2.6188  -2.0368  -1.4821  -0.4814  -0.3013   0.2793   2.6801
     2.7557   3.3744   4.5856   4.6789   5.6296   5.8809   7.4657   8.1631
     8.4849   9.1292   9.2841   9.3567   9.9178  10.0872  10.5601  10.6837
    11.0237  11.2602  11.7314  11.8409  12.0680  12.2168  12.4514  12.7195
    12.9988  13.1357  13.3067  13.4362  13.6475  13.9297  14.2277  14.3497
    14.6373  14.8408  15.0419  15.2460  15.2804  15.6101  15.7735  15.9387
    15.9750  16.2533  16.3307  16.6589  17.0486  17.2592  17.3779  17.6515
    17.8314  18.0570  18.2603  18.3539  18.4213  18.7229  18.8954  19.1646
    19.3729  19.5513  19.8108  20.0181

     occupation numbers 
     1.0000   1.0000   1.0000   1.0000   1.0000   1.0000   1.0000   1.0000
     1.0000   1.0000   1.0000   1.0000   1.0000   1.0000   1.0000   1.0000
     1.0000   1.0000   1.0000   1.0000   1.0000   1.0000   1.0000   1.0000
     1.0000   1.0000   1.0000   1.0000   1.0000   1.0000   1.0000   1.0000
     1.0000   1.0000   1.0000   1.0000   1.0000   1.0000   1.0000   0.0000
     0.0000   0.0000   0.0000   0.0000   0.0000   0.0000   0.0000   0.0000
     0.0000   0.0000   0.0000   0.0000   0.0000   0.0000   0.0000   0.0000
     0.0000   0.0000   0.0000   0.0000   0.0000   0.0000   0.0000   0.0000
     0.0000   0.0000   0.0000   0.0000   0.0000   0.0000   0.0000   0.0000
     0.0000   0.0000   0.0000   0.0000   0.0000   0.0000   0.0000   0.0000
     0.0000   0.0000   0.0000   0.0000   0.0000   0.0000   0.0000   0.0000
     0.0000   0.0000   0.0000   0.0000   0.0000   0.0000   0.0000   0.0000
     0.0000   0.0000   0.0000   0.0000

          k = 0.0769-0.4130 0.0000 ( 24563 PWs)   bands (ev):

   -36.5786 -36.5778 -36.5705 -36.5699 -36.5410 -36.5402 -36.5289 -36.5284
   -36.5155 -36.5149 -36.3000 -36.2958 -36.2697 -36.2482 -36.2414 -29.2899
   -29.2874 -29.2813 -29.2790 -29.2701 -29.2674 -29.2617 -29.2595 -29.2499
   -29.2471 -11.7353 -11.3193 -10.6094  -8.6723  -8.1538  -4.0229  -3.0007
    -2.7078  -2.4150  -1.9098  -1.2879  -0.4628  -0.2657   0.4630   2.6572
     2.7696   3.4083   4.3620   4.6601   5.5015   6.0347   7.3398   7.6039
     8.1583   8.5214   8.7969   9.4588   9.7398  10.0202  10.5755  10.7646
    10.8698  11.1760  11.5150  11.5702  11.7304  12.0959  12.2936  12.7719
    12.9955  13.3104  13.4467  13.6485  13.7090  13.8411  14.0927  14.1956
    14.2590  15.0700  15.3804  15.7611  15.7880  15.9328  16.0526  16.1693
    16.2420  16.3561  16.6228  16.6995  16.8889  16.9452  17.2652  17.2984
    17.6245  17.7438  18.1759  18.2567  18.4945  18.6998  18.7485  19.1299
    19.4231  19.7801  19.8426  20.1491

     occupation numbers 
     1.0000   1.0000   1.0000   1.0000   1.0000   1.0000   1.0000   1.0000
     1.0000   1.0000   1.0000   1.0000   1.0000   1.0000   1.0000   1.0000
     1.0000   1.0000   1.0000   1.0000   1.0000   1.0000   1.0000   1.0000
     1.0000   1.0000   1.0000   1.0000   1.0000   1.0000   1.0000   1.0000
     1.0000   1.0000   1.0000   1.0000   1.0000   1.0000   1.0000   0.0000
     0.0000   0.0000   0.0000   0.0000   0.0000   0.0000   0.0000   0.0000
     0.0000   0.0000   0.0000   0.0000   0.0000   0.0000   0.0000   0.0000
     0.0000   0.0000   0.0000   0.0000   0.0000   0.0000   0.0000   0.0000
     0.0000   0.0000   0.0000   0.0000   0.0000   0.0000   0.0000   0.0000
     0.0000   0.0000   0.0000   0.0000   0.0000   0.0000   0.0000   0.0000
     0.0000   0.0000   0.0000   0.0000   0.0000   0.0000   0.0000   0.0000
     0.0000   0.0000   0.0000   0.0000   0.0000   0.0000   0.0000   0.0000
     0.0000   0.0000   0.0000   0.0000

          k = 0.0769-0.3215 0.0000 ( 24555 PWs)   bands (ev):

   -36.5846 -36.5838 -36.5760 -36.5753 -36.5441 -36.5433 -36.5337 -36.5333
   -36.5182 -36.5176 -36.3016 -36.2959 -36.2750 -36.2541 -36.2498 -29.2913
   -29.2888 -29.2809 -29.2785 -29.2699 -29.2673 -29.2629 -29.2605 -29.2504
   -29.2478 -12.1360 -11.6420 -10.6986  -8.3344  -7.6882  -3.5471  -2.8454
    -2.2887  -2.1405  -1.7744  -1.0688  -0.3414  -0.1683   0.6566   2.5614
     2.7749   3.3787   4.0759   4.5319   5.1772   6.3216   7.0067   7.2465
     7.7929   8.2517   8.4077   9.1204   9.3854   9.9647  10.2086  10.4206
    10.5360  10.8184  11.5295  11.5500  11.8020  12.3430  12.6432  12.8090
    12.8689  12.9915  13.1200  13.1900  13.6140  13.9394  14.3307  14.4740
    14.7170  14.8403  15.0317  15.3187  15.4650  15.7496  16.0009  16.1306
    16.3537  16.4910  16.6734  16.9945  17.0720  17.3529  17.6949  17.8004
    18.1410  18.1883  18.3764  18.4609  18.7007  18.7864  19.0411  19.1897
    19.4039  19.5337  19.6112  19.7373

     occupation numbers 
     1.0000   1.0000   1.0000   1.0000   1.0000   1.0000   1.0000   1.0000
     1.0000   1.0000   1.0000   1.0000   1.0000   1.0000   1.0000   1.0000
     1.0000   1.0000   1.0000   1.0000   1.0000   1.0000   1.0000   1.0000
     1.0000   1.0000   1.0000   1.0000   1.0000   1.0000   1.0000   1.0000
     1.0000   1.0000   1.0000   1.0000   1.0000   1.0000   1.0000   0.0000
     0.0000   0.0000   0.0000   0.0000   0.0000   0.0000   0.0000   0.0000
     0.0000   0.0000   0.0000   0.0000   0.0000   0.0000   0.0000   0.0000
     0.0000   0.0000   0.0000   0.0000   0.0000   0.0000   0.0000   0.0000
     0.0000   0.0000   0.0000   0.0000   0.0000   0.0000   0.0000   0.0000
     0.0000   0.0000   0.0000   0.0000   0.0000   0.0000   0.0000   0.0000
     0.0000   0.0000   0.0000   0.0000   0.0000   0.0000   0.0000   0.0000
     0.0000   0.0000   0.0000   0.0000   0.0000   0.0000   0.0000   0.0000
     0.0000   0.0000   0.0000   0.0000

          k = 0.0769-0.2301 0.0000 ( 24493 PWs)   bands (ev):

   -36.5900 -36.5892 -36.5849 -36.5843 -36.5504 -36.5496 -36.5400 -36.5395
   -36.5240 -36.5234 -36.3046 -36.2979 -36.2848 -36.2627 -36.2600 -29.2941
   -29.2916 -29.2788 -29.2762 -29.2674 -29.2651 -29.2586 -29.2561 -29.2523
   -29.2497 -12.4710 -11.9324 -10.8469  -8.1166  -7.1884  -2.9085  -2.4872
    -1.9338  -1.8091  -1.4068  -0.9705  -0.3375   0.2009   0.7499   2.3613
     2.6788   3.3034   3.7148   4.2869   4.6882   6.6037   6.6683   7.0920
     7.5203   7.8696   8.7494   8.8601   9.0767   9.2465   9.8449  10.1118
    10.2752  10.6982  11.1741  11.4735  11.8002  11.9217  12.4349  12.5711
    12.9443  13.2261  13.4730  13.5134  13.5515  13.9088  14.1070  14.4025
    14.5325  14.6501  14.9318  15.0180  15.7220  15.9189  16.1214  16.2435
    16.5052  16.6092  16.7815  16.9212  17.0596  17.2473  17.5731  17.6669
    18.4161  18.4792  18.6432  18.7219  18.9293  19.0112  19.2860  19.4005
    19.4454  19.7176  19.7429  19.8467

     occupation numbers 
     1.0000   1.0000   1.0000   1.0000   1.0000   1.0000   1.0000   1.0000
     1.0000   1.0000   1.0000   1.0000   1.0000   1.0000   1.0000   1.0000
     1.0000   1.0000   1.0000   1.0000   1.0000   1.0000   1.0000   1.0000
     1.0000   1.0000   1.0000   1.0000   1.0000   1.0000   1.0000   1.0000
     1.0000   1.0000   1.0000   1.0000   1.0000   1.0000   1.0000   0.0000
     0.0000   0.0000   0.0000   0.0000   0.0000   0.0000   0.0000   0.0000
     0.0000   0.0000   0.0000   0.0000   0.0000   0.0000   0.0000   0.0000
     0.0000   0.0000   0.0000   0.0000   0.0000   0.0000   0.0000   0.0000
     0.0000   0.0000   0.0000   0.0000   0.0000   0.0000   0.0000   0.0000
     0.0000   0.0000   0.0000   0.0000   0.0000   0.0000   0.0000   0.0000
     0.0000   0.0000   0.0000   0.0000   0.0000   0.0000   0.0000   0.0000
     0.0000   0.0000   0.0000   0.0000   0.0000   0.0000   0.0000   0.0000
     0.0000   0.0000   0.0000   0.0000

          k = 0.0769-0.1386 0.0000 ( 24453 PWs)   bands (ev):

   -36.6030 -36.6024 -36.5853 -36.5847 -36.5605 -36.5598 -36.5492 -36.5487
   -36.5335 -36.5329 -36.3090 -36.3012 -36.2935 -36.2683 -36.2668 -29.2961
   -29.2936 -29.2821 -29.2795 -29.2635 -29.2612 -29.2551 -29.2529 -29.2421
   -29.2397 -12.7198 -12.1705 -10.9869  -7.9928  -6.7704  -2.2527  -1.8981
    -1.6218  -1.4630  -1.0637  -0.8164  -0.3297   0.5094   0.6202   2.1711
     2.6601   2.7930   3.5485   3.8966   4.2025   6.4309   6.5139   7.3644
     7.5930   7.6466   8.6764   8.7662   8.9003   9.2342   9.3892   9.8366
    10.1608  10.5706  10.8623  11.3175  11.3349  11.6942  11.8823  12.1429
    12.8634  13.0146  13.3218  13.6080  13.6998  13.9842  14.2125  14.4590
    15.1313  15.1976  15.3925  15.4585  15.6353  15.6462  16.0517  16.4289
    16.6684  16.9368  17.1302  17.1667  17.2411  17.3630  17.4666  17.5491
    17.7533  17.7688  17.8743  18.1613  18.8757  19.2599  19.4396  19.4765
    19.5028  19.7155  20.0293  20.0723

     occupation numbers 
     1.0000   1.0000   1.0000   1.0000   1.0000   1.0000   1.0000   1.0000
     1.0000   1.0000   1.0000   1.0000   1.0000   1.0000   1.0000   1.0000
     1.0000   1.0000   1.0000   1.0000   1.0000   1.0000   1.0000   1.0000
     1.0000   1.0000   1.0000   1.0000   1.0000   1.0000   1.0000   1.0000
     1.0000   1.0000   1.0000   1.0000   1.0000   1.0000   1.0000   0.0000
     0.0000   0.0000   0.0000   0.0000   0.0000   0.0000   0.0000   0.0000
     0.0000   0.0000   0.0000   0.0000   0.0000   0.0000   0.0000   0.0000
     0.0000   0.0000   0.0000   0.0000   0.0000   0.0000   0.0000   0.0000
     0.0000   0.0000   0.0000   0.0000   0.0000   0.0000   0.0000   0.0000
     0.0000   0.0000   0.0000   0.0000   0.0000   0.0000   0.0000   0.0000
     0.0000   0.0000   0.0000   0.0000   0.0000   0.0000   0.0000   0.0000
     0.0000   0.0000   0.0000   0.0000   0.0000   0.0000   0.0000   0.0000
     0.0000   0.0000   0.0000   0.0000

          k = 0.0769-0.0471 0.0000 ( 24433 PWs)   bands (ev):

   -36.6018 -36.6012 -36.5975 -36.5969 -36.5685 -36.5677 -36.5583 -36.5578
   -36.5394 -36.5388 -36.3116 -36.3008 -36.2991 -36.2751 -36.2732 -29.2936
   -29.2912 -29.2904 -29.2882 -29.2564 -29.2541 -29.2534 -29.2512 -29.2310
   -29.2287 -12.8592 -12.3210 -11.0746  -7.9246  -6.5257  -1.7412  -1.4606
    -1.3836  -1.0855  -0.9768  -0.6763  -0.1160   0.1750   0.6298   2.0947
     2.4370   2.5890   3.4336   3.5452   3.9040   6.2846   6.4184   7.3816
     7.6727   7.9379   8.4043   8.6858   9.0030   9.2278   9.4516   9.6622
    10.1342  10.3857  10.6989  10.8618  11.3111  11.3431  11.6287  11.8946
    12.5976  12.7640  13.2484  13.2702  13.9099  14.1159  14.7481  14.8639
    14.9681  15.4578  15.6307  15.8806  15.8967  16.1476  16.3940  16.4465
    16.6664  16.7240  16.9316  16.9777  17.1841  17.2292  17.6538  17.8627
    17.9964  18.0791  18.2240  18.3437  18.5334  18.5938  18.7737  18.9617
    19.0064  19.1615  19.2089  19.4298

     occupation numbers 
     1.0000   1.0000   1.0000   1.0000   1.0000   1.0000   1.0000   1.0000
     1.0000   1.0000   1.0000   1.0000   1.0000   1.0000   1.0000   1.0000
     1.0000   1.0000   1.0000   1.0000   1.0000   1.0000   1.0000   1.0000
     1.0000   1.0000   1.0000   1.0000   1.0000   1.0000   1.0000   1.0000
     1.0000   1.0000   1.0000   1.0000   1.0000   1.0000   1.0000   0.0000
     0.0000   0.0000   0.0000   0.0000   0.0000   0.0000   0.0000   0.0000
     0.0000   0.0000   0.0000   0.0000   0.0000   0.0000   0.0000   0.0000
     0.0000   0.0000   0.0000   0.0000   0.0000   0.0000   0.0000   0.0000
     0.0000   0.0000   0.0000   0.0000   0.0000   0.0000   0.0000   0.0000
     0.0000   0.0000   0.0000   0.0000   0.0000   0.0000   0.0000   0.0000
     0.0000   0.0000   0.0000   0.0000   0.0000   0.0000   0.0000   0.0000
     0.0000   0.0000   0.0000   0.0000   0.0000   0.0000   0.0000   0.0000
     0.0000   0.0000   0.0000   0.0000

          k = 0.1538 0.0888 0.0000 ( 24463 PWs)   bands (ev):

   -36.5956 -36.5950 -36.5890 -36.5883 -36.5535 -36.5527 -36.5471 -36.5466
   -36.5296 -36.5290 -36.3028 -36.2973 -36.2968 -36.2707 -36.2680 -29.2905
   -29.2881 -29.2878 -29.2855 -29.2689 -29.2663 -29.2566 -29.2544 -29.2476
   -29.2452 -12.6671 -12.1144 -10.9627  -8.0444  -6.9196  -2.6408  -1.8926
    -1.6489  -1.6121  -1.1502  -0.8882   0.0339   0.3252   0.7071   2.5062
     2.7276   2.8909   3.7368   3.8421   4.2704   6.4801   6.5154   7.1276
     7.6666   7.8396   8.6949   8.7951   8.9202   9.0848   9.7883   9.8876
    10.0129  10.6788  10.8995  11.1509  11.4883  11.9268  12.0241  12.1749
    12.7211  13.0372  13.1928  13.4321  13.6087  14.0499  14.2452  14.3882
    14.6761  14.8765  15.3178  15.5204  15.9896  16.1076  16.2411  16.2994
    16.3404  16.5959  16.7606  16.8241  17.0301  17.4695  17.9580  18.0201
    18.2147  18.3864  18.5087  18.6271  18.7165  19.1352  19.2716  19.2822
    19.4955  19.5228  19.6949  19.7973

     occupation numbers 
     1.0000   1.0000   1.0000   1.0000   1.0000   1.0000   1.0000   1.0000
     1.0000   1.0000   1.0000   1.0000   1.0000   1.0000   1.0000   1.0000
     1.0000   1.0000   1.0000   1.0000   1.0000   1.0000   1.0000   1.0000
     1.0000   1.0000   1.0000   1.0000   1.0000   1.0000   1.0000   1.0000
     1.0000   1.0000   1.0000   1.0000   1.0000   1.0000   1.0000   0.0000
     0.0000   0.0000   0.0000   0.0000   0.0000   0.0000   0.0000   0.0000
     0.0000   0.0000   0.0000   0.0000   0.0000   0.0000   0.0000   0.0000
     0.0000   0.0000   0.0000   0.0000   0.0000   0.0000   0.0000   0.0000
     0.0000   0.0000   0.0000   0.0000   0.0000   0.0000   0.0000   0.0000
     0.0000   0.0000   0.0000   0.0000   0.0000   0.0000   0.0000   0.0000
     0.0000   0.0000   0.0000   0.0000   0.0000   0.0000   0.0000   0.0000
     0.0000   0.0000   0.0000   0.0000   0.0000   0.0000   0.0000   0.0000
     0.0000   0.0000   0.0000   0.0000

          k = 0.1538 0.1803 0.0000 ( 24472 PWs)   bands (ev):

   -36.5941 -36.5935 -36.5866 -36.5860 -36.5495 -36.5487 -36.5413 -36.5410
   -36.5246 -36.5241 -36.3021 -36.2993 -36.2920 -36.2636 -36.2617 -29.2926
   -29.2902 -29.2776 -29.2750 -29.2685 -29.2662 -29.2588 -29.2563 -29.2482
   -29.2456 -12.4883 -11.9524 -10.8723  -8.1397  -7.2285  -2.9946  -2.4002
    -2.0204  -1.6575  -1.4255  -0.9095  -0.2343   0.2901   0.8229   2.4755
     2.8911   3.2119   3.7271   4.4276   4.5008   6.5818   6.6608   7.0712
     7.5932   7.8521   8.6469   8.8404   9.0726   9.4168   9.7747  10.0404
    10.4721  10.5734  11.1600  11.4674  11.7835  11.8228  12.4206  12.4859
    12.6930  13.1002  13.4052  13.5308  13.6995  13.7924  14.0365  14.2933
    14.4291  14.7813  14.9819  15.1951  15.7415  15.8286  16.0982  16.1956
    16.3826  16.9104  16.9840  17.2096  17.3252  17.3983  17.5182  17.7395
    18.2925  18.4948  18.6336  18.6638  18.7117  18.8474  19.0237  19.2372
    19.3648  19.5852  19.8714  19.9067

     occupation numbers 
     1.0000   1.0000   1.0000   1.0000   1.0000   1.0000   1.0000   1.0000
     1.0000   1.0000   1.0000   1.0000   1.0000   1.0000   1.0000   1.0000
     1.0000   1.0000   1.0000   1.0000   1.0000   1.0000   1.0000   1.0000
     1.0000   1.0000   1.0000   1.0000   1.0000   1.0000   1.0000   1.0000
     1.0000   1.0000   1.0000   1.0000   1.0000   1.0000   1.0000   0.0000
     0.0000   0.0000   0.0000   0.0000   0.0000   0.0000   0.0000   0.0000
     0.0000   0.0000   0.0000   0.0000   0.0000   0.0000   0.0000   0.0000
     0.0000   0.0000   0.0000   0.0000   0.0000   0.0000   0.0000   0.0000
     0.0000   0.0000   0.0000   0.0000   0.0000   0.0000   0.0000   0.0000
     0.0000   0.0000   0.0000   0.0000   0.0000   0.0000   0.0000   0.0000
     0.0000   0.0000   0.0000   0.0000   0.0000   0.0000   0.0000   0.0000
     0.0000   0.0000   0.0000   0.0000   0.0000   0.0000   0.0000   0.0000
     0.0000   0.0000   0.0000   0.0000

          k = 0.1538 0.2718 0.0000 ( 24486 PWs)   bands (ev):

   -36.5874 -36.5868 -36.5827 -36.5821 -36.5431 -36.5422 -36.5342 -36.5338
   -36.5136 -36.5131 -36.3016 -36.2997 -36.2844 -36.2527 -36.2502 -29.2900
   -29.2875 -29.2788 -29.2763 -29.2702 -29.2679 -29.2612 -29.2586 -29.2573
   -29.2548 -12.2062 -11.6979 -10.7383  -8.3064  -7.6632  -3.2362  -3.1312
    -2.2574  -1.9926  -1.7002  -1.2693  -0.2270   0.3862   0.5684   2.5997
     3.1523   3.2528   3.9433   4.7815   4.9673   6.7923   6.8232   7.1519
     7.4445   8.1511   8.3615   8.8555   9.3833   9.9506  10.2020  10.3417
    10.4974  11.0023  11.3514  11.4351  12.1304  12.2927  12.5970  12.6364
    12.7240  12.9800  13.1577  13.3691  13.6201  13.7124  13.7468  14.2766
    14.6220  14.8742  15.1360  15.2806  15.5472  15.6746  15.7902  16.0596
    16.4765  16.6076  16.8712  17.0769  17.1730  17.4856  17.9050  18.0276
    18.0915  18.2613  18.3154  18.4243  18.5304  18.7497  18.8225  18.9281
    19.2095  19.7619  20.0686  20.2116

     occupation numbers 
     1.0000   1.0000   1.0000   1.0000   1.0000   1.0000   1.0000   1.0000
     1.0000   1.0000   1.0000   1.0000   1.0000   1.0000   1.0000   1.0000
     1.0000   1.0000   1.0000   1.0000   1.0000   1.0000   1.0000   1.0000
     1.0000   1.0000   1.0000   1.0000   1.0000   1.0000   1.0000   1.0000
     1.0000   1.0000   1.0000   1.0000   1.0000   1.0000   1.0000   0.0000
     0.0000   0.0000   0.0000   0.0000   0.0000   0.0000   0.0000   0.0000
     0.0000   0.0000   0.0000   0.0000   0.0000   0.0000   0.0000   0.0000
     0.0000   0.0000   0.0000   0.0000   0.0000   0.0000   0.0000   0.0000
     0.0000   0.0000   0.0000   0.0000   0.0000   0.0000   0.0000   0.0000
     0.0000   0.0000   0.0000   0.0000   0.0000   0.0000   0.0000   0.0000
     0.0000   0.0000   0.0000   0.0000   0.0000   0.0000   0.0000   0.0000
     0.0000   0.0000   0.0000   0.0000   0.0000   0.0000   0.0000   0.0000
     0.0000   0.0000   0.0000   0.0000

          k = 0.1538 0.3633 0.0000 ( 24522 PWs)   bands (ev):

   -36.5798 -36.5792 -36.5750 -36.5744 -36.5418 -36.5409 -36.5297 -36.5293
   -36.5125 -36.5120 -36.2988 -36.2986 -36.2791 -36.2477 -36.2440 -29.2858
   -29.2834 -29.2776 -29.2753 -29.2697 -29.2673 -29.2616 -29.2591 -29.2569
   -29.2544 -11.8490 -11.3996 -10.6243  -8.5524  -8.1442  -3.7003  -3.3483
    -2.6000  -2.3484  -1.9557  -1.4822  -0.2087   0.0630   0.5186   2.6654
     3.2063   3.3753   4.2610   4.9312   5.3519   6.5708   7.2336   7.5026
     7.7492   8.2298   8.5880   9.0643   9.6349   9.9313  10.5705  10.6734
    10.9989  11.2523  11.3302  11.9522  12.0213  12.1761  12.4008  12.6363
    12.8009  12.9561  13.0418  13.3298  13.3542  13.5499  14.2913  14.4014
    14.5341  14.7711  14.9812  15.2282  15.3589  15.6479  15.8665  16.1760
    16.4327  16.5688  16.9030  17.0457  17.2421  17.4062  17.6647  17.7682
    17.8891  18.0011  18.0256  18.3468  18.6868  19.1249  19.4820  19.6170
    19.6760  19.7147  19.8227  19.9632

     occupation numbers 
     1.0000   1.0000   1.0000   1.0000   1.0000   1.0000   1.0000   1.0000
     1.0000   1.0000   1.0000   1.0000   1.0000   1.0000   1.0000   1.0000
     1.0000   1.0000   1.0000   1.0000   1.0000   1.0000   1.0000   1.0000
     1.0000   1.0000   1.0000   1.0000   1.0000   1.0000   1.0000   1.0000
     1.0000   1.0000   1.0000   1.0000   1.0000   1.0000   1.0000   0.0000
     0.0000   0.0000   0.0000   0.0000   0.0000   0.0000   0.0000   0.0000
     0.0000   0.0000   0.0000   0.0000   0.0000   0.0000   0.0000   0.0000
     0.0000   0.0000   0.0000   0.0000   0.0000   0.0000   0.0000   0.0000
     0.0000   0.0000   0.0000   0.0000   0.0000   0.0000   0.0000   0.0000
     0.0000   0.0000   0.0000   0.0000   0.0000   0.0000   0.0000   0.0000
     0.0000   0.0000   0.0000   0.0000   0.0000   0.0000   0.0000   0.0000
     0.0000   0.0000   0.0000   0.0000   0.0000   0.0000   0.0000   0.0000
     0.0000   0.0000   0.0000   0.0000

          k = 0.1538 0.4548 0.0000 ( 24526 PWs)   bands (ev):

   -36.5752 -36.5745 -36.5712 -36.5705 -36.5403 -36.5393 -36.5246 -36.5243
   -36.5151 -36.5145 -36.2980 -36.2965 -36.2758 -36.2452 -36.2401 -29.2836
   -29.2812 -29.2767 -29.2744 -29.2689 -29.2666 -29.2591 -29.2570 -29.2527
   -29.2500 -11.4364 -11.0930 -10.5803  -8.8866  -8.5532  -4.0858  -3.3768
    -2.8437  -2.7256  -2.0293  -1.6455  -0.4024  -0.0769   0.4843   2.6250
     3.2018   3.4948   4.4343   4.9980   5.6039   6.3357   7.5810   7.9294
     8.3481   8.4692   9.1088   9.2659   9.8719   9.9805  10.3927  10.7389
    11.0744  11.2846  11.4828  11.6949  11.8899  12.1223  12.4141  12.6826
    12.7705  12.9670  13.1234  13.3512  13.4996  13.7160  13.9823  14.1414
    14.4338  14.5991  14.8134  15.3217  15.5407  15.9162  16.0820  16.2303
    16.5553  16.7017  17.1037  17.1761  17.2444  17.4732  17.5842  17.6167
    17.9210  18.2053  18.2297  18.4881  18.5705  18.8208  19.2296  19.4515
[...]
     1.0000   1.0000   1.0000   1.0000   1.0000   1.0000   1.0000   1.0000
     1.0000   1.0000   1.0000   1.0000   1.0000   1.0000   1.0000   0.0000
     0.0000   0.0000   0.0000   0.0000   0.0000   0.0000   0.0000   0.0000
     0.0000   0.0000   0.0000   0.0000   0.0000   0.0000   0.0000   0.0000
     0.0000   0.0000   0.0000   0.0000   0.0000   0.0000   0.0000   0.0000
     0.0000   0.0000   0.0000   0.0000   0.0000   0.0000   0.0000   0.0000
     0.0000   0.0000   0.0000   0.0000   0.0000   0.0000   0.0000   0.0000
     0.0000   0.0000   0.0000   0.0000   0.0000   0.0000   0.0000   0.0000
     0.0000   0.0000   0.0000   0.0000   0.0000   0.0000   0.0000   0.0000
     0.0000   0.0000   0.0000   0.0000

          k = 0.4615 0.7239 0.0000 ( 24503 PWs)   bands (ev):

   -36.5838 -36.5780 -36.5751 -36.5693 -36.5449 -36.5361 -36.5322 -36.5239
   -36.5236 -36.5152 -36.2717 -36.2667 -36.2517 -36.2169 -36.2131 -29.2701
   -29.2650 -29.2591 -29.2577 -29.2537 -29.2474 -29.2458 -29.2392 -29.2353
   -29.2281 -11.0616 -10.9103 -10.6899  -9.1743  -8.7621  -4.2480  -3.3017
    -3.1495  -2.6424  -1.9959  -1.8688  -0.4183  -0.0586   0.5143   2.7945
     3.3195   3.4146   4.6687   5.1156   5.7117   6.2762   7.6661   8.3991
     8.6707   9.0196   9.2037   9.5459   9.8039  10.0272  10.3411  10.5159
    10.6574  10.8655  11.1774  11.7609  11.8199  12.1546  12.2843  12.5672
    12.6603  12.9415  13.2375  13.4016  13.4586  13.8963  14.3175  14.4345
    14.5487  14.7663  15.0958  15.2156  15.4718  15.7410  15.8450  16.1664
    16.4627  16.5568  17.1468  17.2591  17.3019  17.4395  17.6858  17.7564
    18.0490  18.2806  18.4305  18.5112  18.7335  18.9195  19.0496  19.2092
    19.3322  19.5125  19.7327  20.0319

     occupation numbers 
     1.0000   1.0000   1.0000   1.0000   1.0000   1.0000   1.0000   1.0000
     1.0000   1.0000   1.0000   1.0000   1.0000   1.0000   1.0000   1.0000
     1.0000   1.0000   1.0000   1.0000   1.0000   1.0000   1.0000   1.0000
     1.0000   1.0000   1.0000   1.0000   1.0000   1.0000   1.0000   1.0000
     1.0000   1.0000   1.0000   1.0000   1.0000   1.0000   1.0000   0.0000
     0.0000   0.0000   0.0000   0.0000   0.0000   0.0000   0.0000   0.0000
     0.0000   0.0000   0.0000   0.0000   0.0000   0.0000   0.0000   0.0000
     0.0000   0.0000   0.0000   0.0000   0.0000   0.0000   0.0000   0.0000
     0.0000   0.0000   0.0000   0.0000   0.0000   0.0000   0.0000   0.0000
     0.0000   0.0000   0.0000   0.0000   0.0000   0.0000   0.0000   0.0000
     0.0000   0.0000   0.0000   0.0000   0.0000   0.0000   0.0000   0.0000
     0.0000   0.0000   0.0000   0.0000   0.0000   0.0000   0.0000   0.0000
     0.0000   0.0000   0.0000   0.0000

          k = 0.4615 0.8154 0.0000 ( 24536 PWs)   bands (ev):

   -36.5836 -36.5756 -36.5748 -36.5668 -36.5453 -36.5366 -36.5344 -36.5259
   -36.5257 -36.5172 -36.2715 -36.2692 -36.2460 -36.2177 -36.2115 -29.2754
   -29.2691 -29.2642 -29.2589 -29.2578 -29.2482 -29.2463 -29.2368 -29.2357
   -29.2257 -11.0019 -10.9671 -10.8557  -9.1974  -8.5970  -4.3827  -3.0197
    -2.8851  -2.6746  -2.0663  -1.4910  -0.3773  -0.2770   0.3455   2.8065
     2.9046   3.3805   4.7163   4.8091   5.7379   5.8010   7.4996   8.5346
     8.7929   8.8423   8.9932   9.8114   9.8734   9.9559  10.5875  10.7498
    11.1600  11.3895  11.6424  11.8851  12.0369  12.2162  12.5268  12.6818
    12.7698  12.8215  13.2894  13.3942  13.8876  14.0011  14.3051  14.4656
    14.5775  14.8193  14.8544  14.8806  15.2507  15.3518  15.6060  15.9151
    16.0975  16.1951  16.4329  16.6359  16.9503  17.2717  17.3167  17.6667
    18.0856  18.3432  18.5095  18.6167  18.7242  18.7994  18.9032  19.2284
    19.3078  19.4411  19.5194  19.6932

     occupation numbers 
     1.0000   1.0000   1.0000   1.0000   1.0000   1.0000   1.0000   1.0000
     1.0000   1.0000   1.0000   1.0000   1.0000   1.0000   1.0000   1.0000
     1.0000   1.0000   1.0000   1.0000   1.0000   1.0000   1.0000   1.0000
     1.0000   1.0000   1.0000   1.0000   1.0000   1.0000   1.0000   1.0000
     1.0000   1.0000   1.0000   1.0000   1.0000   1.0000   1.0000   0.0000
     0.0000   0.0000   0.0000   0.0000   0.0000   0.0000   0.0000   0.0000
     0.0000   0.0000   0.0000   0.0000   0.0000   0.0000   0.0000   0.0000
     0.0000   0.0000   0.0000   0.0000   0.0000   0.0000   0.0000   0.0000
     0.0000   0.0000   0.0000   0.0000   0.0000   0.0000   0.0000   0.0000
     0.0000   0.0000   0.0000   0.0000   0.0000   0.0000   0.0000   0.0000
     0.0000   0.0000   0.0000   0.0000   0.0000   0.0000   0.0000   0.0000
     0.0000   0.0000   0.0000   0.0000   0.0000   0.0000   0.0000   0.0000
     0.0000   0.0000   0.0000   0.0000

          k = 0.4615-0.2825 0.0000 ( 24507 PWs)   bands (ev):

   -36.5848 -36.5762 -36.5760 -36.5674 -36.5466 -36.5379 -36.5341 -36.5255
   -36.5253 -36.5166 -36.2726 -36.2695 -36.2436 -36.2204 -36.2125 -29.2766
   -29.2709 -29.2654 -29.2597 -29.2590 -29.2479 -29.2473 -29.2364 -29.2358
   -29.2247 -11.1699 -11.0175 -10.7985  -9.1464  -8.4906  -4.3943  -2.9349
    -2.7443  -2.6196  -2.0316  -1.4073  -0.3717  -0.2497   0.1928   2.5412
     3.0715   3.3874   4.5712   4.7866   5.6291   5.7809   7.4324   8.3501
     8.6158   8.9723   9.1780   9.5378   9.9418  10.1817  10.6179  10.9986
    11.2544  11.5628  11.6287  11.9757  12.0929  12.1544  12.3720  12.5846
    12.8614  13.0748  13.3331  13.5426  13.8603  14.0948  14.2717  14.4783
    14.5337  14.6807  14.7514  15.0143  15.1718  15.2920  15.4743  15.5946
    15.8276  16.0693  16.5504  16.8155  16.9042  17.1238  17.3869  17.6061
    17.8564  18.0273  18.1380  18.3077  18.5643  18.7652  18.8969  19.0132
    19.1652  19.8339  19.8897  19.9204

     occupation numbers 
     1.0000   1.0000   1.0000   1.0000   1.0000   1.0000   1.0000   1.0000
     1.0000   1.0000   1.0000   1.0000   1.0000   1.0000   1.0000   1.0000
     1.0000   1.0000   1.0000   1.0000   1.0000   1.0000   1.0000   1.0000
     1.0000   1.0000   1.0000   1.0000   1.0000   1.0000   1.0000   1.0000
     1.0000   1.0000   1.0000   1.0000   1.0000   1.0000   1.0000   0.0000
     0.0000   0.0000   0.0000   0.0000   0.0000   0.0000   0.0000   0.0000
     0.0000   0.0000   0.0000   0.0000   0.0000   0.0000   0.0000   0.0000
     0.0000   0.0000   0.0000   0.0000   0.0000   0.0000   0.0000   0.0000
     0.0000   0.0000   0.0000   0.0000   0.0000   0.0000   0.0000   0.0000
     0.0000   0.0000   0.0000   0.0000   0.0000   0.0000   0.0000   0.0000
     0.0000   0.0000   0.0000   0.0000   0.0000   0.0000   0.0000   0.0000
     0.0000   0.0000   0.0000   0.0000   0.0000   0.0000   0.0000   0.0000
     0.0000   0.0000   0.0000   0.0000

          k = 0.4615-0.1910 0.0000 ( 24479 PWs)   bands (ev):

   -36.5846 -36.5771 -36.5758 -36.5683 -36.5446 -36.5365 -36.5358 -36.5279
   -36.5254 -36.5167 -36.2703 -36.2686 -36.2475 -36.2193 -36.2132 -29.2755
   -29.2690 -29.2644 -29.2596 -29.2577 -29.2490 -29.2468 -29.2374 -29.2362
   -29.2262 -11.3453 -11.0814 -10.6734  -9.0391  -8.4785  -4.2827  -2.9899
    -2.8612  -2.6038  -1.9654  -1.4627  -0.4387  -0.1824   0.4131   2.8167
     2.8971   3.4405   4.6389   4.8252   5.6715   5.9387   7.4403   8.0926
     8.4113   9.1190   9.3542   9.3662   9.9170  10.2326  10.5404  10.7143
    11.1422  11.2317  11.5061  11.6963  11.8775  12.1350  12.3156  12.6576
    12.7780  12.8686  13.2406  13.2900  13.6079  13.9629  14.0482  14.4716
    14.5446  14.8126  15.0454  15.3080  15.4528  15.5912  15.9122  15.9823
    16.1890  16.3331  16.3964  16.7830  17.1583  17.2834  17.3308  17.5171
    17.7442  17.9134  18.2338  18.2583  18.5264  18.6928  18.7395  19.1317
    19.3451  19.4421  19.6236  20.0256

     occupation numbers 
     1.0000   1.0000   1.0000   1.0000   1.0000   1.0000   1.0000   1.0000
     1.0000   1.0000   1.0000   1.0000   1.0000   1.0000   1.0000   1.0000
     1.0000   1.0000   1.0000   1.0000   1.0000   1.0000   1.0000   1.0000
     1.0000   1.0000   1.0000   1.0000   1.0000   1.0000   1.0000   1.0000
     1.0000   1.0000   1.0000   1.0000   1.0000   1.0000   1.0000   0.0000
     0.0000   0.0000   0.0000   0.0000   0.0000   0.0000   0.0000   0.0000
     0.0000   0.0000   0.0000   0.0000   0.0000   0.0000   0.0000   0.0000
     0.0000   0.0000   0.0000   0.0000   0.0000   0.0000   0.0000   0.0000
     0.0000   0.0000   0.0000   0.0000   0.0000   0.0000   0.0000   0.0000
     0.0000   0.0000   0.0000   0.0000   0.0000   0.0000   0.0000   0.0000
     0.0000   0.0000   0.0000   0.0000   0.0000   0.0000   0.0000   0.0000
     0.0000   0.0000   0.0000   0.0000   0.0000   0.0000   0.0000   0.0000
     0.0000   0.0000   0.0000   0.0000

          k = 0.4615-0.0995 0.0000 ( 24518 PWs)   bands (ev):

   -36.5854 -36.5796 -36.5766 -36.5708 -36.5465 -36.5377 -36.5345 -36.5260
   -36.5246 -36.5160 -36.2719 -36.2668 -36.2552 -36.2192 -36.2158 -29.2700
   -29.2642 -29.2592 -29.2582 -29.2530 -29.2484 -29.2470 -29.2404 -29.2367
   -29.2293 -11.4617 -11.1277 -10.5902  -8.8912  -8.5387  -4.0572  -3.3260
    -2.8180  -2.6961  -1.9864  -1.6573  -0.3487   0.0024   0.5818   2.7310
     3.3401   3.5505   4.4945   5.1136   5.6364   6.4278   7.5779   7.8880
     8.3163   8.5546   9.0560   9.2614   9.8264   9.9884  10.3677  10.6878
    11.0531  11.2210  11.3776  11.6217  11.8694  12.1039  12.2961  12.6742
    12.7848  12.9262  13.1295  13.2493  13.5280  13.6170  13.9103  14.1252
    14.4080  14.5270  14.8080  15.2601  15.3463  15.9278  16.0176  16.1101
    16.6461  16.7754  17.0597  17.0951  17.2191  17.2583  17.7143  17.7479
    18.0001  18.1565  18.2103  18.4988  18.6029  18.8738  19.2219  19.3321
    19.5113  19.8796  20.1120  20.2256

     occupation numbers 
     1.0000   1.0000   1.0000   1.0000   1.0000   1.0000   1.0000   1.0000
     1.0000   1.0000   1.0000   1.0000   1.0000   1.0000   1.0000   1.0000
     1.0000   1.0000   1.0000   1.0000   1.0000   1.0000   1.0000   1.0000
     1.0000   1.0000   1.0000   1.0000   1.0000   1.0000   1.0000   1.0000
     1.0000   1.0000   1.0000   1.0000   1.0000   1.0000   1.0000   0.0000
     0.0000   0.0000   0.0000   0.0000   0.0000   0.0000   0.0000   0.0000
     0.0000   0.0000   0.0000   0.0000   0.0000   0.0000   0.0000   0.0000
     0.0000   0.0000   0.0000   0.0000   0.0000   0.0000   0.0000   0.0000
     0.0000   0.0000   0.0000   0.0000   0.0000   0.0000   0.0000   0.0000
     0.0000   0.0000   0.0000   0.0000   0.0000   0.0000   0.0000   0.0000
     0.0000   0.0000   0.0000   0.0000   0.0000   0.0000   0.0000   0.0000
     0.0000   0.0000   0.0000   0.0000   0.0000   0.0000   0.0000   0.0000
     0.0000   0.0000   0.0000   0.0000

          k = 0.4615-0.0080 0.0000 ( 24541 PWs)   bands (ev):

   -36.5886 -36.5798 -36.5721 -36.5634 -36.5451 -36.5363 -36.5360 -36.5274
   -36.5235 -36.5148 -36.2707 -36.2642 -36.2569 -36.2172 -36.2149 -29.2671
   -29.2644 -29.2581 -29.2559 -29.2532 -29.2511 -29.2490 -29.2470 -29.2401
   -29.2380 -11.5037 -11.1477 -10.5599  -8.8074  -8.5981  -3.7877  -3.6885
    -2.7836  -2.4621  -2.3534  -1.6514  -0.2208   0.2821   0.3861   3.1171
     3.2034   3.5570   4.6657   5.2386   5.5087   7.1882   7.3504   7.7499
     7.9097   8.4176   8.8586   9.0146   9.7916   9.8499  10.4915  10.7403
    10.9243  11.0941  11.5651  11.6839  11.7214  12.3005  12.3631  12.4554
    12.6470  12.8938  13.0626  13.4060  13.4614  13.8908  14.0923  14.1857
    14.2455  14.4957  14.5406  14.8325  15.1970  15.5002  16.0058  16.4324
    16.6791  16.9060  17.0450  17.1214  17.1767  17.5740  17.8295  17.9489
    18.2186  18.3031  18.5829  18.8564  19.1690  19.3075  19.3832  19.4621
    19.6126  19.7984  20.1739  20.2156

     occupation numbers 
     1.0000   1.0000   1.0000   1.0000   1.0000   1.0000   1.0000   1.0000
     1.0000   1.0000   1.0000   1.0000   1.0000   1.0000   1.0000   1.0000
     1.0000   1.0000   1.0000   1.0000   1.0000   1.0000   1.0000   1.0000
     1.0000   1.0000   1.0000   1.0000   1.0000   1.0000   1.0000   1.0000
     1.0000   1.0000   1.0000   1.0000   1.0000   1.0000   1.0000   0.0000
     0.0000   0.0000   0.0000   0.0000   0.0000   0.0000   0.0000   0.0000
     0.0000   0.0000   0.0000   0.0000   0.0000   0.0000   0.0000   0.0000
     0.0000   0.0000   0.0000   0.0000   0.0000   0.0000   0.0000   0.0000
     0.0000   0.0000   0.0000   0.0000   0.0000   0.0000   0.0000   0.0000
     0.0000   0.0000   0.0000   0.0000   0.0000   0.0000   0.0000   0.0000
     0.0000   0.0000   0.0000   0.0000   0.0000   0.0000   0.0000   0.0000
     0.0000   0.0000   0.0000   0.0000   0.0000   0.0000   0.0000   0.0000
     0.0000   0.0000   0.0000   0.0000

          k = 0.4615 0.0835 0.0000 ( 24528 PWs)   bands (ev):

   -36.5869 -36.5798 -36.5781 -36.5711 -36.5446 -36.5372 -36.5359 -36.5286
   -36.5254 -36.5168 -36.2721 -36.2635 -36.2597 -36.2194 -36.2161 -29.2681
   -29.2648 -29.2588 -29.2568 -29.2535 -29.2500 -29.2475 -29.2389 -29.2382
   -29.2273 -11.4800 -11.1527 -10.6160  -8.9151  -8.5294  -4.0582  -3.3128
    -2.7860  -2.6626  -1.9998  -1.6080  -0.3162   0.0299   0.6530   2.8372
     3.4191   3.5261   4.5322   5.1951   5.6097   6.4832   7.5571   7.8617
     8.3088   8.4141   9.0203   9.1740   9.7516   9.9913  10.3255  10.6287
    11.0671  11.1249  11.4104  11.5470  11.9201  12.2338  12.4441  12.6838
    12.8827  13.0653  13.2060  13.2515  13.4822  13.5970  13.8916  14.0892
    14.3578  14.5872  14.9116  15.2717  15.3991  15.8361  15.9507  16.0749
    16.5321  16.8777  16.9523  17.1180  17.2082  17.2674  17.6960  17.8234
    18.0371  18.1606  18.2533  18.3846  18.4409  18.6715  19.1239  19.3417
    19.3982  19.9087  19.9764  20.1460

     occupation numbers 
     1.0000   1.0000   1.0000   1.0000   1.0000   1.0000   1.0000   1.0000
     1.0000   1.0000   1.0000   1.0000   1.0000   1.0000   1.0000   1.0000
     1.0000   1.0000   1.0000   1.0000   1.0000   1.0000   1.0000   1.0000
     1.0000   1.0000   1.0000   1.0000   1.0000   1.0000   1.0000   1.0000
     1.0000   1.0000   1.0000   1.0000   1.0000   1.0000   1.0000   0.0000
     0.0000   0.0000   0.0000   0.0000   0.0000   0.0000   0.0000   0.0000
     0.0000   0.0000   0.0000   0.0000   0.0000   0.0000   0.0000   0.0000
     0.0000   0.0000   0.0000   0.0000   0.0000   0.0000   0.0000   0.0000
     0.0000   0.0000   0.0000   0.0000   0.0000   0.0000   0.0000   0.0000
     0.0000   0.0000   0.0000   0.0000   0.0000   0.0000   0.0000   0.0000
     0.0000   0.0000   0.0000   0.0000   0.0000   0.0000   0.0000   0.0000
     0.0000   0.0000   0.0000   0.0000   0.0000   0.0000   0.0000   0.0000
     0.0000   0.0000   0.0000   0.0000

          k = 0.4615 0.1750 0.0000 ( 24566 PWs)   bands (ev):

   -36.5872 -36.5788 -36.5784 -36.5701 -36.5424 -36.5397 -36.5337 -36.5311
   -36.5259 -36.5173 -36.2696 -36.2644 -36.2543 -36.2207 -36.2149 -29.2734
   -29.2694 -29.2622 -29.2596 -29.2581 -29.2496 -29.2478 -29.2379 -29.2344
   -29.2233 -11.3824 -11.1289 -10.7162  -9.0646  -8.4767  -4.2789  -3.0130
    -2.7926  -2.5348  -1.9157  -1.4162  -0.3835  -0.1225   0.5290   2.9304
     3.0297   3.4538   4.6688   4.9427   5.6836   5.9585   7.3987   8.0541
     8.3855   9.0396   9.2493   9.3107   9.8633  10.1400  10.4808  10.6158
    11.0189  11.2462  11.5889  11.7637  11.9373  12.2039  12.2937  12.7325
    12.8339  12.8864  13.2645  13.3657  13.7647  13.9747  14.1133  14.4490
    14.5442  14.7821  15.0786  15.2741  15.4461  15.5451  15.8345  16.0803
    16.2885  16.3082  16.4618  16.7410  17.0145  17.1855  17.2583  17.4693
    17.6010  17.7418  18.1255  18.1993  18.3479  18.7445  18.8687  19.1318
    19.2875  19.4258  19.5907  19.7934

     occupation numbers 
     1.0000   1.0000   1.0000   1.0000   1.0000   1.0000   1.0000   1.0000
     1.0000   1.0000   1.0000   1.0000   1.0000   1.0000   1.0000   1.0000
     1.0000   1.0000   1.0000   1.0000   1.0000   1.0000   1.0000   1.0000
     1.0000   1.0000   1.0000   1.0000   1.0000   1.0000   1.0000   1.0000
     1.0000   1.0000   1.0000   1.0000   1.0000   1.0000   1.0000   0.0000
     0.0000   0.0000   0.0000   0.0000   0.0000   0.0000   0.0000   0.0000
     0.0000   0.0000   0.0000   0.0000   0.0000   0.0000   0.0000   0.0000
     0.0000   0.0000   0.0000   0.0000   0.0000   0.0000   0.0000   0.0000
     0.0000   0.0000   0.0000   0.0000   0.0000   0.0000   0.0000   0.0000
     0.0000   0.0000   0.0000   0.0000   0.0000   0.0000   0.0000   0.0000
     0.0000   0.0000   0.0000   0.0000   0.0000   0.0000   0.0000   0.0000
     0.0000   0.0000   0.0000   0.0000   0.0000   0.0000   0.0000   0.0000
     0.0000   0.0000   0.0000   0.0000

     highest occupied, lowest unoccupied level (ev):     0.8586    1.9634

     Writing all to output data dir tmp/Sb2Te3-uatsx-c4-3.0.save/ :
     XML data file, pseudopotentials, collected wavefunctions

     init_run     :     12.27s CPU     12.69s WALL (       1 calls)
     electrons    :    849.27s CPU    859.47s WALL (       1 calls)

     Called by init_run:
     aceinit0     :     11.48s CPU     11.85s WALL (       1 calls)
     wfcinit      :      0.00s CPU      0.03s WALL (       1 calls)
     wfcinit:wfcr :      5.72s CPU      5.84s WALL (      86 calls)
     potinit      :      0.59s CPU      0.60s WALL (       1 calls)
     hinit0       :      0.15s CPU      0.15s WALL (       1 calls)

     Called by electrons:
     c_bands      :    257.41s CPU    261.26s WALL (       2 calls)
     sum_band     :      1.02s CPU      1.06s WALL (       1 calls)
     v_of_rho     :      0.02s CPU      0.02s WALL (       2 calls)
     v_h          :      0.00s CPU      0.00s WALL (       2 calls)
     v_xc         :      0.02s CPU      0.02s WALL (       2 calls)

     Called by c_bands:
     init_us_2    :      0.03s CPU      0.04s WALL (     129 calls)
     cegterg      :    235.58s CPU    239.11s WALL (     261 calls)

     Called by sum_band:
     sum_band:wei :      0.00s CPU      0.00s WALL (       1 calls)
     sum_band:loo :      1.01s CPU      1.05s WALL (       1 calls)
     sum_band:buf :      0.01s CPU      0.01s WALL (      43 calls)
     sum_band:ini :      0.01s CPU      0.01s WALL (      43 calls)

     Called by *egterg:
     cdiaghg      :     72.77s CPU     73.25s WALL (    4467 calls)
     cegterg:over :     16.67s CPU     16.87s WALL (    4381 calls)
     cegterg:upda :      3.78s CPU      3.86s WALL (    4381 calls)
     cegterg:last :      7.31s CPU      7.38s WALL (    2315 calls)
     h_psi        :    131.48s CPU    134.18s WALL (    4728 calls)
     g_psi        :      0.71s CPU      0.72s WALL (    4381 calls)

     Called by h_psi:
     h_psi:calbec :      6.75s CPU      6.83s WALL (    4728 calls)
     vloc_psi     :    112.16s CPU    114.64s WALL (    4728 calls)
     add_vuspsi   :      1.77s CPU      1.79s WALL (    4728 calls)

     General routines
     calbec       :     14.95s CPU     15.13s WALL (    9499 calls)
     fft          :      0.16s CPU      0.16s WALL (      19 calls)
     ffts         :      0.00s CPU      0.00s WALL (       1 calls)
     fftw         :    108.59s CPU    110.98s WALL (  475642 calls)
     fftc         :    462.37s CPU    467.15s WALL (  860000 calls)
     fftcw        :      4.82s CPU      4.90s WALL (   12900 calls)
     davcio       :      0.04s CPU      0.05s WALL (     258 calls)

     Parallel routines

     EXX routines
     exx_grid     :      0.01s CPU      0.02s WALL (       1 calls)
     exxinit      :     23.98s CPU     24.57s WALL (       1 calls)
     vexx         :    522.63s CPU    528.04s WALL (      43 calls)
     matcalc      :      8.25s CPU      8.34s WALL (    4771 calls)
     aceupdate    :      0.04s CPU      0.04s WALL (      43 calls)
     vexxace      :     10.48s CPU     10.60s WALL (    4728 calls)
     aceinit      :    522.80s CPU    528.22s WALL (      43 calls)

     PWSCF        :  14m44.14s CPU  15m37.85s WALL


   This run was terminated on:   5:24:53  20May2025            

=------------------------------------------------------------------------------=
   JOB DONE.
=------------------------------------------------------------------------------=
