
     Program PWSCF v.7.3.1 starts on 20May2025 at  6:38:26 

     This program is part of the open-source Quantum ESPRESSO suite
     for quantum simulation of materials; please cite
         "P. Giannozzi et al., J. Phys.:Condens. Matter 21 395502 (2009);
         "P. Giannozzi et al., J. Phys.:Condens. Matter 29 465901 (2017);
         "P. Giannozzi et al., J. Chem. Phys. 152 154105 (2020);
          URL http://www.quantum-espresso.org", 
     in publications or presentations arising from this work. More details at
     http://www.quantum-espresso.org/quote

     Parallel version (MPI & OpenMP), running on     168 processor cores
     Number of MPI processes:               168
     Threads/MPI process:                     1

     MPI processes distributed on     7 nodes
     94924 MiB available memory on the printing compute node when the environment starts

     Waiting for input...
     Reading input from standard input

     Current dimensions of program PWSCF are:
     Max number of different atomic species (ntypx) = 10
     Max number of k-points (npk) =  40000
     Max angular momentum in pseudopotentials (lmaxx) =  4

     IMPORTANT: XC functional enforced from input :
     Exchange-correlation= GAUP
                           (   1   4  20   4   0   0   0)
     EXX-fraction              =        0.24
     Any further DFT definition will be discarded
     Please, verify this is what you really want


     Atomic positions and unit cell read from directory:
     tmp/Sb2Te3-uatsx-c4-4.0.save/


     K-points division:     npool     =       2
     R & G space division:  proc/nbgrp/npool/nimage =      84
     Subspace diagonalization in iterative solution of the eigenvalue problem:
     a serial algorithm will be used

     EXX: q-point mesh:     1    1    1
     EXX: setup a grid of 85 q-points centered on each k-point
     (k+q)-points:
   0.0000000   0.0000000   0.0000000         1    1
   0.0000000   0.0923769   0.0000000         2    1
   0.0000000   0.1847539   0.0000000         3    1
   0.0000000   0.2771308   0.0000000         4    1
   0.0000000   0.3695077   0.0000000         5    1
   0.0000000   0.4618847   0.0000000         6    1
   0.0000000   0.5542616   0.0000000         7    1
   0.0769231   0.0444120   0.0000000         8    1
   0.0769231   0.1367889   0.0000000         9    1
   0.0769231   0.2291659   0.0000000        10    1
   0.0769231   0.3215428   0.0000000        11    1
   0.0769231   0.4139197   0.0000000        12    1
   0.0769231   0.5062967   0.0000000        13    1
   0.0769231   0.5986736   0.0000000        14    1
   0.0769231  -0.5098496   0.0000000        15    1
   0.0769231  -0.4174727   0.0000000        16    1
   0.0769231  -0.3250958   0.0000000        17    1
   0.0769231  -0.2327188   0.0000000        18    1
   0.0769231  -0.1403419   0.0000000        19    1
   0.0769231  -0.0479649   0.0000000        20    1
   0.1538462   0.0888240   0.0000000        21    1
   0.1538462   0.1812009   0.0000000        22    1
   0.1538462   0.2735779   0.0000000        23    1
   0.1538462   0.3659548   0.0000000        24    1
   0.1538462   0.4583317   0.0000000        25    1
   0.1538462   0.5507087   0.0000000        26    1
   0.1538462   0.6430856   0.0000000        27    1
   0.1538462  -0.4654376   0.0000000        28    1
   0.1538462  -0.3730607   0.0000000        29    1
   0.1538462  -0.2806838   0.0000000        30    1
   0.1538462  -0.1883068   0.0000000        31    1
   0.1538462  -0.0959299   0.0000000        32    1
   0.1538462  -0.0035530   0.0000000        33    1
   0.2307692   0.1332360   0.0000000        34    1
   0.2307692   0.2256129   0.0000000        35    1
   0.2307692   0.3179898   0.0000000        36    1
   0.2307692   0.4103668   0.0000000        37    1
   0.2307692   0.5027437   0.0000000        38    1
   0.2307692   0.5951206   0.0000000        39    1
   0.2307692   0.6874976   0.0000000        40    1
   0.2307692  -0.4210257   0.0000000        41    1
   0.2307692  -0.3286487   0.0000000        42    1
   0.2307692  -0.2362718   0.0000000        43    1
   0.2307692  -0.1438948   0.0000000        44    1
   0.2307692  -0.0515179   0.0000000        45    1
   0.2307692   0.0408590   0.0000000        46    1
   0.3076923   0.1776480   0.0000000        47    1
   0.3076923   0.2700249   0.0000000        48    1
   0.3076923   0.3624018   0.0000000        49    1
   0.3076923   0.4547788   0.0000000        50    1
   0.3076923   0.5471557   0.0000000        51    1
   0.3076923   0.6395326   0.0000000        52    1
   0.3076923   0.7319096   0.0000000        53    1
   0.3076923  -0.3766137   0.0000000        54    1
   0.3076923  -0.2842367   0.0000000        55    1
   0.3076923  -0.1918598   0.0000000        56    1
   0.3076923  -0.0994829   0.0000000        57    1
   0.3076923  -0.0071059   0.0000000        58    1
   0.3076923   0.0852710   0.0000000        59    1
   0.3846154   0.2220599   0.0000000        60    1
   0.3846154   0.3144369   0.0000000        61    1
   0.3846154   0.4068138   0.0000000        62    1
   0.3846154   0.4991908   0.0000000        63    1
   0.3846154   0.5915677   0.0000000        64    1
   0.3846154   0.6839446   0.0000000        65    1
   0.3846154   0.7763216   0.0000000        66    1
   0.3846154  -0.3322017   0.0000000        67    1
   0.3846154  -0.2398247   0.0000000        68    1
   0.3846154  -0.1474478   0.0000000        69    1
   0.3846154  -0.0550709   0.0000000        70    1
   0.3846154   0.0373061   0.0000000        71    1
   0.3846154   0.1296830   0.0000000        72    1
   0.4615385   0.2664719   0.0000000        73    1
   0.4615385   0.3588489   0.0000000        74    1
   0.4615385   0.4512258   0.0000000        75    1
   0.4615385   0.5436027   0.0000000        76    1
   0.4615385   0.6359797   0.0000000        77    1
   0.4615385   0.7283566   0.0000000        78    1
   0.4615385   0.8207336   0.0000000        79    1
   0.4615385  -0.2877897   0.0000000        80    1
   0.4615385  -0.1954128   0.0000000        81    1
   0.4615385  -0.1030358   0.0000000        82    1
   0.4615385  -0.0106589   0.0000000        83    1
   0.4615385   0.0817181   0.0000000        84    1
   0.4615385   0.1740950   0.0000000        85    1

     Parallelization info
     --------------------
     sticks:   dense  smooth     PW     G-vecs:    dense   smooth      PW
     Min          15      15      4                 2333     2333     358
     Max          16      16      5                 2372     2372     393
     Sum        1331    1331    391               198065   198065   31435

     Using Slab Decomposition



     bravais-lattice index     =            0
     lattice parameter (alat)  =       8.4715  a.u.
     unit-cell volume          =    2502.8602 (a.u.)^3
     number of atoms/cell      =            5
     number of atomic types    =            2
     number of electrons       =        78.00
     number of Kohn-Sham states=          100
     kinetic-energy cutoff     =      70.0000  Ry
     charge density cutoff     =     280.0000  Ry
     cutoff for Fock operator  =     280.0000  Ry
     Exchange-correlation= GAUP
                           (   1   4  20   4   0   0   0)
     EXX-fraction              =        0.24

     celldm(1)=   8.471459  celldm(2)=   0.000000  celldm(3)=   0.000000
     celldm(4)=   0.000000  celldm(5)=   0.000000  celldm(6)=   0.000000

     crystal axes: (cart. coord. in units of alat)
               a(1) = (   1.000000   0.000000   0.000000 )  
               a(2) = (  -0.480769   0.832709   0.000000 )  
               a(3) = (   0.000000   0.000000   4.943891 )  

     reciprocal axes: (cart. coord. in units 2 pi/alat)
               b(1) = (  1.000000  0.577356 -0.000000 )  
               b(2) = (  0.000000  1.200900  0.000000 )  
               b(3) = (  0.000000 -0.000000  0.202270 )  


     PseudoPot. # 1 for Sb read from file:
     /zfs-home/202401017n/pseudos/Sb_ONCV_PBE-1.2.upf
     MD5 check sum: 0417cd6c0fe8ce4611e2b23135f1abd9
     Pseudo is Norm-conserving, Zval = 15.0
     Generated using ONCVPSP code by D. R. Hamann
     Using radial grid of  602 points,  6 beta functions with: 
                l(1) =   0
                l(2) =   0
                l(3) =   1
                l(4) =   1
                l(5) =   2
                l(6) =   2

     PseudoPot. # 2 for Te read from file:
     /zfs-home/202401017n/pseudos/Te_ONCV_PBE-1.2.upf
     MD5 check sum: dd4de4dac1e38587f63aaf3700bb29d3
     Pseudo is Norm-conserving, Zval = 16.0
     Generated using ONCVPSP code by D. R. Hamann
     Using radial grid of  602 points,  6 beta functions with: 
                l(1) =   0
                l(2) =   0
                l(3) =   1
                l(4) =   1
                l(5) =   2
                l(6) =   2

     atomic species   valence    mass     pseudopotential
     Sb               15.00   121.76000     Sb( 1.00)
     Te               16.00   127.60000     Te( 1.00)

     No symmetry found


                                    s                        frac. trans.

      isym =  1     identity                                     

 cryst.   s( 1) = (     1          0          0      )
                  (     0          1          0      )
                  (     0          0          1      )

 cart.    s( 1) = (  1.0000000  0.0000000  0.0000000 )
                  (  0.0000000  1.0000000  0.0000000 )
                  (  0.0000000  0.0000000  1.0000000 )


   Cartesian axes

     site n.     atom                  positions (alat units)
         1        Sb     tau(   1) = (   0.5904646   0.4157527   2.9115514  )
         2        Te     tau(   2) = (   0.5755298   0.3904446   1.6605492  )
         3        Sb     tau(   3) = (   0.0721083   0.1184920   2.0322939  )
         4        Te     tau(   4) = (   0.0869606   0.1439524   3.2833161  )
         5        Te     tau(   5) = (   0.0908738   0.6835524   2.4719228  )

     -------------------------------------------------
     Parameters for Dispersion (Grimme-D2) Correction:
     -------------------------------------------------
       atom      VdW radius       C_6     

        Sb         3.555       1333.532
        Te         3.575       1101.101

   Crystallographic axes

     site n.     atom                  positions (cryst. coord.)
         1        Sb     tau(   1) = (  0.8305018  0.4992775  0.5889190  )
         2        Te     tau(   2) = (  0.8009552  0.4688850  0.3358790  )
         3        Sb     tau(   3) = (  0.1405204  0.1422971  0.4110717  )
         4        Te     tau(   4) = (  0.1700723  0.1728725  0.6641158  )
         5        Te     tau(   5) = (  0.4855268  0.8208782  0.4999954  )

     number of k points=    85
                       cart. coord. in units 2pi/alat
        k(    1) = (   0.0000000   0.0000000   0.0000000), wk =   0.0118343
        k(    2) = (   0.0000000   0.0923769   0.0000000), wk =   0.0236686
        k(    3) = (   0.0000000   0.1847539   0.0000000), wk =   0.0236686
        k(    4) = (   0.0000000   0.2771308   0.0000000), wk =   0.0236686
        k(    5) = (   0.0000000   0.3695077   0.0000000), wk =   0.0236686
        k(    6) = (   0.0000000   0.4618847   0.0000000), wk =   0.0236686
        k(    7) = (   0.0000000   0.5542616   0.0000000), wk =   0.0236686
        k(    8) = (   0.0769231   0.0444120   0.0000000), wk =   0.0236686
        k(    9) = (   0.0769231   0.1367889   0.0000000), wk =   0.0236686
        k(   10) = (   0.0769231   0.2291659   0.0000000), wk =   0.0236686
        k(   11) = (   0.0769231   0.3215428   0.0000000), wk =   0.0236686
        k(   12) = (   0.0769231   0.4139197   0.0000000), wk =   0.0236686
        k(   13) = (   0.0769231   0.5062967   0.0000000), wk =   0.0236686
        k(   14) = (   0.0769231   0.5986736   0.0000000), wk =   0.0236686
        k(   15) = (   0.0769231  -0.5098496   0.0000000), wk =   0.0236686
        k(   16) = (   0.0769231  -0.4174727   0.0000000), wk =   0.0236686
        k(   17) = (   0.0769231  -0.3250958   0.0000000), wk =   0.0236686
        k(   18) = (   0.0769231  -0.2327188   0.0000000), wk =   0.0236686
        k(   19) = (   0.0769231  -0.1403419   0.0000000), wk =   0.0236686
        k(   20) = (   0.0769231  -0.0479649   0.0000000), wk =   0.0236686
        k(   21) = (   0.1538462   0.0888240   0.0000000), wk =   0.0236686
        k(   22) = (   0.1538462   0.1812009   0.0000000), wk =   0.0236686
        k(   23) = (   0.1538462   0.2735779   0.0000000), wk =   0.0236686
        k(   24) = (   0.1538462   0.3659548   0.0000000), wk =   0.0236686
        k(   25) = (   0.1538462   0.4583317   0.0000000), wk =   0.0236686
        k(   26) = (   0.1538462   0.5507087   0.0000000), wk =   0.0236686
        k(   27) = (   0.1538462   0.6430856   0.0000000), wk =   0.0236686
        k(   28) = (   0.1538462  -0.4654376   0.0000000), wk =   0.0236686
        k(   29) = (   0.1538462  -0.3730607   0.0000000), wk =   0.0236686
        k(   30) = (   0.1538462  -0.2806838   0.0000000), wk =   0.0236686
        k(   31) = (   0.1538462  -0.1883068   0.0000000), wk =   0.0236686
        k(   32) = (   0.1538462  -0.0959299   0.0000000), wk =   0.0236686
        k(   33) = (   0.1538462  -0.0035530   0.0000000), wk =   0.0236686
        k(   34) = (   0.2307692   0.1332360   0.0000000), wk =   0.0236686
        k(   35) = (   0.2307692   0.2256129   0.0000000), wk =   0.0236686
        k(   36) = (   0.2307692   0.3179898   0.0000000), wk =   0.0236686
        k(   37) = (   0.2307692   0.4103668   0.0000000), wk =   0.0236686
        k(   38) = (   0.2307692   0.5027437   0.0000000), wk =   0.0236686
        k(   39) = (   0.2307692   0.5951206   0.0000000), wk =   0.0236686
        k(   40) = (   0.2307692   0.6874976   0.0000000), wk =   0.0236686
        k(   41) = (   0.2307692  -0.4210257   0.0000000), wk =   0.0236686
        k(   42) = (   0.2307692  -0.3286487   0.0000000), wk =   0.0236686
        k(   43) = (   0.2307692  -0.2362718   0.0000000), wk =   0.0236686
        k(   44) = (   0.2307692  -0.1438948   0.0000000), wk =   0.0236686
        k(   45) = (   0.2307692  -0.0515179   0.0000000), wk =   0.0236686
        k(   46) = (   0.2307692   0.0408590   0.0000000), wk =   0.0236686
        k(   47) = (   0.3076923   0.1776480   0.0000000), wk =   0.0236686
        k(   48) = (   0.3076923   0.2700249   0.0000000), wk =   0.0236686
        k(   49) = (   0.3076923   0.3624018   0.0000000), wk =   0.0236686
        k(   50) = (   0.3076923   0.4547788   0.0000000), wk =   0.0236686
        k(   51) = (   0.3076923   0.5471557   0.0000000), wk =   0.0236686
        k(   52) = (   0.3076923   0.6395326   0.0000000), wk =   0.0236686
        k(   53) = (   0.3076923   0.7319096   0.0000000), wk =   0.0236686
        k(   54) = (   0.3076923  -0.3766137   0.0000000), wk =   0.0236686
        k(   55) = (   0.3076923  -0.2842367   0.0000000), wk =   0.0236686
        k(   56) = (   0.3076923  -0.1918598   0.0000000), wk =   0.0236686
        k(   57) = (   0.3076923  -0.0994829   0.0000000), wk =   0.0236686
        k(   58) = (   0.3076923  -0.0071059   0.0000000), wk =   0.0236686
        k(   59) = (   0.3076923   0.0852710   0.0000000), wk =   0.0236686
        k(   60) = (   0.3846154   0.2220599   0.0000000), wk =   0.0236686
        k(   61) = (   0.3846154   0.3144369   0.0000000), wk =   0.0236686
        k(   62) = (   0.3846154   0.4068138   0.0000000), wk =   0.0236686
        k(   63) = (   0.3846154   0.4991908   0.0000000), wk =   0.0236686
        k(   64) = (   0.3846154   0.5915677   0.0000000), wk =   0.0236686
        k(   65) = (   0.3846154   0.6839446   0.0000000), wk =   0.0236686
        k(   66) = (   0.3846154   0.7763216   0.0000000), wk =   0.0236686
        k(   67) = (   0.3846154  -0.3322017   0.0000000), wk =   0.0236686
        k(   68) = (   0.3846154  -0.2398247   0.0000000), wk =   0.0236686
        k(   69) = (   0.3846154  -0.1474478   0.0000000), wk =   0.0236686
        k(   70) = (   0.3846154  -0.0550709   0.0000000), wk =   0.0236686
        k(   71) = (   0.3846154   0.0373061   0.0000000), wk =   0.0236686
        k(   72) = (   0.3846154   0.1296830   0.0000000), wk =   0.0236686
        k(   73) = (   0.4615385   0.2664719   0.0000000), wk =   0.0236686
        k(   74) = (   0.4615385   0.3588489   0.0000000), wk =   0.0236686
        k(   75) = (   0.4615385   0.4512258   0.0000000), wk =   0.0236686
        k(   76) = (   0.4615385   0.5436027   0.0000000), wk =   0.0236686
        k(   77) = (   0.4615385   0.6359797   0.0000000), wk =   0.0236686
        k(   78) = (   0.4615385   0.7283566   0.0000000), wk =   0.0236686
        k(   79) = (   0.4615385   0.8207336   0.0000000), wk =   0.0236686
        k(   80) = (   0.4615385  -0.2877897   0.0000000), wk =   0.0236686
        k(   81) = (   0.4615385  -0.1954128   0.0000000), wk =   0.0236686
        k(   82) = (   0.4615385  -0.1030358   0.0000000), wk =   0.0236686
        k(   83) = (   0.4615385  -0.0106589   0.0000000), wk =   0.0236686
        k(   84) = (   0.4615385   0.0817181   0.0000000), wk =   0.0236686
        k(   85) = (   0.4615385   0.1740950   0.0000000), wk =   0.0236686

                       cryst. coord.
        k(    1) = (   0.0000000   0.0000000   0.0000000), wk =   0.0118343
        k(    2) = (   0.0000000   0.0769231   0.0000000), wk =   0.0236686
        k(    3) = (   0.0000000   0.1538462   0.0000000), wk =   0.0236686
        k(    4) = (   0.0000000   0.2307692   0.0000000), wk =   0.0236686
        k(    5) = (   0.0000000   0.3076923   0.0000000), wk =   0.0236686
        k(    6) = (   0.0000000   0.3846154   0.0000000), wk =   0.0236686
        k(    7) = (   0.0000000   0.4615385   0.0000000), wk =   0.0236686
        k(    8) = (   0.0769231   0.0000000   0.0000000), wk =   0.0236686
        k(    9) = (   0.0769231   0.0769231   0.0000000), wk =   0.0236686
        k(   10) = (   0.0769231   0.1538462   0.0000000), wk =   0.0236686
        k(   11) = (   0.0769231   0.2307692   0.0000000), wk =   0.0236686
        k(   12) = (   0.0769231   0.3076923   0.0000000), wk =   0.0236686
        k(   13) = (   0.0769231   0.3846154   0.0000000), wk =   0.0236686
        k(   14) = (   0.0769231   0.4615385   0.0000000), wk =   0.0236686
        k(   15) = (   0.0769231  -0.4615385   0.0000000), wk =   0.0236686
        k(   16) = (   0.0769231  -0.3846154   0.0000000), wk =   0.0236686
        k(   17) = (   0.0769231  -0.3076923   0.0000000), wk =   0.0236686
        k(   18) = (   0.0769231  -0.2307692   0.0000000), wk =   0.0236686
        k(   19) = (   0.0769231  -0.1538462   0.0000000), wk =   0.0236686
        k(   20) = (   0.0769231  -0.0769231   0.0000000), wk =   0.0236686
        k(   21) = (   0.1538462   0.0000000   0.0000000), wk =   0.0236686
        k(   22) = (   0.1538462   0.0769231   0.0000000), wk =   0.0236686
        k(   23) = (   0.1538462   0.1538462   0.0000000), wk =   0.0236686
        k(   24) = (   0.1538462   0.2307692   0.0000000), wk =   0.0236686
        k(   25) = (   0.1538462   0.3076923   0.0000000), wk =   0.0236686
        k(   26) = (   0.1538462   0.3846154   0.0000000), wk =   0.0236686
        k(   27) = (   0.1538462   0.4615385   0.0000000), wk =   0.0236686
        k(   28) = (   0.1538462  -0.4615385   0.0000000), wk =   0.0236686
        k(   29) = (   0.1538462  -0.3846154   0.0000000), wk =   0.0236686
        k(   30) = (   0.1538462  -0.3076923   0.0000000), wk =   0.0236686
        k(   31) = (   0.1538462  -0.2307692   0.0000000), wk =   0.0236686
        k(   32) = (   0.1538462  -0.1538462   0.0000000), wk =   0.0236686
        k(   33) = (   0.1538462  -0.0769231   0.0000000), wk =   0.0236686
        k(   34) = (   0.2307692   0.0000000   0.0000000), wk =   0.0236686
        k(   35) = (   0.2307692   0.0769231   0.0000000), wk =   0.0236686
        k(   36) = (   0.2307692   0.1538462   0.0000000), wk =   0.0236686
        k(   37) = (   0.2307692   0.2307692   0.0000000), wk =   0.0236686
        k(   38) = (   0.2307692   0.3076923   0.0000000), wk =   0.0236686
        k(   39) = (   0.2307692   0.3846154   0.0000000), wk =   0.0236686
        k(   40) = (   0.2307692   0.4615385   0.0000000), wk =   0.0236686
        k(   41) = (   0.2307692  -0.4615385   0.0000000), wk =   0.0236686
        k(   42) = (   0.2307692  -0.3846154   0.0000000), wk =   0.0236686
        k(   43) = (   0.2307692  -0.3076923   0.0000000), wk =   0.0236686
        k(   44) = (   0.2307692  -0.2307692   0.0000000), wk =   0.0236686
        k(   45) = (   0.2307692  -0.1538462   0.0000000), wk =   0.0236686
        k(   46) = (   0.2307692  -0.0769231   0.0000000), wk =   0.0236686
        k(   47) = (   0.3076923   0.0000000   0.0000000), wk =   0.0236686
        k(   48) = (   0.3076923   0.0769231   0.0000000), wk =   0.0236686
        k(   49) = (   0.3076923   0.1538462   0.0000000), wk =   0.0236686
        k(   50) = (   0.3076923   0.2307692   0.0000000), wk =   0.0236686
        k(   51) = (   0.3076923   0.3076923   0.0000000), wk =   0.0236686
        k(   52) = (   0.3076923   0.3846154   0.0000000), wk =   0.0236686
        k(   53) = (   0.3076923   0.4615385   0.0000000), wk =   0.0236686
        k(   54) = (   0.3076923  -0.4615385   0.0000000), wk =   0.0236686
        k(   55) = (   0.3076923  -0.3846154   0.0000000), wk =   0.0236686
        k(   56) = (   0.3076923  -0.3076923   0.0000000), wk =   0.0236686
        k(   57) = (   0.3076923  -0.2307692   0.0000000), wk =   0.0236686
        k(   58) = (   0.3076923  -0.1538462   0.0000000), wk =   0.0236686
        k(   59) = (   0.3076923  -0.0769231   0.0000000), wk =   0.0236686
        k(   60) = (   0.3846154   0.0000000   0.0000000), wk =   0.0236686
        k(   61) = (   0.3846154   0.0769231   0.0000000), wk =   0.0236686
        k(   62) = (   0.3846154   0.1538462   0.0000000), wk =   0.0236686
        k(   63) = (   0.3846154   0.2307692   0.0000000), wk =   0.0236686
        k(   64) = (   0.3846154   0.3076923   0.0000000), wk =   0.0236686
        k(   65) = (   0.3846154   0.3846154   0.0000000), wk =   0.0236686
        k(   66) = (   0.3846154   0.4615385   0.0000000), wk =   0.0236686
        k(   67) = (   0.3846154  -0.4615385   0.0000000), wk =   0.0236686
        k(   68) = (   0.3846154  -0.3846154   0.0000000), wk =   0.0236686
        k(   69) = (   0.3846154  -0.3076923   0.0000000), wk =   0.0236686
        k(   70) = (   0.3846154  -0.2307692   0.0000000), wk =   0.0236686
        k(   71) = (   0.3846154  -0.1538462   0.0000000), wk =   0.0236686
        k(   72) = (   0.3846154  -0.0769231   0.0000000), wk =   0.0236686
        k(   73) = (   0.4615385   0.0000000   0.0000000), wk =   0.0236686
        k(   74) = (   0.4615385   0.0769231   0.0000000), wk =   0.0236686
        k(   75) = (   0.4615385   0.1538462   0.0000000), wk =   0.0236686
        k(   76) = (   0.4615385   0.2307692   0.0000000), wk =   0.0236686
        k(   77) = (   0.4615385   0.3076923   0.0000000), wk =   0.0236686
        k(   78) = (   0.4615385   0.3846154   0.0000000), wk =   0.0236686
        k(   79) = (   0.4615385   0.4615385   0.0000000), wk =   0.0236686
        k(   80) = (   0.4615385  -0.4615385   0.0000000), wk =   0.0236686
        k(   81) = (   0.4615385  -0.3846154   0.0000000), wk =   0.0236686
        k(   82) = (   0.4615385  -0.3076923   0.0000000), wk =   0.0236686
        k(   83) = (   0.4615385  -0.2307692   0.0000000), wk =   0.0236686
        k(   84) = (   0.4615385  -0.1538462   0.0000000), wk =   0.0236686
        k(   85) = (   0.4615385  -0.0769231   0.0000000), wk =   0.0236686

     Dense  grid:   198065 G-vectors     FFT dimensions: (  45,  45, 225)

     Dynamical RAM for                 wfc:       0.45 MB

     Dynamical RAM for     wfc (w. buffer):       0.45 MB

     Dynamical RAM for                 EXX:     642.92 MB

     Dynamical RAM for           str. fact:       0.07 MB

     Dynamical RAM for           local pot:       0.00 MB

     Dynamical RAM for          nlocal pot:       0.40 MB

     Dynamical RAM for                qrad:       2.85 MB

     Dynamical RAM for          rho,v,vnew:       0.25 MB

     Dynamical RAM for           G-vectors:       0.15 MB

     Dynamical RAM for          h,s,v(r/c):       1.83 MB

     Dynamical RAM for          <psi|beta>:       0.14 MB

     Dynamical RAM for                 psi:       0.90 MB

     Dynamical RAM for                hpsi:       0.90 MB

     Dynamical RAM for      wfcinit/wfcrot:       1.13 MB

     Estimated static dynamical RAM per process >     647.44 MB

     Estimated max dynamical RAM per process >     651.20 MB

     Estimated total dynamical RAM >     106.84 GB
     EXX: initializing ACE and reading from file
     ACE potential read for      100 bands
     ACE potential read for      100 bands
     ACE potential read for      100 bands
     ACE potential read for      100 bands
     ACE potential read for      100 bands
     ACE potential read for      100 bands
     ACE potential read for      100 bands
     ACE potential read for      100 bands
     ACE potential read for      100 bands
     ACE potential read for      100 bands
     ACE potential read for      100 bands
     ACE potential read for      100 bands
     ACE potential read for      100 bands
     ACE potential read for      100 bands
     ACE potential read for      100 bands
     ACE potential read for      100 bands
     ACE potential read for      100 bands
     ACE potential read for      100 bands
     ACE potential read for      100 bands
     ACE potential read for      100 bands
     ACE potential read for      100 bands
     ACE potential read for      100 bands
     ACE potential read for      100 bands
     ACE potential read for      100 bands
     ACE potential read for      100 bands
     ACE potential read for      100 bands
     ACE potential read for      100 bands
     ACE potential read for      100 bands
     ACE potential read for      100 bands
     ACE potential read for      100 bands
     ACE potential read for      100 bands
     ACE potential read for      100 bands
     ACE potential read for      100 bands
     ACE potential read for      100 bands
     ACE potential read for      100 bands
     ACE potential read for      100 bands
     ACE potential read for      100 bands
     ACE potential read for      100 bands
     ACE potential read for      100 bands
     ACE potential read for      100 bands
     ACE potential read for      100 bands
     ACE potential read for      100 bands
     ACE potential read for      100 bands
     Starting ACE correctly read from file

     The potential is recalculated from file :
     tmp/Sb2Te3-uatsx-c4-4.0.save/charge-density

     Starting wfcs are random

     Band Structure Calculation
     Davidson diagonalization with overlap

     Computing kpt #:     1  of    43 on this pool
     total cpu time spent up to now is       17.0 secs

     Computing kpt #:     2  of    43 on this pool
     total cpu time spent up to now is       20.0 secs

     Computing kpt #:     3  of    43 on this pool
     total cpu time spent up to now is       23.1 secs

     Computing kpt #:     4  of    43 on this pool
     total cpu time spent up to now is       26.1 secs

     Computing kpt #:     5  of    43 on this pool
     total cpu time spent up to now is       29.1 secs

     Computing kpt #:     6  of    43 on this pool
     total cpu time spent up to now is       32.0 secs

     Computing kpt #:     7  of    43 on this pool
     total cpu time spent up to now is       35.3 secs

     Computing kpt #:     8  of    43 on this pool
     total cpu time spent up to now is       38.5 secs

     Computing kpt #:     9  of    43 on this pool
     total cpu time spent up to now is       42.0 secs

     Computing kpt #:    10  of    43 on this pool
     total cpu time spent up to now is       45.4 secs

     Computing kpt #:    11  of    43 on this pool
     total cpu time spent up to now is       49.6 secs

     Computing kpt #:    12  of    43 on this pool
     total cpu time spent up to now is       52.3 secs

     Computing kpt #:    13  of    43 on this pool
     total cpu time spent up to now is       55.2 secs

     Computing kpt #:    14  of    43 on this pool
     total cpu time spent up to now is       58.0 secs

     Computing kpt #:    15  of    43 on this pool
     total cpu time spent up to now is       60.9 secs

     Computing kpt #:    16  of    43 on this pool
     total cpu time spent up to now is       63.8 secs

     Computing kpt #:    17  of    43 on this pool
     total cpu time spent up to now is       66.6 secs

     Computing kpt #:    18  of    43 on this pool
     total cpu time spent up to now is       69.5 secs

     Computing kpt #:    19  of    43 on this pool
     total cpu time spent up to now is       72.4 secs

     Computing kpt #:    20  of    43 on this pool
     total cpu time spent up to now is       75.4 secs

     Computing kpt #:    21  of    43 on this pool
     total cpu time spent up to now is       78.6 secs

     Computing kpt #:    22  of    43 on this pool
     total cpu time spent up to now is       81.7 secs

     Computing kpt #:    23  of    43 on this pool
     total cpu time spent up to now is       84.6 secs

     Computing kpt #:    24  of    43 on this pool
     total cpu time spent up to now is       87.4 secs

     Computing kpt #:    25  of    43 on this pool
     total cpu time spent up to now is       90.2 secs

     Computing kpt #:    26  of    43 on this pool
     total cpu time spent up to now is       93.1 secs

     Computing kpt #:    27  of    43 on this pool
     total cpu time spent up to now is       96.1 secs

     Computing kpt #:    28  of    43 on this pool
     total cpu time spent up to now is       99.3 secs

     Computing kpt #:    29  of    43 on this pool
     total cpu time spent up to now is      102.3 secs

     Computing kpt #:    30  of    43 on this pool
     total cpu time spent up to now is      105.4 secs

     Computing kpt #:    31  of    43 on this pool
     total cpu time spent up to now is      108.4 secs

     Computing kpt #:    32  of    43 on this pool
     total cpu time spent up to now is      111.3 secs

     Computing kpt #:    33  of    43 on this pool
     total cpu time spent up to now is      114.3 secs

     Computing kpt #:    34  of    43 on this pool
     total cpu time spent up to now is      117.6 secs

     Computing kpt #:    35  of    43 on this pool
     total cpu time spent up to now is      120.8 secs

     Computing kpt #:    36  of    43 on this pool
     total cpu time spent up to now is      124.0 secs

     Computing kpt #:    37  of    43 on this pool
     total cpu time spent up to now is      127.0 secs

     Computing kpt #:    38  of    43 on this pool
     total cpu time spent up to now is      130.0 secs

     Computing kpt #:    39  of    43 on this pool
     total cpu time spent up to now is      133.0 secs

     Computing kpt #:    40  of    43 on this pool
     total cpu time spent up to now is      136.2 secs

     Computing kpt #:    41  of    43 on this pool
     total cpu time spent up to now is      139.5 secs

     Computing kpt #:    42  of    43 on this pool
     total cpu time spent up to now is      142.5 secs

     Computing kpt #:    43  of    43 on this pool
     total cpu time spent up to now is      145.3 secs

     ethr =  1.28E-10,  avg # of iterations = 52.8

     total cpu time spent up to now is      146.6 secs

     End of band structure calculation

          k = 0.0000 0.0000 0.0000 ( 24691 PWs)   bands (ev):

   -36.6647 -36.6619 -36.6596 -36.6567 -36.6327 -36.6299 -36.6243 -36.6216
   -36.6092 -36.6064 -36.3803 -36.3728 -36.3635 -36.3536 -36.3489 -29.3728
   -29.3709 -29.3688 -29.3672 -29.3262 -29.3254 -29.3227 -29.3219 -29.3081
   -29.3073 -12.9728 -12.4329 -11.1451  -7.9284  -6.4438  -1.4976  -1.2413
    -1.1564  -1.0618  -0.9272  -0.3811  -0.3539  -0.1938   0.2203   1.7898
     2.2521   2.3869   3.2552   3.3833   3.5983   6.1434   6.3127   7.2596
     7.7374   7.9398   8.4745   8.5014   9.0204   9.0336   9.2240   9.7787
    10.0264  10.1984  10.2782  10.4194  10.9789  11.4578  11.7225  11.9770
    12.0436  12.2418  13.0131  13.2190  14.1965  14.4209  14.6454  14.7126
    14.8681  15.3556  15.7449  16.0060  16.1366  16.3167  16.3413  16.5747
    16.7985  16.8593  16.9593  16.9656  17.1224  17.1877  17.3228  17.4049
    17.5023  17.5677  17.6987  17.8410  17.9195  18.1916  18.9163  18.9171
    19.1191  19.2029  19.3706  19.4139

     occupation numbers 
     1.0000   1.0000   1.0000   1.0000   1.0000   1.0000   1.0000   1.0000
     1.0000   1.0000   1.0000   1.0000   1.0000   1.0000   1.0000   1.0000
     1.0000   1.0000   1.0000   1.0000   1.0000   1.0000   1.0000   1.0000
     1.0000   1.0000   1.0000   1.0000   1.0000   1.0000   1.0000   1.0000
     1.0000   1.0000   1.0000   1.0000   1.0000   1.0000   1.0000   0.0000
     0.0000   0.0000   0.0000   0.0000   0.0000   0.0000   0.0000   0.0000
     0.0000   0.0000   0.0000   0.0000   0.0000   0.0000   0.0000   0.0000
     0.0000   0.0000   0.0000   0.0000   0.0000   0.0000   0.0000   0.0000
     0.0000   0.0000   0.0000   0.0000   0.0000   0.0000   0.0000   0.0000
     0.0000   0.0000   0.0000   0.0000   0.0000   0.0000   0.0000   0.0000
     0.0000   0.0000   0.0000   0.0000   0.0000   0.0000   0.0000   0.0000
     0.0000   0.0000   0.0000   0.0000   0.0000   0.0000   0.0000   0.0000
     0.0000   0.0000   0.0000   0.0000

          k = 0.0000 0.0924 0.0000 ( 24705 PWs)   bands (ev):

   -36.6663 -36.6635 -36.6633 -36.6605 -36.6291 -36.6264 -36.6250 -36.6222
   -36.6019 -36.5992 -36.3834 -36.3742 -36.3624 -36.3473 -36.3401 -29.3663
   -29.3646 -29.3625 -29.3610 -29.3286 -29.3279 -29.3269 -29.3262 -29.3043
   -29.3034 -12.8952 -12.3523 -11.1094  -7.9699  -6.5928  -1.7652  -1.6406
    -1.3371  -1.2184  -1.0849  -0.7433  -0.2669   0.0779   0.5292   1.8887
     2.3325   2.5680   3.2425   3.4886   3.8557   6.2291   6.3609   7.3323
     7.6311   7.9443   8.0854   8.6091   8.9911   9.1800   9.2563   9.6440
    10.0259  10.2494  10.6451  10.8859  11.2333  11.2795  11.4159  12.0277
    12.4284  12.6699  13.1578  13.3650  13.8153  13.9288  14.5910  14.7798
    15.0076  15.3841  15.4293  15.6605  16.0492  16.0793  16.2852  16.3829
    16.4208  16.4501  16.7028  16.8156  16.9527  17.1553  17.4150  17.7506
    17.8980  18.0942  18.1421  18.2464  18.3504  18.4319  18.5049  18.6644
    18.7984  18.9533  19.3522  19.5864

     occupation numbers 
     1.0000   1.0000   1.0000   1.0000   1.0000   1.0000   1.0000   1.0000
     1.0000   1.0000   1.0000   1.0000   1.0000   1.0000   1.0000   1.0000
     1.0000   1.0000   1.0000   1.0000   1.0000   1.0000   1.0000   1.0000
     1.0000   1.0000   1.0000   1.0000   1.0000   1.0000   1.0000   1.0000
     1.0000   1.0000   1.0000   1.0000   1.0000   1.0000   1.0000   0.0000
     0.0000   0.0000   0.0000   0.0000   0.0000   0.0000   0.0000   0.0000
     0.0000   0.0000   0.0000   0.0000   0.0000   0.0000   0.0000   0.0000
     0.0000   0.0000   0.0000   0.0000   0.0000   0.0000   0.0000   0.0000
     0.0000   0.0000   0.0000   0.0000   0.0000   0.0000   0.0000   0.0000
     0.0000   0.0000   0.0000   0.0000   0.0000   0.0000   0.0000   0.0000
     0.0000   0.0000   0.0000   0.0000   0.0000   0.0000   0.0000   0.0000
     0.0000   0.0000   0.0000   0.0000   0.0000   0.0000   0.0000   0.0000
     0.0000   0.0000   0.0000   0.0000

          k = 0.0000 0.1848 0.0000 ( 24729 PWs)   bands (ev):

   -36.6564 -36.6543 -36.6536 -36.6515 -36.6176 -36.6148 -36.6090 -36.6063
   -36.5911 -36.5883 -36.3786 -36.3700 -36.3542 -36.3417 -36.3338 -29.3645
   -29.3627 -29.3586 -29.3573 -29.3404 -29.3389 -29.3305 -29.3296 -29.3260
   -29.3250 -12.6927 -12.1313 -10.9829  -8.0774  -6.9541  -2.5768  -2.0218
    -1.8096  -1.5482  -1.4601  -0.9518  -0.2157   0.1492   0.6112   2.1367
     2.5306   2.9452   3.5008   3.7796   4.3405   6.4287   6.4871   7.1254
     7.6233   7.7732   8.3325   8.6760   8.9349   9.1624   9.4215   9.8453
     9.9158  10.4410  11.0079  11.2335  11.5640  11.6208  12.1189  12.3203
    12.6875  12.7453  13.1869  13.6004  13.7115  13.8660  14.2899  14.4046
    14.6842  14.8694  14.9704  15.2934  15.5917  15.7628  15.8941  16.0347
    16.1637  16.3974  16.6919  16.9807  17.0764  17.4727  17.5688  17.7203
    17.9109  18.0928  18.1111  18.3787  18.6079  18.8247  18.9269  19.2436
    19.4186  19.5956  19.9358  20.1573

     occupation numbers 
     1.0000   1.0000   1.0000   1.0000   1.0000   1.0000   1.0000   1.0000
     1.0000   1.0000   1.0000   1.0000   1.0000   1.0000   1.0000   1.0000
     1.0000   1.0000   1.0000   1.0000   1.0000   1.0000   1.0000   1.0000
     1.0000   1.0000   1.0000   1.0000   1.0000   1.0000   1.0000   1.0000
     1.0000   1.0000   1.0000   1.0000   1.0000   1.0000   1.0000   0.0000
     0.0000   0.0000   0.0000   0.0000   0.0000   0.0000   0.0000   0.0000
     0.0000   0.0000   0.0000   0.0000   0.0000   0.0000   0.0000   0.0000
     0.0000   0.0000   0.0000   0.0000   0.0000   0.0000   0.0000   0.0000
     0.0000   0.0000   0.0000   0.0000   0.0000   0.0000   0.0000   0.0000
     0.0000   0.0000   0.0000   0.0000   0.0000   0.0000   0.0000   0.0000
     0.0000   0.0000   0.0000   0.0000   0.0000   0.0000   0.0000   0.0000
     0.0000   0.0000   0.0000   0.0000   0.0000   0.0000   0.0000   0.0000
     0.0000   0.0000   0.0000   0.0000

          k = 0.0000 0.2771 0.0000 ( 24766 PWs)   bands (ev):

   -36.6521 -36.6493 -36.6482 -36.6454 -36.6104 -36.6076 -36.6003 -36.5976
   -36.5848 -36.5820 -36.3739 -36.3660 -36.3456 -36.3346 -36.3263 -29.3619
   -29.3602 -29.3547 -29.3535 -29.3427 -29.3411 -29.3353 -29.3341 -29.3218
   -29.3203 -12.3951 -11.8682 -10.8320  -8.2406  -7.4345  -3.3031  -2.3958
    -2.3501  -1.8910  -1.7494  -0.9432  -0.4110  -0.2535   0.6663   2.2295
     2.7088   3.3217   3.8406   4.0887   4.8747   6.3516   6.7316   7.0365
     7.8032   8.0564   8.6485   8.8365   9.0535   9.1025   9.8726  10.0731
    10.2776  10.6090  10.8893  11.6968  12.0232  12.2241  12.3658  12.5395
    12.5568  12.7506  13.2898  13.3990  13.8624  13.9361  14.0151  14.4639
    14.4825  14.6803  14.9474  15.1645  15.3338  15.3917  15.5588  15.6513
    15.9972  16.6257  16.6786  16.8906  17.3119  17.4297  17.5277  17.6050
    17.7709  18.2630  18.3505  18.6201  18.7768  18.8673  19.0530  19.2258
    19.5014  19.7325  19.7810  19.9478

     occupation numbers 
     1.0000   1.0000   1.0000   1.0000   1.0000   1.0000   1.0000   1.0000
     1.0000   1.0000   1.0000   1.0000   1.0000   1.0000   1.0000   1.0000
     1.0000   1.0000   1.0000   1.0000   1.0000   1.0000   1.0000   1.0000
     1.0000   1.0000   1.0000   1.0000   1.0000   1.0000   1.0000   1.0000
     1.0000   1.0000   1.0000   1.0000   1.0000   1.0000   1.0000   0.0000
     0.0000   0.0000   0.0000   0.0000   0.0000   0.0000   0.0000   0.0000
     0.0000   0.0000   0.0000   0.0000   0.0000   0.0000   0.0000   0.0000
     0.0000   0.0000   0.0000   0.0000   0.0000   0.0000   0.0000   0.0000
     0.0000   0.0000   0.0000   0.0000   0.0000   0.0000   0.0000   0.0000
     0.0000   0.0000   0.0000   0.0000   0.0000   0.0000   0.0000   0.0000
     0.0000   0.0000   0.0000   0.0000   0.0000   0.0000   0.0000   0.0000
     0.0000   0.0000   0.0000   0.0000   0.0000   0.0000   0.0000   0.0000
     0.0000   0.0000   0.0000   0.0000

          k = 0.0000 0.3695 0.0000 ( 24803 PWs)   bands (ev):

   -36.6474 -36.6446 -36.6420 -36.6392 -36.6043 -36.6014 -36.5934 -36.5907
   -36.5767 -36.5739 -36.3711 -36.3645 -36.3367 -36.3253 -36.3150 -29.3633
   -29.3618 -29.3553 -29.3543 -29.3437 -29.3419 -29.3369 -29.3357 -29.3236
   -29.3218 -12.0214 -11.5524 -10.6991  -8.5280  -7.9336  -3.8725  -2.7851
    -2.7033  -2.0852  -2.0017  -1.1974  -0.5426  -0.3354   0.4120   2.3069
     2.8249   3.3643   4.0987   4.3765   5.3390   6.0059   7.1230   7.2947
     8.0252   8.4538   8.7125   9.2896   9.5317   9.6272  10.2835  10.4292
    10.4685  10.8612  11.1512  11.2431  11.8983  12.1343  12.2310  12.5344
    12.9731  13.0904  13.2531  13.3861  13.6211  14.0449  14.2506  14.3825
    14.6816  14.7722  14.9840  15.1365  15.2941  15.5067  15.6657  15.9231
    16.3601  16.4491  16.6446  16.8539  17.0011  17.0866  17.1537  17.2439
    17.4277  17.5266  17.7182  18.0226  18.4538  18.7306  18.8788  18.9359
    19.3323  19.7994  19.8582  20.0605

     occupation numbers 
     1.0000   1.0000   1.0000   1.0000   1.0000   1.0000   1.0000   1.0000
     1.0000   1.0000   1.0000   1.0000   1.0000   1.0000   1.0000   1.0000
     1.0000   1.0000   1.0000   1.0000   1.0000   1.0000   1.0000   1.0000
     1.0000   1.0000   1.0000   1.0000   1.0000   1.0000   1.0000   1.0000
     1.0000   1.0000   1.0000   1.0000   1.0000   1.0000   1.0000   0.0000
     0.0000   0.0000   0.0000   0.0000   0.0000   0.0000   0.0000   0.0000
     0.0000   0.0000   0.0000   0.0000   0.0000   0.0000   0.0000   0.0000
     0.0000   0.0000   0.0000   0.0000   0.0000   0.0000   0.0000   0.0000
     0.0000   0.0000   0.0000   0.0000   0.0000   0.0000   0.0000   0.0000
     0.0000   0.0000   0.0000   0.0000   0.0000   0.0000   0.0000   0.0000
     0.0000   0.0000   0.0000   0.0000   0.0000   0.0000   0.0000   0.0000
     0.0000   0.0000   0.0000   0.0000   0.0000   0.0000   0.0000   0.0000
     0.0000   0.0000   0.0000   0.0000

          k = 0.0000 0.4619 0.0000 ( 24805 PWs)   bands (ev):

   -36.6427 -36.6398 -36.6364 -36.6335 -36.6030 -36.6001 -36.5896 -36.5869
   -36.5750 -36.5722 -36.3704 -36.3651 -36.3330 -36.3198 -36.3082 -29.3630
   -29.3616 -29.3550 -29.3541 -29.3437 -29.3414 -29.3345 -29.3331 -29.3245
   -29.3224 -11.5994 -11.2326 -10.6705  -8.9038  -8.3378  -4.2575  -2.9851
    -2.9155  -2.3218  -2.1911  -1.4195  -0.4910  -0.4153   0.1230   2.3020
     2.8697   3.3020   4.2561   4.5812   5.5197   5.8084   7.3310   7.7790
     8.2461   8.8800   9.2597   9.5364   9.7791  10.1688  10.5027  10.6290
    10.9222  11.0091  11.1796  11.4782  11.6385  11.8365  12.1948  12.6046
    12.9269  13.2402  13.4766  13.6671  13.8959  13.9215  14.0862  14.2732
    14.4363  14.5273  14.8569  14.9443  15.1639  15.4819  15.7799  16.0323
    16.1215  16.2097  16.5514  16.6885  16.7884  16.8799  16.9797  17.2270
    17.3972  17.5434  17.6360  17.7542  18.1104  18.7015  18.8770  19.1860
    19.3172  19.5962  19.8445  20.0144

     occupation numbers 
     1.0000   1.0000   1.0000   1.0000   1.0000   1.0000   1.0000   1.0000
     1.0000   1.0000   1.0000   1.0000   1.0000   1.0000   1.0000   1.0000
     1.0000   1.0000   1.0000   1.0000   1.0000   1.0000   1.0000   1.0000
     1.0000   1.0000   1.0000   1.0000   1.0000   1.0000   1.0000   1.0000
     1.0000   1.0000   1.0000   1.0000   1.0000   1.0000   1.0000   0.0000
     0.0000   0.0000   0.0000   0.0000   0.0000   0.0000   0.0000   0.0000
     0.0000   0.0000   0.0000   0.0000   0.0000   0.0000   0.0000   0.0000
     0.0000   0.0000   0.0000   0.0000   0.0000   0.0000   0.0000   0.0000
     0.0000   0.0000   0.0000   0.0000   0.0000   0.0000   0.0000   0.0000
     0.0000   0.0000   0.0000   0.0000   0.0000   0.0000   0.0000   0.0000
     0.0000   0.0000   0.0000   0.0000   0.0000   0.0000   0.0000   0.0000
     0.0000   0.0000   0.0000   0.0000   0.0000   0.0000   0.0000   0.0000
     0.0000   0.0000   0.0000   0.0000

          k = 0.0000 0.5543 0.0000 ( 24786 PWs)   bands (ev):

   -36.6399 -36.6370 -36.6333 -36.6305 -36.6036 -36.6007 -36.5864 -36.5838
   -36.5775 -36.5747 -36.3705 -36.3661 -36.3322 -36.3175 -36.3053 -29.3622
   -29.3609 -29.3543 -29.3535 -29.3430 -29.3404 -29.3314 -29.3299 -29.3245
   -29.3221 -11.1738 -11.0044 -10.8211  -9.1880  -8.5748  -4.4557  -3.0330
    -2.9738  -2.5720  -2.2898  -1.4782  -0.4811  -0.4484  -0.0397   2.2414
     2.8802   3.3098   4.2770   4.6826   5.5570   5.7019   7.4657   8.3525
     8.6049   8.9817   9.1702   9.5226   9.9113  10.2055  10.6118  10.9168
    11.2844  11.3933  11.5672  11.8163  11.9105  12.0198  12.2815  12.6189
    12.8154  13.0452  13.1112  13.3331  13.7331  13.7999  14.0969  14.2169
    14.3940  14.4324  14.6273  14.8600  14.9100  15.1432  15.3949  15.4884
    15.7963  15.8959  16.4459  16.5720  16.6610  16.9261  17.1316  17.6274
    17.8176  17.9836  18.0620  18.4498  18.5616  18.7413  18.8821  19.2731
    19.2817  19.6506  19.7450  19.9195

     occupation numbers 
     1.0000   1.0000   1.0000   1.0000   1.0000   1.0000   1.0000   1.0000
     1.0000   1.0000   1.0000   1.0000   1.0000   1.0000   1.0000   1.0000
     1.0000   1.0000   1.0000   1.0000   1.0000   1.0000   1.0000   1.0000
     1.0000   1.0000   1.0000   1.0000   1.0000   1.0000   1.0000   1.0000
     1.0000   1.0000   1.0000   1.0000   1.0000   1.0000   1.0000   0.0000
     0.0000   0.0000   0.0000   0.0000   0.0000   0.0000   0.0000   0.0000
     0.0000   0.0000   0.0000   0.0000   0.0000   0.0000   0.0000   0.0000
     0.0000   0.0000   0.0000   0.0000   0.0000   0.0000   0.0000   0.0000
     0.0000   0.0000   0.0000   0.0000   0.0000   0.0000   0.0000   0.0000
     0.0000   0.0000   0.0000   0.0000   0.0000   0.0000   0.0000   0.0000
     0.0000   0.0000   0.0000   0.0000   0.0000   0.0000   0.0000   0.0000
     0.0000   0.0000   0.0000   0.0000   0.0000   0.0000   0.0000   0.0000
     0.0000   0.0000   0.0000   0.0000

          k = 0.0769 0.0444 0.0000 ( 24716 PWs)   bands (ev):

   -36.6686 -36.6659 -36.6633 -36.6605 -36.6336 -36.6308 -36.6192 -36.6164
   -36.6019 -36.5991 -36.3772 -36.3729 -36.3672 -36.3471 -36.3448 -29.3665
   -29.3647 -29.3626 -29.3611 -29.3311 -29.3297 -29.3257 -29.3249 -29.3049
   -29.3038 -12.9010 -12.3602 -11.1157  -7.9764  -6.6116  -1.8685  -1.6563
    -1.3542  -1.0896  -0.9825  -0.7823  -0.1195   0.0536   0.5103   2.0643
     2.2495   2.4701   3.3859   3.4549   3.7413   6.2229   6.3532   7.3359
     7.5693   7.7599   8.5032   8.5962   8.8921   9.0710   9.3258   9.7004
    10.0992  10.3958  10.5359  10.6620  11.1576  11.2387  11.6750  11.7392
    12.5942  12.7034  13.0333  13.2116  13.7337  14.2344  14.3922  14.7887
    15.0440  15.2484  15.4324  15.5379  15.8910  15.9903  16.2233  16.5035
    16.7220  16.7734  16.8482  17.0371  17.1387  17.1960  17.3782  17.6132
    17.8134  17.8955  18.0585  18.3120  18.3779  18.5665  18.6706  18.7449
    18.7947  19.0461  19.1403  19.3024

     occupation numbers 
     1.0000   1.0000   1.0000   1.0000   1.0000   1.0000   1.0000   1.0000
     1.0000   1.0000   1.0000   1.0000   1.0000   1.0000   1.0000   1.0000
     1.0000   1.0000   1.0000   1.0000   1.0000   1.0000   1.0000   1.0000
     1.0000   1.0000   1.0000   1.0000   1.0000   1.0000   1.0000   1.0000
     1.0000   1.0000   1.0000   1.0000   1.0000   1.0000   1.0000   0.0000
     0.0000   0.0000   0.0000   0.0000   0.0000   0.0000   0.0000   0.0000
     0.0000   0.0000   0.0000   0.0000   0.0000   0.0000   0.0000   0.0000
     0.0000   0.0000   0.0000   0.0000   0.0000   0.0000   0.0000   0.0000
     0.0000   0.0000   0.0000   0.0000   0.0000   0.0000   0.0000   0.0000
     0.0000   0.0000   0.0000   0.0000   0.0000   0.0000   0.0000   0.0000
     0.0000   0.0000   0.0000   0.0000   0.0000   0.0000   0.0000   0.0000
     0.0000   0.0000   0.0000   0.0000   0.0000   0.0000   0.0000   0.0000
     0.0000   0.0000   0.0000   0.0000

          k = 0.0769 0.1368 0.0000 ( 24736 PWs)   bands (ev):

   -36.6700 -36.6672 -36.6539 -36.6511 -36.6232 -36.6204 -36.6126 -36.6099
   -36.5957 -36.5929 -36.3786 -36.3719 -36.3647 -36.3405 -36.3379 -29.3671
   -29.3658 -29.3538 -29.3524 -29.3372 -29.3362 -29.3280 -29.3271 -29.3140
   -29.3127 -12.7639 -12.2102 -11.0378  -8.0535  -6.8678  -2.3664  -1.9764
    -1.7626  -1.4607  -1.0608  -0.8854  -0.3495   0.4240   0.5699   2.2127
     2.4057   2.7946   3.4992   3.6579   4.1112   6.3653   6.4465   7.3318
     7.4782   7.5791   8.5484   8.6620   8.8500   9.1589   9.2991   9.7687
    10.1482  10.5061  10.7792  11.1636  11.2616  11.5452  11.7691  11.9570
    12.8483  12.9399  13.3014  13.4369  13.5691  13.8309  14.0531  14.4441
    14.7921  14.9869  15.2264  15.4037  15.5860  15.6385  15.9861  16.4888
    16.5738  16.8276  16.9007  17.0435  17.1938  17.3814  17.5075  17.5659
    17.6554  17.8439  17.8843  18.0394  18.4634  19.1542  19.2492  19.4349
    19.5240  19.5759  19.6995  19.7856

     occupation numbers 
     1.0000   1.0000   1.0000   1.0000   1.0000   1.0000   1.0000   1.0000
     1.0000   1.0000   1.0000   1.0000   1.0000   1.0000   1.0000   1.0000
     1.0000   1.0000   1.0000   1.0000   1.0000   1.0000   1.0000   1.0000
     1.0000   1.0000   1.0000   1.0000   1.0000   1.0000   1.0000   1.0000
     1.0000   1.0000   1.0000   1.0000   1.0000   1.0000   1.0000   0.0000
     0.0000   0.0000   0.0000   0.0000   0.0000   0.0000   0.0000   0.0000
     0.0000   0.0000   0.0000   0.0000   0.0000   0.0000   0.0000   0.0000
     0.0000   0.0000   0.0000   0.0000   0.0000   0.0000   0.0000   0.0000
     0.0000   0.0000   0.0000   0.0000   0.0000   0.0000   0.0000   0.0000
     0.0000   0.0000   0.0000   0.0000   0.0000   0.0000   0.0000   0.0000
     0.0000   0.0000   0.0000   0.0000   0.0000   0.0000   0.0000   0.0000
     0.0000   0.0000   0.0000   0.0000   0.0000   0.0000   0.0000   0.0000
     0.0000   0.0000   0.0000   0.0000

          k = 0.0769 0.2292 0.0000 ( 24764 PWs)   bands (ev):

   -36.6560 -36.6532 -36.6523 -36.6494 -36.6125 -36.6096 -36.6043 -36.6016
   -36.5862 -36.5835 -36.3738 -36.3676 -36.3550 -36.3349 -36.3309 -29.3648
   -29.3635 -29.3507 -29.3492 -29.3414 -29.3404 -29.3305 -29.3292 -29.3275
   -29.3256 -12.5181 -11.9757 -10.8991  -8.1815  -7.2843  -2.9414  -2.5863
    -1.9961  -1.8945  -1.4264  -1.0747  -0.3600   0.1667   0.6851   2.3927
     2.5453   3.1814   3.7482   4.0539   4.6221   6.5574   6.6001   7.0637
     7.4725   7.8091   8.6918   8.8192   8.9032   9.0303   9.6996  10.0497
    10.2083  10.5906  11.1227  11.3338  11.6975  11.8380  12.3306  12.5066
    12.8566  13.1665  13.2282  13.3824  13.5451  13.8123  13.9799  14.3033
    14.3103  14.3888  14.7229  15.0146  15.6958  15.8239  16.0888  16.1720
    16.3228  16.4920  16.6441  16.8364  16.9427  17.1821  17.4268  17.7762
    18.1395  18.3578  18.6606  18.6908  18.7941  18.8246  18.9345  19.1667
    19.2171  19.4973  19.5705  19.6419

     occupation numbers 
     1.0000   1.0000   1.0000   1.0000   1.0000   1.0000   1.0000   1.0000
     1.0000   1.0000   1.0000   1.0000   1.0000   1.0000   1.0000   1.0000
     1.0000   1.0000   1.0000   1.0000   1.0000   1.0000   1.0000   1.0000
     1.0000   1.0000   1.0000   1.0000   1.0000   1.0000   1.0000   1.0000
     1.0000   1.0000   1.0000   1.0000   1.0000   1.0000   1.0000   0.0000
     0.0000   0.0000   0.0000   0.0000   0.0000   0.0000   0.0000   0.0000
     0.0000   0.0000   0.0000   0.0000   0.0000   0.0000   0.0000   0.0000
     0.0000   0.0000   0.0000   0.0000   0.0000   0.0000   0.0000   0.0000
     0.0000   0.0000   0.0000   0.0000   0.0000   0.0000   0.0000   0.0000
     0.0000   0.0000   0.0000   0.0000   0.0000   0.0000   0.0000   0.0000
     0.0000   0.0000   0.0000   0.0000   0.0000   0.0000   0.0000   0.0000
     0.0000   0.0000   0.0000   0.0000   0.0000   0.0000   0.0000   0.0000
     0.0000   0.0000   0.0000   0.0000

          k = 0.0769 0.3215 0.0000 ( 24782 PWs)   bands (ev):

   -36.6499 -36.6471 -36.6439 -36.6410 -36.6067 -36.6039 -36.5969 -36.5943
   -36.5806 -36.5778 -36.3697 -36.3648 -36.3452 -36.3272 -36.3211 -29.3624
   -29.3610 -29.3518 -29.3507 -29.3439 -29.3426 -29.3347 -29.3334 -29.3254
   -29.3237 -12.1858 -11.6883 -10.7521  -8.3963  -7.7780  -3.5705  -2.9112
    -2.3376  -2.2611  -1.7825  -1.1975  -0.3540  -0.2295   0.5975   2.4876
     2.6734   3.3666   4.0687   4.3543   5.1297   6.3003   6.9460   7.1883
     7.8010   8.2149   8.3881   9.0970   9.2725   9.5855  10.0437  10.3641
    10.4478  10.6661  11.3316  11.4316  11.7790  12.2983  12.5729  12.7267
    12.8339  12.9010  12.9868  13.0723  13.4756  13.7160  14.0803  14.3574
    14.5832  14.7845  15.0387  15.1515  15.3771  15.5545  15.8082  16.0420
    16.1319  16.3082  16.4379  16.5629  16.9647  17.0586  17.3351  17.7147
    18.0362  18.0935  18.1989  18.4098  18.6959  18.8815  18.9470  19.0065
    19.1829  19.6333  19.8157  19.8995

     occupation numbers 
     1.0000   1.0000   1.0000   1.0000   1.0000   1.0000   1.0000   1.0000
     1.0000   1.0000   1.0000   1.0000   1.0000   1.0000   1.0000   1.0000
     1.0000   1.0000   1.0000   1.0000   1.0000   1.0000   1.0000   1.0000
     1.0000   1.0000   1.0000   1.0000   1.0000   1.0000   1.0000   1.0000
     1.0000   1.0000   1.0000   1.0000   1.0000   1.0000   1.0000   0.0000
     0.0000   0.0000   0.0000   0.0000   0.0000   0.0000   0.0000   0.0000
     0.0000   0.0000   0.0000   0.0000   0.0000   0.0000   0.0000   0.0000
     0.0000   0.0000   0.0000   0.0000   0.0000   0.0000   0.0000   0.0000
     0.0000   0.0000   0.0000   0.0000   0.0000   0.0000   0.0000   0.0000
     0.0000   0.0000   0.0000   0.0000   0.0000   0.0000   0.0000   0.0000
     0.0000   0.0000   0.0000   0.0000   0.0000   0.0000   0.0000   0.0000
     0.0000   0.0000   0.0000   0.0000   0.0000   0.0000   0.0000   0.0000
     0.0000   0.0000   0.0000   0.0000

          k = 0.0769 0.4139 0.0000 ( 24803 PWs)   bands (ev):

   -36.6438 -36.6409 -36.6379 -36.6350 -36.6033 -36.6004 -36.5923 -36.5896
   -36.5780 -36.5752 -36.3682 -36.3646 -36.3386 -36.3207 -36.3123 -29.3619
   -29.3605 -29.3525 -29.3516 -29.3439 -29.3427 -29.3334 -29.3324 -29.3252
   -29.3233 -11.7876 -11.3673 -10.6597  -8.7274  -8.2371  -4.0520  -3.0330
    -2.7793  -2.5322  -1.9079  -1.4066  -0.5415  -0.2900   0.3810   2.5349
     2.6794   3.4177   4.2983   4.5421   5.4717   6.0085   7.3023   7.5333
     8.1281   8.5704   8.7883   9.4516   9.6576   9.9598  10.4039  10.5542
    10.8201  10.9277  11.3167  11.5059  11.6471  11.9084  12.1505  12.6007
    12.8469  13.1609  13.3212  13.4841  13.5333  13.7286  13.9623  14.0150
    14.1489  14.9130  15.1924  15.3939  15.5335  15.6527  15.7440  16.0097
    16.1096  16.2642  16.5189  16.5791  16.8545  16.9123  17.1275  17.3171
    17.5772  17.9163  18.0305  18.1738  18.3940  18.5442  18.7380  18.9677
    19.4687  19.5917  19.8345  19.8739

     occupation numbers 
     1.0000   1.0000   1.0000   1.0000   1.0000   1.0000   1.0000   1.0000
     1.0000   1.0000   1.0000   1.0000   1.0000   1.0000   1.0000   1.0000
     1.0000   1.0000   1.0000   1.0000   1.0000   1.0000   1.0000   1.0000
     1.0000   1.0000   1.0000   1.0000   1.0000   1.0000   1.0000   1.0000
     1.0000   1.0000   1.0000   1.0000   1.0000   1.0000   1.0000   0.0000
     0.0000   0.0000   0.0000   0.0000   0.0000   0.0000   0.0000   0.0000
     0.0000   0.0000   0.0000   0.0000   0.0000   0.0000   0.0000   0.0000
     0.0000   0.0000   0.0000   0.0000   0.0000   0.0000   0.0000   0.0000
     0.0000   0.0000   0.0000   0.0000   0.0000   0.0000   0.0000   0.0000
     0.0000   0.0000   0.0000   0.0000   0.0000   0.0000   0.0000   0.0000
     0.0000   0.0000   0.0000   0.0000   0.0000   0.0000   0.0000   0.0000
     0.0000   0.0000   0.0000   0.0000   0.0000   0.0000   0.0000   0.0000
     0.0000   0.0000   0.0000   0.0000

          k = 0.0769 0.5063 0.0000 ( 24792 PWs)   bands (ev):

   -36.6399 -36.6370 -36.6339 -36.6310 -36.6021 -36.5991 -36.5888 -36.5861
   -36.5781 -36.5753 -36.3679 -36.3653 -36.3355 -36.3165 -36.3068 -29.3615
   -29.3602 -29.3528 -29.3519 -29.3434 -29.3421 -29.3309 -29.3301 -29.3258
   -29.3235 -11.3563 -11.0764 -10.6995  -9.0831  -8.5646  -4.3464  -3.0936
    -2.9824  -2.7214  -2.0603  -1.5765  -0.5633  -0.3376   0.1755   2.5521
     2.6602   3.3533   4.4648   4.6141   5.5830   5.8448   7.4488   8.0848
     8.4046   9.1233   9.2942   9.3254   9.8966  10.1000  10.5247  10.6917
    11.0713  11.1639  11.4326  11.5936  11.8043  12.0655  12.1778  12.5688
    12.6843  12.8421  13.0593  13.2308  13.4063  13.7875  14.0386  14.3984
    14.4340  14.6794  14.9586  15.0915  15.2951  15.4535  15.7090  15.7760
    16.0119  16.0801  16.1725  16.6069  17.0966  17.2941  17.3535  17.4205
    17.5945  18.0035  18.1115  18.2374  18.4318  18.5223  18.6513  19.0287
    19.3098  19.5399  19.5625  20.0397

     occupation numbers 
     1.0000   1.0000   1.0000   1.0000   1.0000   1.0000   1.0000   1.0000
     1.0000   1.0000   1.0000   1.0000   1.0000   1.0000   1.0000   1.0000
     1.0000   1.0000   1.0000   1.0000   1.0000   1.0000   1.0000   1.0000
     1.0000   1.0000   1.0000   1.0000   1.0000   1.0000   1.0000   1.0000
     1.0000   1.0000   1.0000   1.0000   1.0000   1.0000   1.0000   0.0000
     0.0000   0.0000   0.0000   0.0000   0.0000   0.0000   0.0000   0.0000
     0.0000   0.0000   0.0000   0.0000   0.0000   0.0000   0.0000   0.0000
     0.0000   0.0000   0.0000   0.0000   0.0000   0.0000   0.0000   0.0000
     0.0000   0.0000   0.0000   0.0000   0.0000   0.0000   0.0000   0.0000
     0.0000   0.0000   0.0000   0.0000   0.0000   0.0000   0.0000   0.0000
     0.0000   0.0000   0.0000   0.0000   0.0000   0.0000   0.0000   0.0000
     0.0000   0.0000   0.0000   0.0000   0.0000   0.0000   0.0000   0.0000
     0.0000   0.0000   0.0000   0.0000

          k = 0.0769 0.5987 0.0000 ( 24771 PWs)   bands (ev):

   -36.6390 -36.6361 -36.6322 -36.6294 -36.6023 -36.5994 -36.5868 -36.5841
   -36.5789 -36.5761 -36.3684 -36.3659 -36.3346 -36.3149 -36.3050 -29.3613
   -29.3600 -29.3529 -29.3521 -29.3429 -29.3413 -29.3299 -29.3290 -29.3259
   -29.3233 -10.9889 -10.9575 -10.8980  -9.2452  -8.6886  -4.4475  -3.1916
    -2.9114  -2.8135  -2.1743  -1.6110  -0.4726  -0.4484   0.0997   2.5112
     2.6954   3.3005   4.5111   4.6279   5.6531   5.7093   7.5190   8.5574
     8.7725   8.8184   9.0025   9.8241   9.8738   9.9141  10.5877  10.7494
    11.0983  11.3102  11.4689  11.7490  12.0341  12.0731  12.3643  12.5627
    12.7073  12.8278  13.0118  13.2156  13.6136  13.8368  14.2008  14.2795
    14.4517  14.6936  14.7745  14.8445  15.0067  15.2872  15.4135  15.6039
    15.8538  16.0060  16.3017  16.4541  16.8266  17.2008  17.2369  17.4832
    18.0482  18.2118  18.3057  18.6018  18.6620  18.8541  18.9772  19.1940
    19.2791  19.4501  19.6003  19.6780

     occupation numbers 
     1.0000   1.0000   1.0000   1.0000   1.0000   1.0000   1.0000   1.0000
     1.0000   1.0000   1.0000   1.0000   1.0000   1.0000   1.0000   1.0000
     1.0000   1.0000   1.0000   1.0000   1.0000   1.0000   1.0000   1.0000
     1.0000   1.0000   1.0000   1.0000   1.0000   1.0000   1.0000   1.0000
     1.0000   1.0000   1.0000   1.0000   1.0000   1.0000   1.0000   0.0000
     0.0000   0.0000   0.0000   0.0000   0.0000   0.0000   0.0000   0.0000
     0.0000   0.0000   0.0000   0.0000   0.0000   0.0000   0.0000   0.0000
     0.0000   0.0000   0.0000   0.0000   0.0000   0.0000   0.0000   0.0000
     0.0000   0.0000   0.0000   0.0000   0.0000   0.0000   0.0000   0.0000
     0.0000   0.0000   0.0000   0.0000   0.0000   0.0000   0.0000   0.0000
     0.0000   0.0000   0.0000   0.0000   0.0000   0.0000   0.0000   0.0000
     0.0000   0.0000   0.0000   0.0000   0.0000   0.0000   0.0000   0.0000
     0.0000   0.0000   0.0000   0.0000

          k = 0.0769-0.5098 0.0000 ( 24772 PWs)   bands (ev):

   -36.6400 -36.6372 -36.6340 -36.6311 -36.6034 -36.6005 -36.5879 -36.5852
   -36.5781 -36.5753 -36.3695 -36.3659 -36.3349 -36.3160 -36.3068 -29.3616
   -29.3604 -29.3532 -29.3523 -29.3428 -29.3412 -29.3319 -29.3309 -29.3246
   -29.3224 -11.3421 -11.0670 -10.7047  -9.0889  -8.5603  -4.3528  -3.1108
    -2.9904  -2.6869  -2.0921  -1.5470  -0.5422  -0.3846   0.1730   2.5317
     2.6594   3.3233   4.4664   4.5737   5.5611   5.8176   7.4328   8.1019
     8.4305   9.0215   9.1924   9.2755   9.8252   9.9919  10.4696  10.6083
    10.9353  11.1879  11.6388  11.7139  11.9619  12.1098  12.3687  12.5917
    12.9216  13.0231  13.2092  13.3449  13.5267  13.7908  14.1750  14.2092
    14.5489  14.6812  14.8580  15.1043  15.1282  15.4758  15.6116  15.7993
    15.8430  16.1224  16.2091  16.5362  16.8756  17.1076  17.2726  17.5246
    17.7398  17.8873  18.1235  18.2681  18.3527  18.6176  18.7895  19.0431
    19.2639  19.4518  19.7441  19.9200

     occupation numbers 
     1.0000   1.0000   1.0000   1.0000   1.0000   1.0000   1.0000   1.0000
     1.0000   1.0000   1.0000   1.0000   1.0000   1.0000   1.0000   1.0000
     1.0000   1.0000   1.0000   1.0000   1.0000   1.0000   1.0000   1.0000
     1.0000   1.0000   1.0000   1.0000   1.0000   1.0000   1.0000   1.0000
     1.0000   1.0000   1.0000   1.0000   1.0000   1.0000   1.0000   0.0000
     0.0000   0.0000   0.0000   0.0000   0.0000   0.0000   0.0000   0.0000
     0.0000   0.0000   0.0000   0.0000   0.0000   0.0000   0.0000   0.0000
     0.0000   0.0000   0.0000   0.0000   0.0000   0.0000   0.0000   0.0000
     0.0000   0.0000   0.0000   0.0000   0.0000   0.0000   0.0000   0.0000
     0.0000   0.0000   0.0000   0.0000   0.0000   0.0000   0.0000   0.0000
     0.0000   0.0000   0.0000   0.0000   0.0000   0.0000   0.0000   0.0000
     0.0000   0.0000   0.0000   0.0000   0.0000   0.0000   0.0000   0.0000
     0.0000   0.0000   0.0000   0.0000

          k = 0.0769-0.4175 0.0000 ( 24767 PWs)   bands (ev):

   -36.6446 -36.6418 -36.6369 -36.6340 -36.6051 -36.6022 -36.5915 -36.5888
   -36.5778 -36.5750 -36.3708 -36.3656 -36.3370 -36.3195 -36.3119 -29.3625
   -29.3611 -29.3532 -29.3523 -29.3428 -29.3412 -29.3348 -29.3338 -29.3239
   -29.3220 -11.7745 -11.3547 -10.6567  -8.7324  -8.2261  -4.0647  -3.0627
    -2.7768  -2.4905  -1.9531  -1.3563  -0.5269  -0.3555   0.3565   2.5302
     2.6491   3.3396   4.2503   4.5438   5.4194   5.9714   7.2870   7.5435
     8.1033   8.3903   8.7167   9.3560   9.6546   9.9376  10.5216  10.6787
    10.7906  11.0827  11.4150  11.4674  11.6664  12.0017  12.1930  12.6419
    12.9051  13.2033  13.3778  13.5327  13.6237  13.7428  13.9947  14.0893
    14.1875  14.8862  15.2470  15.5824  15.6218  15.8427  15.9738  16.0394
    16.0725  16.2574  16.5427  16.6324  16.7771  16.8291  17.1105  17.1655
    17.4499  17.6193  18.0599  18.1513  18.3406  18.5826  18.6284  18.9753
    19.2142  19.6528  19.7725  20.0076

     occupation numbers 
     1.0000   1.0000   1.0000   1.0000   1.0000   1.0000   1.0000   1.0000
     1.0000   1.0000   1.0000   1.0000   1.0000   1.0000   1.0000   1.0000
     1.0000   1.0000   1.0000   1.0000   1.0000   1.0000   1.0000   1.0000
     1.0000   1.0000   1.0000   1.0000   1.0000   1.0000   1.0000   1.0000
     1.0000   1.0000   1.0000   1.0000   1.0000   1.0000   1.0000   0.0000
     0.0000   0.0000   0.0000   0.0000   0.0000   0.0000   0.0000   0.0000
     0.0000   0.0000   0.0000   0.0000   0.0000   0.0000   0.0000   0.0000
     0.0000   0.0000   0.0000   0.0000   0.0000   0.0000   0.0000   0.0000
     0.0000   0.0000   0.0000   0.0000   0.0000   0.0000   0.0000   0.0000
     0.0000   0.0000   0.0000   0.0000   0.0000   0.0000   0.0000   0.0000
     0.0000   0.0000   0.0000   0.0000   0.0000   0.0000   0.0000   0.0000
     0.0000   0.0000   0.0000   0.0000   0.0000   0.0000   0.0000   0.0000
     0.0000   0.0000   0.0000   0.0000

          k = 0.0769-0.3251 0.0000 ( 24783 PWs)   bands (ev):

   -36.6505 -36.6476 -36.6421 -36.6393 -36.6081 -36.6052 -36.5964 -36.5937
   -36.5806 -36.5778 -36.3723 -36.3655 -36.3423 -36.3255 -36.3202 -29.3638
   -29.3624 -29.3528 -29.3518 -29.3427 -29.3411 -29.3362 -29.3349 -29.3245
   -29.3228 -12.1746 -11.6764 -10.7427  -8.3940  -7.7604  -3.5903  -2.9162
    -2.3595  -2.2226  -1.8092  -1.1310  -0.4211  -0.2648   0.5499   2.4265
     2.6519   3.2992   3.9578   4.4162   5.0905   6.2569   6.9427   7.1789
     7.6879   8.1819   8.3520   9.0233   9.2978   9.8477  10.1407  10.3826
    10.4347  10.7342  11.4209  11.4792  11.7013  12.2564  12.5759  12.7376
    12.7776  12.9191  13.0658  13.0760  13.4958  13.8063  14.1860  14.3545
    14.6419  14.7777  14.9710  15.1670  15.3593  15.6561  15.8654  15.9969
    16.2259  16.3165  16.5123  16.8794  17.0339  17.2693  17.6282  17.7530
    18.0334  18.0615  18.2279  18.2405  18.5445  18.6000  18.9033  19.0394
    19.1588  19.4112  19.4786  19.5651

     occupation numbers 
     1.0000   1.0000   1.0000   1.0000   1.0000   1.0000   1.0000   1.0000
     1.0000   1.0000   1.0000   1.0000   1.0000   1.0000   1.0000   1.0000
     1.0000   1.0000   1.0000   1.0000   1.0000   1.0000   1.0000   1.0000
     1.0000   1.0000   1.0000   1.0000   1.0000   1.0000   1.0000   1.0000
     1.0000   1.0000   1.0000   1.0000   1.0000   1.0000   1.0000   0.0000
     0.0000   0.0000   0.0000   0.0000   0.0000   0.0000   0.0000   0.0000
     0.0000   0.0000   0.0000   0.0000   0.0000   0.0000   0.0000   0.0000
     0.0000   0.0000   0.0000   0.0000   0.0000   0.0000   0.0000   0.0000
     0.0000   0.0000   0.0000   0.0000   0.0000   0.0000   0.0000   0.0000
     0.0000   0.0000   0.0000   0.0000   0.0000   0.0000   0.0000   0.0000
     0.0000   0.0000   0.0000   0.0000   0.0000   0.0000   0.0000   0.0000
     0.0000   0.0000   0.0000   0.0000   0.0000   0.0000   0.0000   0.0000
     0.0000   0.0000   0.0000   0.0000

          k = 0.0769-0.2327 0.0000 ( 24736 PWs)   bands (ev):

   -36.6557 -36.6528 -36.6508 -36.6481 -36.6144 -36.6116 -36.6027 -36.5999
   -36.5867 -36.5839 -36.3751 -36.3674 -36.3521 -36.3341 -36.3304 -29.3665
   -29.3651 -29.3510 -29.3494 -29.3400 -29.3389 -29.3318 -29.3304 -29.3265
   -29.3247 -12.5095 -11.9665 -10.8878  -8.1722  -7.2614  -2.9551  -2.5701
    -1.9895  -1.8979  -1.4527  -1.0250  -0.4265   0.0811   0.6520   2.2141
     2.5539   3.2169   3.6020   4.1719   4.6047   6.5367   6.6083   7.0214
     7.4231   7.8047   8.7035   8.7750   8.9959   9.1268   9.7588  10.0585
    10.1601  10.6396  11.0606  11.4064  11.7261  11.8345  12.3523  12.5088
    12.8763  13.1317  13.3776  13.4132  13.4576  13.8278  14.0268  14.3286
    14.4287  14.5404  14.8243  14.9270  15.5395  15.7829  16.0641  16.1730
    16.4226  16.4651  16.5989  16.7647  16.9265  17.1140  17.4365  17.5644
    18.2208  18.3121  18.4937  18.5545  18.8001  18.9359  19.2207  19.3103
    19.3983  19.5694  19.6258  19.7802

     occupation numbers 
     1.0000   1.0000   1.0000   1.0000   1.0000   1.0000   1.0000   1.0000
     1.0000   1.0000   1.0000   1.0000   1.0000   1.0000   1.0000   1.0000
     1.0000   1.0000   1.0000   1.0000   1.0000   1.0000   1.0000   1.0000
     1.0000   1.0000   1.0000   1.0000   1.0000   1.0000   1.0000   1.0000
     1.0000   1.0000   1.0000   1.0000   1.0000   1.0000   1.0000   0.0000
     0.0000   0.0000   0.0000   0.0000   0.0000   0.0000   0.0000   0.0000
     0.0000   0.0000   0.0000   0.0000   0.0000   0.0000   0.0000   0.0000
     0.0000   0.0000   0.0000   0.0000   0.0000   0.0000   0.0000   0.0000
     0.0000   0.0000   0.0000   0.0000   0.0000   0.0000   0.0000   0.0000
     0.0000   0.0000   0.0000   0.0000   0.0000   0.0000   0.0000   0.0000
     0.0000   0.0000   0.0000   0.0000   0.0000   0.0000   0.0000   0.0000
     0.0000   0.0000   0.0000   0.0000   0.0000   0.0000   0.0000   0.0000
     0.0000   0.0000   0.0000   0.0000

          k = 0.0769-0.1403 0.0000 ( 24679 PWs)   bands (ev):

   -36.6689 -36.6661 -36.6503 -36.6475 -36.6246 -36.6218 -36.6122 -36.6094
   -36.5964 -36.5937 -36.3793 -36.3706 -36.3605 -36.3389 -36.3363 -29.3685
   -29.3670 -29.3547 -29.3531 -29.3365 -29.3355 -29.3286 -29.3278 -29.3158
   -29.3146 -12.7581 -12.2059 -11.0237  -8.0436  -6.8444  -2.3177  -1.9726
    -1.6946  -1.5396  -1.0975  -0.8944  -0.4316   0.3842   0.5284   2.0199
     2.5282   2.7065   3.4473   3.8071   4.1085   6.3718   6.4499   7.2910
     7.5202   7.5811   8.5475   8.6805   8.8263   9.2021   9.2865   9.7789
    10.0497  10.4697  10.7717  11.2365  11.2552  11.6375  11.8125  12.0904
    12.7433  12.9742  13.2119  13.5430  13.6139  13.8967  14.1033  14.3947
    14.9937  15.0772  15.3026  15.3539  15.5518  15.5720  15.9497  16.2292
    16.5292  16.8816  16.9470  17.0117  17.0824  17.2406  17.2931  17.3664
    17.6254  17.6814  17.7888  18.1141  18.7440  19.0799  19.2411  19.3079
    19.3158  19.6158  19.9043  19.9695

     occupation numbers 
     1.0000   1.0000   1.0000   1.0000   1.0000   1.0000   1.0000   1.0000
     1.0000   1.0000   1.0000   1.0000   1.0000   1.0000   1.0000   1.0000
     1.0000   1.0000   1.0000   1.0000   1.0000   1.0000   1.0000   1.0000
     1.0000   1.0000   1.0000   1.0000   1.0000   1.0000   1.0000   1.0000
     1.0000   1.0000   1.0000   1.0000   1.0000   1.0000   1.0000   0.0000
     0.0000   0.0000   0.0000   0.0000   0.0000   0.0000   0.0000   0.0000
     0.0000   0.0000   0.0000   0.0000   0.0000   0.0000   0.0000   0.0000
     0.0000   0.0000   0.0000   0.0000   0.0000   0.0000   0.0000   0.0000
     0.0000   0.0000   0.0000   0.0000   0.0000   0.0000   0.0000   0.0000
     0.0000   0.0000   0.0000   0.0000   0.0000   0.0000   0.0000   0.0000
     0.0000   0.0000   0.0000   0.0000   0.0000   0.0000   0.0000   0.0000
     0.0000   0.0000   0.0000   0.0000   0.0000   0.0000   0.0000   0.0000
     0.0000   0.0000   0.0000   0.0000

          k = 0.0769-0.0480 0.0000 ( 24707 PWs)   bands (ev):

   -36.6677 -36.6649 -36.6625 -36.6597 -36.6322 -36.6293 -36.6214 -36.6187
   -36.6021 -36.5993 -36.3816 -36.3693 -36.3679 -36.3449 -36.3435 -29.3665
   -29.3649 -29.3625 -29.3612 -29.3302 -29.3289 -29.3263 -29.3255 -29.3046
   -29.3036 -12.8980 -12.3564 -11.1114  -7.9725  -6.6009  -1.8177  -1.5665
    -1.4499  -1.1605  -1.0145  -0.7477  -0.2223   0.0833   0.5192   1.9470
     2.3190   2.5131   3.3356   3.4480   3.8076   6.2258   6.3572   7.3282
     7.5959   7.8446   8.3125   8.6041   8.9184   9.1570   9.3351   9.5986
    10.0795  10.2795  10.6304  10.7766  11.2307  11.2412  11.5670  11.8179
    12.4989  12.7140  13.1754  13.2060  13.8221  14.0339  14.6510  14.7706
    14.8130  15.3613  15.5171  15.7683  15.8105  16.0248  16.2302  16.3600
    16.4801  16.6082  16.8263  16.8605  17.1035  17.1608  17.5569  17.6865
    17.7827  17.9249  18.1114  18.1967  18.4049  18.4623  18.6879  18.8682
    18.9089  19.0410  19.1300  19.3104

     occupation numbers 
     1.0000   1.0000   1.0000   1.0000   1.0000   1.0000   1.0000   1.0000
     1.0000   1.0000   1.0000   1.0000   1.0000   1.0000   1.0000   1.0000
     1.0000   1.0000   1.0000   1.0000   1.0000   1.0000   1.0000   1.0000
     1.0000   1.0000   1.0000   1.0000   1.0000   1.0000   1.0000   1.0000
     1.0000   1.0000   1.0000   1.0000   1.0000   1.0000   1.0000   0.0000
     0.0000   0.0000   0.0000   0.0000   0.0000   0.0000   0.0000   0.0000
     0.0000   0.0000   0.0000   0.0000   0.0000   0.0000   0.0000   0.0000
     0.0000   0.0000   0.0000   0.0000   0.0000   0.0000   0.0000   0.0000
     0.0000   0.0000   0.0000   0.0000   0.0000   0.0000   0.0000   0.0000
     0.0000   0.0000   0.0000   0.0000   0.0000   0.0000   0.0000   0.0000
     0.0000   0.0000   0.0000   0.0000   0.0000   0.0000   0.0000   0.0000
     0.0000   0.0000   0.0000   0.0000   0.0000   0.0000   0.0000   0.0000
     0.0000   0.0000   0.0000   0.0000

          k = 0.1538 0.0888 0.0000 ( 24710 PWs)   bands (ev):

   -36.6626 -36.6598 -36.6556 -36.6528 -36.6179 -36.6150 -36.6097 -36.6069
   -36.5923 -36.5896 -36.3724 -36.3674 -36.3661 -36.3420 -36.3392 -29.3629
   -29.3614 -29.3592 -29.3579 -29.3424 -29.3406 -29.3296 -29.3286 -29.3200
   -29.3186 -12.7095 -12.1534 -11.0086  -8.1023  -7.0055  -2.7208  -1.9680
    -1.7022  -1.6839  -1.2084  -0.9093  -0.0329   0.2454   0.6156   2.3950
     2.6567   2.7759   3.6170   3.7515   4.1412   6.4169   6.4445   7.0504
     7.5982   7.7511   8.5970   8.7205   8.8583   9.0095   9.6780   9.8295
     9.9640  10.6130  10.7845  11.0301  11.3856  11.8285  11.9522  12.0620
    12.6181  12.9719  13.0902  13.3204  13.5141  13.9100  14.1693  14.2391
    14.5433  14.8154  15.2185  15.4389  15.8880  16.0111  16.1435  16.1819
    16.2504  16.5300  16.6638  16.7359  16.9418  17.3692  17.8336  17.8659
    18.0958  18.2928  18.4322  18.5475  18.6305  18.9861  19.0896  19.1090
    19.3045  19.3754  19.4922  19.6042

     occupation numbers 
     1.0000   1.0000   1.0000   1.0000   1.0000   1.0000   1.0000   1.0000
     1.0000   1.0000   1.0000   1.0000   1.0000   1.0000   1.0000   1.0000
     1.0000   1.0000   1.0000   1.0000   1.0000   1.0000   1.0000   1.0000
     1.0000   1.0000   1.0000   1.0000   1.0000   1.0000   1.0000   1.0000
     1.0000   1.0000   1.0000   1.0000   1.0000   1.0000   1.0000   0.0000
     0.0000   0.0000   0.0000   0.0000   0.0000   0.0000   0.0000   0.0000
     0.0000   0.0000   0.0000   0.0000   0.0000   0.0000   0.0000   0.0000
     0.0000   0.0000   0.0000   0.0000   0.0000   0.0000   0.0000   0.0000
     0.0000   0.0000   0.0000   0.0000   0.0000   0.0000   0.0000   0.0000
     0.0000   0.0000   0.0000   0.0000   0.0000   0.0000   0.0000   0.0000
     0.0000   0.0000   0.0000   0.0000   0.0000   0.0000   0.0000   0.0000
     0.0000   0.0000   0.0000   0.0000   0.0000   0.0000   0.0000   0.0000
     0.0000   0.0000   0.0000   0.0000

          k = 0.1538 0.1812 0.0000 ( 24753 PWs)   bands (ev):

   -36.6610 -36.6582 -36.6532 -36.6504 -36.6136 -36.6107 -36.6044 -36.6018
   -36.5875 -36.5847 -36.3727 -36.3691 -36.3608 -36.3352 -36.3328 -29.3644
   -29.3632 -29.3496 -29.3480 -29.3415 -29.3405 -29.3321 -29.3307 -29.3207
   -29.3191 -12.5324 -11.9931 -10.9214  -8.2023  -7.3132  -3.0654  -2.4538
    -2.0906  -1.6996  -1.4879  -0.9421  -0.2944   0.2031   0.7437   2.3630
     2.8307   3.0918   3.6244   4.3357   4.3683   6.5049   6.5970   6.9929
     7.5208   7.7824   8.5649   8.7532   8.9905   9.3290   9.6684   9.9849
    10.3899  10.4840  11.0494  11.3964  11.6932  11.7147  12.3420  12.3724
    12.5445  13.0103  13.2735  13.4476  13.5971  13.6804  13.9568  14.1661
    14.3507  14.6761  14.9209  15.1454  15.5862  15.7068  15.9736  16.1099
    16.2921  16.8513  16.8790  17.1357  17.2485  17.3133  17.4170  17.5979
    18.1162  18.3325  18.4471  18.5035  18.5411  18.7008  18.8576  19.1098
    19.2213  19.4653  19.6291  19.7739

     occupation numbers 
     1.0000   1.0000   1.0000   1.0000   1.0000   1.0000   1.0000   1.0000
     1.0000   1.0000   1.0000   1.0000   1.0000   1.0000   1.0000   1.0000
     1.0000   1.0000   1.0000   1.0000   1.0000   1.0000   1.0000   1.0000
     1.0000   1.0000   1.0000   1.0000   1.0000   1.0000   1.0000   1.0000
     1.0000   1.0000   1.0000   1.0000   1.0000   1.0000   1.0000   0.0000
     0.0000   0.0000   0.0000   0.0000   0.0000   0.0000   0.0000   0.0000
     0.0000   0.0000   0.0000   0.0000   0.0000   0.0000   0.0000   0.0000
     0.0000   0.0000   0.0000   0.0000   0.0000   0.0000   0.0000   0.0000
     0.0000   0.0000   0.0000   0.0000   0.0000   0.0000   0.0000   0.0000
     0.0000   0.0000   0.0000   0.0000   0.0000   0.0000   0.0000   0.0000
     0.0000   0.0000   0.0000   0.0000   0.0000   0.0000   0.0000   0.0000
     0.0000   0.0000   0.0000   0.0000   0.0000   0.0000   0.0000   0.0000
     0.0000   0.0000   0.0000   0.0000

          k = 0.1538 0.2736 0.0000 ( 24738 PWs)   bands (ev):

   -36.6539 -36.6511 -36.6493 -36.6465 -36.6068 -36.6039 -36.5973 -36.5946
   -36.5765 -36.5737 -36.3720 -36.3693 -36.3529 -36.3248 -36.3216 -29.3619
   -29.3606 -29.3509 -29.3493 -29.3428 -29.3419 -29.3352 -29.3335 -29.3299
   -29.3286 -12.2515 -11.7396 -10.7898  -8.3724  -7.7442  -3.2962  -3.1770
    -2.3289  -2.0347  -1.7532  -1.3180  -0.2774   0.2904   0.5014   2.4867
     3.0532   3.1854   3.8452   4.6439   4.8916   6.7176   6.7522   7.0784
     7.3748   8.0791   8.2987   8.7877   9.2882   9.8260  10.0976  10.2478
    10.4252  10.8913  11.2535  11.3342  12.0499  12.1390  12.4790  12.5528
    12.6680  12.8727  13.0595  13.2147  13.5434  13.6396  13.7006  14.1807
    14.4976  14.7767  14.9874  15.1427  15.4517  15.5805  15.6924  16.0150
    16.2952  16.5034  16.6961  16.9684  17.0304  17.3685  17.7496  17.8613
    17.9412  18.1361  18.1972  18.2829  18.4134  18.6433  18.7015  18.8599
    19.0676  19.6039  19.9108  19.9815

     occupation numbers 
     1.0000   1.0000   1.0000   1.0000   1.0000   1.0000   1.0000   1.0000
     1.0000   1.0000   1.0000   1.0000   1.0000   1.0000   1.0000   1.0000
     1.0000   1.0000   1.0000   1.0000   1.0000   1.0000   1.0000   1.0000
     1.0000   1.0000   1.0000   1.0000   1.0000   1.0000   1.0000   1.0000
     1.0000   1.0000   1.0000   1.0000   1.0000   1.0000   1.0000   0.0000
     0.0000   0.0000   0.0000   0.0000   0.0000   0.0000   0.0000   0.0000
     0.0000   0.0000   0.0000   0.0000   0.0000   0.0000   0.0000   0.0000
     0.0000   0.0000   0.0000   0.0000   0.0000   0.0000   0.0000   0.0000
     0.0000   0.0000   0.0000   0.0000   0.0000   0.0000   0.0000   0.0000
     0.0000   0.0000   0.0000   0.0000   0.0000   0.0000   0.0000   0.0000
     0.0000   0.0000   0.0000   0.0000   0.0000   0.0000   0.0000   0.0000
     0.0000   0.0000   0.0000   0.0000   0.0000   0.0000   0.0000   0.0000
     0.0000   0.0000   0.0000   0.0000

          k = 0.1538 0.3660 0.0000 ( 24767 PWs)   bands (ev):

   -36.6461 -36.6433 -36.6419 -36.6390 -36.6055 -36.6026 -36.5926 -36.5899
   -36.5753 -36.5725 -36.3692 -36.3679 -36.3473 -36.3199 -36.3155 -29.3581
   -29.3568 -29.3493 -29.3483 -29.3426 -29.3414 -29.3343 -29.3327 -29.3309
   -29.3294 -11.8958 -11.4433 -10.6778  -8.6173  -8.2218  -3.7407  -3.4035
    -2.6629  -2.4064  -1.9916  -1.5385  -0.2624  -0.0122   0.4335   2.5506
     3.0975   3.3211   4.1687   4.8065   5.2806   6.4964   7.1657   7.4351
     7.6750   8.1788   8.5126   9.0002   9.5420   9.8525  10.4770  10.5820
    10.9175  11.1365  11.1664  11.8173  11.9226  12.0946  12.2613  12.4968
    12.7279  12.8726  12.9002  13.2365  13.2706  13.4524  14.1775  14.3031
    14.4494  14.6737  14.8923  15.0909  15.1806  15.4819  15.7905  16.0153
    16.3333  16.4172  16.7280  16.9479  17.1071  17.2999  17.5355  17.6268
    17.7551  17.8723  17.9343  18.2501  18.6018  18.9773  19.3344  19.4938
    19.5423  19.5578  19.6477  19.8178

     occupation numbers 
     1.0000   1.0000   1.0000   1.0000   1.0000   1.0000   1.0000   1.0000
     1.0000   1.0000   1.0000   1.0000   1.0000   1.0000   1.0000   1.0000
     1.0000   1.0000   1.0000   1.0000   1.0000   1.0000   1.0000   1.0000
     1.0000   1.0000   1.0000   1.0000   1.0000   1.0000   1.0000   1.0000
     1.0000   1.0000   1.0000   1.0000   1.0000   1.0000   1.0000   0.0000
     0.0000   0.0000   0.0000   0.0000   0.0000   0.0000   0.0000   0.0000
     0.0000   0.0000   0.0000   0.0000   0.0000   0.0000   0.0000   0.0000
     0.0000   0.0000   0.0000   0.0000   0.0000   0.0000   0.0000   0.0000
     0.0000   0.0000   0.0000   0.0000   0.0000   0.0000   0.0000   0.0000
     0.0000   0.0000   0.0000   0.0000   0.0000   0.0000   0.0000   0.0000
     0.0000   0.0000   0.0000   0.0000   0.0000   0.0000   0.0000   0.0000
     0.0000   0.0000   0.0000   0.0000   0.0000   0.0000   0.0000   0.0000
     0.0000   0.0000   0.0000   0.0000

          k = 0.1538 0.4583 0.0000 ( 24785 PWs)   bands (ev):

   -36.6415 -36.6387 -36.6380 -36.6352 -36.6039 -36.6010 -36.5876 -36.5850
   -36.5775 -36.5747 -36.3672 -36.3672 -36.3436 -36.3173 -36.3115 -29.3563
   -29.3550 -29.3484 -29.3476 -29.3418 -29.3409 -29.3315 -29.3307 -29.3266
   -29.3251 -11.4849 -11.1381 -10.6337  -8.9472  -8.6296  -4.1264  -3.4311
    -2.9099  -2.7713  -2.0708  -1.7002  -0.4609  -0.1457   0.3943   2.5178
     3.0817   3.4441   4.3426   4.8757   5.5369   6.2595   7.5308   7.8592
     8.2878   8.3990   9.0312   9.2069   9.7917   9.8911  10.3342  10.6625
    10.9956  11.2125  11.3678  11.6044  11.7617  11.9474  12.2303  12.5374
    12.6337  12.7894  12.9826  13.2633  13.4081  13.6081  13.9113  14.0851
    14.2873  14.4767  14.6841  15.1892  15.3712  15.7876  15.9898  16.1529
    16.3696  16.6165  16.9754  17.0471  17.1384  17.3017  17.4433  17.5040
    17.8018  18.0742  18.1021  18.3649  18.4602  18.7436  19.0616  19.3136
[...]
     1.0000   1.0000   1.0000   1.0000   1.0000   1.0000   1.0000   1.0000
     1.0000   1.0000   1.0000   1.0000   1.0000   1.0000   1.0000   0.0000
     0.0000   0.0000   0.0000   0.0000   0.0000   0.0000   0.0000   0.0000
     0.0000   0.0000   0.0000   0.0000   0.0000   0.0000   0.0000   0.0000
     0.0000   0.0000   0.0000   0.0000   0.0000   0.0000   0.0000   0.0000
     0.0000   0.0000   0.0000   0.0000   0.0000   0.0000   0.0000   0.0000
     0.0000   0.0000   0.0000   0.0000   0.0000   0.0000   0.0000   0.0000
     0.0000   0.0000   0.0000   0.0000   0.0000   0.0000   0.0000   0.0000
     0.0000   0.0000   0.0000   0.0000   0.0000   0.0000   0.0000   0.0000
     0.0000   0.0000   0.0000   0.0000

          k = 0.4615 0.7284 0.0000 ( 24732 PWs)   bands (ev):

   -36.6576 -36.6520 -36.6300 -36.6244 -36.6158 -36.6023 -36.5933 -36.5885
   -36.5751 -36.5661 -36.3438 -36.3402 -36.3227 -36.2912 -36.2881 -29.3490
   -29.3434 -29.3398 -29.3374 -29.3341 -29.3283 -29.3254 -29.3192 -29.3162
   -29.3097 -11.1280 -10.9695 -10.7512  -9.2388  -8.8327  -4.2863  -3.3462
    -3.2078  -2.6863  -2.0263  -1.9320  -0.4618  -0.1147   0.4493   2.7101
     3.2385   3.3658   4.5804   5.0101   5.6344   6.2052   7.6152   8.3022
     8.5731   8.9462   9.1358   9.4446   9.7161   9.9440  10.1597  10.4290
    10.5581  10.7700  11.0650  11.6757  11.6990  12.0597  12.1860  12.4570
    12.5773  12.8519  13.0098  13.2433  13.3082  13.7048  14.1253  14.3228
    14.4700  14.6449  14.9693  15.1166  15.3082  15.6688  15.6961  15.9867
    16.3791  16.4509  17.0004  17.1293  17.1755  17.3443  17.5589  17.6295
    17.9159  18.1395  18.3285  18.3877  18.5694  18.7272  18.8427  19.1134
    19.2121  19.3647  19.5981  19.8869

     occupation numbers 
     1.0000   1.0000   1.0000   1.0000   1.0000   1.0000   1.0000   1.0000
     1.0000   1.0000   1.0000   1.0000   1.0000   1.0000   1.0000   1.0000
     1.0000   1.0000   1.0000   1.0000   1.0000   1.0000   1.0000   1.0000
     1.0000   1.0000   1.0000   1.0000   1.0000   1.0000   1.0000   1.0000
     1.0000   1.0000   1.0000   1.0000   1.0000   1.0000   1.0000   0.0000
     0.0000   0.0000   0.0000   0.0000   0.0000   0.0000   0.0000   0.0000
     0.0000   0.0000   0.0000   0.0000   0.0000   0.0000   0.0000   0.0000
     0.0000   0.0000   0.0000   0.0000   0.0000   0.0000   0.0000   0.0000
     0.0000   0.0000   0.0000   0.0000   0.0000   0.0000   0.0000   0.0000
     0.0000   0.0000   0.0000   0.0000   0.0000   0.0000   0.0000   0.0000
     0.0000   0.0000   0.0000   0.0000   0.0000   0.0000   0.0000   0.0000
     0.0000   0.0000   0.0000   0.0000   0.0000   0.0000   0.0000   0.0000
     0.0000   0.0000   0.0000   0.0000

          k = 0.4615 0.8207 0.0000 ( 24724 PWs)   bands (ev):

   -36.6572 -36.6495 -36.6296 -36.6219 -36.6164 -36.6042 -36.5953 -36.5892
   -36.5769 -36.5681 -36.3444 -36.3415 -36.3171 -36.2916 -36.2863 -29.3541
   -29.3476 -29.3448 -29.3387 -29.3381 -29.3292 -29.3261 -29.3170 -29.3168
   -29.3072 -11.0617 -11.0216 -10.9192  -9.2620  -8.6663  -4.4203  -3.0803
    -2.9206  -2.7261  -2.1310  -1.5394  -0.4185  -0.3455   0.2747   2.7047
     2.8282   3.3383   4.6274   4.7020   5.6655   5.7387   7.4537   8.4547
     8.7054   8.7507   8.9126   9.7151   9.7715   9.8796  10.4775  10.5439
    11.0448  11.2975  11.5099  11.7653  11.9568  12.1492  12.4071  12.5405
    12.6376  12.6888  13.1747  13.2313  13.7349  13.8818  14.1225  14.3650
    14.4459  14.7450  14.7813  14.7996  15.1432  15.2676  15.4492  15.7929
    15.9687  16.0222  16.2994  16.5041  16.8600  17.0702  17.1425  17.5562
    17.9804  18.1690  18.3976  18.4659  18.6121  18.7261  18.7957  19.0648
    19.1583  19.2956  19.3553  19.5974

     occupation numbers 
     1.0000   1.0000   1.0000   1.0000   1.0000   1.0000   1.0000   1.0000
     1.0000   1.0000   1.0000   1.0000   1.0000   1.0000   1.0000   1.0000
     1.0000   1.0000   1.0000   1.0000   1.0000   1.0000   1.0000   1.0000
     1.0000   1.0000   1.0000   1.0000   1.0000   1.0000   1.0000   1.0000
     1.0000   1.0000   1.0000   1.0000   1.0000   1.0000   1.0000   0.0000
     0.0000   0.0000   0.0000   0.0000   0.0000   0.0000   0.0000   0.0000
     0.0000   0.0000   0.0000   0.0000   0.0000   0.0000   0.0000   0.0000
     0.0000   0.0000   0.0000   0.0000   0.0000   0.0000   0.0000   0.0000
     0.0000   0.0000   0.0000   0.0000   0.0000   0.0000   0.0000   0.0000
     0.0000   0.0000   0.0000   0.0000   0.0000   0.0000   0.0000   0.0000
     0.0000   0.0000   0.0000   0.0000   0.0000   0.0000   0.0000   0.0000
     0.0000   0.0000   0.0000   0.0000   0.0000   0.0000   0.0000   0.0000
     0.0000   0.0000   0.0000   0.0000

          k = 0.4615-0.2878 0.0000 ( 24758 PWs)   bands (ev):

   -36.6584 -36.6501 -36.6308 -36.6226 -36.6176 -36.6039 -36.5947 -36.5904
   -36.5767 -36.5675 -36.3457 -36.3415 -36.3150 -36.2942 -36.2871 -29.3551
   -29.3492 -29.3458 -29.3400 -29.3387 -29.3292 -29.3270 -29.3176 -29.3157
   -29.3062 -11.2275 -11.0719 -10.8610  -9.2110  -8.5601  -4.4318  -2.9669
    -2.8283  -2.6472  -2.1154  -1.4498  -0.4117  -0.3292   0.1280   2.4436
     2.9926   3.3456   4.4630   4.6976   5.5680   5.7132   7.3884   8.2727
     8.5399   8.8856   9.0836   9.4539   9.8604  10.0871  10.5071  10.7975
    11.1249  11.4114  11.5231  11.8376  12.0123  12.0362  12.2632  12.4190
    12.7550  12.9308  13.2436  13.4576  13.6437  13.9888  14.1548  14.3602
    14.4499  14.5875  14.6583  14.9097  15.0361  15.1881  15.3397  15.4643
    15.6827  15.9396  16.3857  16.7088  16.7611  17.0295  17.2429  17.4344
    17.6958  17.9276  18.0174  18.1605  18.4092  18.6382  18.8174  18.8559
    19.0669  19.6778  19.7610  19.7914

     occupation numbers 
     1.0000   1.0000   1.0000   1.0000   1.0000   1.0000   1.0000   1.0000
     1.0000   1.0000   1.0000   1.0000   1.0000   1.0000   1.0000   1.0000
     1.0000   1.0000   1.0000   1.0000   1.0000   1.0000   1.0000   1.0000
     1.0000   1.0000   1.0000   1.0000   1.0000   1.0000   1.0000   1.0000
     1.0000   1.0000   1.0000   1.0000   1.0000   1.0000   1.0000   0.0000
     0.0000   0.0000   0.0000   0.0000   0.0000   0.0000   0.0000   0.0000
     0.0000   0.0000   0.0000   0.0000   0.0000   0.0000   0.0000   0.0000
     0.0000   0.0000   0.0000   0.0000   0.0000   0.0000   0.0000   0.0000
     0.0000   0.0000   0.0000   0.0000   0.0000   0.0000   0.0000   0.0000
     0.0000   0.0000   0.0000   0.0000   0.0000   0.0000   0.0000   0.0000
     0.0000   0.0000   0.0000   0.0000   0.0000   0.0000   0.0000   0.0000
     0.0000   0.0000   0.0000   0.0000   0.0000   0.0000   0.0000   0.0000
     0.0000   0.0000   0.0000   0.0000

          k = 0.4615-0.1954 0.0000 ( 24696 PWs)   bands (ev):

   -36.6581 -36.6509 -36.6305 -36.6233 -36.6155 -36.6064 -36.5948 -36.5882
   -36.5792 -36.5677 -36.3429 -36.3408 -36.3187 -36.2934 -36.2880 -29.3542
   -29.3473 -29.3449 -29.3394 -29.3380 -29.3302 -29.3264 -29.3175 -29.3172
   -29.3080 -11.4050 -11.1367 -10.7341  -9.1042  -8.5506  -4.3204  -3.0282
    -2.9158  -2.6676  -2.0187  -1.5199  -0.4921  -0.2345   0.3427   2.7246
     2.8165   3.3971   4.5531   4.7194   5.6007   5.8779   7.3953   8.0109
     8.3343   9.0389   9.2685   9.2834   9.8266  10.1567  10.4516  10.6352
    11.0695  11.1155  11.2912  11.5304  11.7494  11.9529  12.2245  12.4817
    12.6170  12.7614  13.1085  13.1930  13.4685  13.8293  13.9395  14.3574
    14.4360  14.6470  14.8640  15.1727  15.3449  15.4659  15.8288  15.8633
    16.0755  16.2280  16.3082  16.6835  17.0021  17.0688  17.2216  17.4262
    17.6215  17.7404  18.1092  18.1280  18.4087  18.5452  18.6293  18.9959
    19.2496  19.2826  19.5415  19.8963

     occupation numbers 
     1.0000   1.0000   1.0000   1.0000   1.0000   1.0000   1.0000   1.0000
     1.0000   1.0000   1.0000   1.0000   1.0000   1.0000   1.0000   1.0000
     1.0000   1.0000   1.0000   1.0000   1.0000   1.0000   1.0000   1.0000
     1.0000   1.0000   1.0000   1.0000   1.0000   1.0000   1.0000   1.0000
     1.0000   1.0000   1.0000   1.0000   1.0000   1.0000   1.0000   0.0000
     0.0000   0.0000   0.0000   0.0000   0.0000   0.0000   0.0000   0.0000
     0.0000   0.0000   0.0000   0.0000   0.0000   0.0000   0.0000   0.0000
     0.0000   0.0000   0.0000   0.0000   0.0000   0.0000   0.0000   0.0000
     0.0000   0.0000   0.0000   0.0000   0.0000   0.0000   0.0000   0.0000
     0.0000   0.0000   0.0000   0.0000   0.0000   0.0000   0.0000   0.0000
     0.0000   0.0000   0.0000   0.0000   0.0000   0.0000   0.0000   0.0000
     0.0000   0.0000   0.0000   0.0000   0.0000   0.0000   0.0000   0.0000
     0.0000   0.0000   0.0000   0.0000

          k = 0.4615-0.1030 0.0000 ( 24744 PWs)   bands (ev):

   -36.6592 -36.6535 -36.6316 -36.6260 -36.6172 -36.6046 -36.5941 -36.5899
   -36.5774 -36.5670 -36.3437 -36.3396 -36.3268 -36.2937 -36.2909 -29.3487
   -29.3423 -29.3396 -29.3383 -29.3331 -29.3293 -29.3266 -29.3206 -29.3174
   -29.3110 -11.5245 -11.1857 -10.6524  -8.9569  -8.6148  -4.0955  -3.3702
    -2.8828  -2.7385  -2.0152  -1.7268  -0.3932  -0.0458   0.5173   2.6523
     3.2618   3.5047   4.4088   5.0097   5.5616   6.3634   7.5200   7.8052
     8.2465   8.5051   8.9633   9.1961   9.7283   9.8961  10.2921  10.5994
    10.9544  11.1380  11.1908  11.5126  11.7242  11.9716  12.0572  12.5256
    12.6407  12.7541  13.0060  13.1387  13.4211  13.4941  13.8187  14.0583
    14.2411  14.3623  14.6828  15.0345  15.2228  15.7698  15.9280  15.9917
    16.5529  16.6569  16.8929  16.9624  17.0166  17.1289  17.5934  17.6441
    17.8692  18.0230  18.0799  18.3927  18.5202  18.8219  19.0312  19.1717
    19.3831  19.7542  20.0196  20.0940

     occupation numbers 
     1.0000   1.0000   1.0000   1.0000   1.0000   1.0000   1.0000   1.0000
     1.0000   1.0000   1.0000   1.0000   1.0000   1.0000   1.0000   1.0000
     1.0000   1.0000   1.0000   1.0000   1.0000   1.0000   1.0000   1.0000
     1.0000   1.0000   1.0000   1.0000   1.0000   1.0000   1.0000   1.0000
     1.0000   1.0000   1.0000   1.0000   1.0000   1.0000   1.0000   0.0000
     0.0000   0.0000   0.0000   0.0000   0.0000   0.0000   0.0000   0.0000
     0.0000   0.0000   0.0000   0.0000   0.0000   0.0000   0.0000   0.0000
     0.0000   0.0000   0.0000   0.0000   0.0000   0.0000   0.0000   0.0000
     0.0000   0.0000   0.0000   0.0000   0.0000   0.0000   0.0000   0.0000
     0.0000   0.0000   0.0000   0.0000   0.0000   0.0000   0.0000   0.0000
     0.0000   0.0000   0.0000   0.0000   0.0000   0.0000   0.0000   0.0000
     0.0000   0.0000   0.0000   0.0000   0.0000   0.0000   0.0000   0.0000
     0.0000   0.0000   0.0000   0.0000

          k = 0.4615-0.0107 0.0000 ( 24760 PWs)   bands (ev):

   -36.6627 -36.6460 -36.6352 -36.6185 -36.6157 -36.6060 -36.5934 -36.5884
   -36.5788 -36.5662 -36.3425 -36.3368 -36.3290 -36.2921 -36.2900 -29.3454
   -29.3426 -29.3383 -29.3361 -29.3333 -29.3311 -29.3288 -29.3281 -29.3216
   -29.3187 -11.5694 -11.2092 -10.6257  -8.8760  -8.6748  -3.8258  -3.7308
    -2.8457  -2.4952  -2.3926  -1.7049  -0.2578   0.2493   0.3205   3.0382
     3.1588   3.5059   4.5752   5.1537   5.4266   7.1165   7.2998   7.6733
     7.8238   8.3537   8.7780   8.9347   9.6816   9.7637  10.3884  10.6393
    10.8296  10.9488  11.4374  11.5614  11.6110  12.1984  12.2385  12.3297
    12.4017  12.7874  12.9057  13.2657  13.3244  13.7299  13.9939  14.0684
    14.1033  14.3691  14.4653  14.7304  14.9871  15.3804  15.8591  16.2508
    16.5251  16.7115  16.9506  16.9987  17.0537  17.4367  17.6969  17.7727
    18.1106  18.1898  18.4750  18.7127  19.0531  19.1184  19.2705  19.3292
    19.5143  19.7088  19.9901  20.0458

     occupation numbers 
     1.0000   1.0000   1.0000   1.0000   1.0000   1.0000   1.0000   1.0000
     1.0000   1.0000   1.0000   1.0000   1.0000   1.0000   1.0000   1.0000
     1.0000   1.0000   1.0000   1.0000   1.0000   1.0000   1.0000   1.0000
     1.0000   1.0000   1.0000   1.0000   1.0000   1.0000   1.0000   1.0000
     1.0000   1.0000   1.0000   1.0000   1.0000   1.0000   1.0000   0.0000
     0.0000   0.0000   0.0000   0.0000   0.0000   0.0000   0.0000   0.0000
     0.0000   0.0000   0.0000   0.0000   0.0000   0.0000   0.0000   0.0000
     0.0000   0.0000   0.0000   0.0000   0.0000   0.0000   0.0000   0.0000
     0.0000   0.0000   0.0000   0.0000   0.0000   0.0000   0.0000   0.0000
     0.0000   0.0000   0.0000   0.0000   0.0000   0.0000   0.0000   0.0000
     0.0000   0.0000   0.0000   0.0000   0.0000   0.0000   0.0000   0.0000
     0.0000   0.0000   0.0000   0.0000   0.0000   0.0000   0.0000   0.0000
     0.0000   0.0000   0.0000   0.0000

          k = 0.4615 0.0817 0.0000 ( 24746 PWs)   bands (ev):

   -36.6611 -36.6538 -36.6336 -36.6263 -36.6145 -36.6085 -36.5952 -36.5872
   -36.5812 -36.5680 -36.3440 -36.3354 -36.3327 -36.2943 -36.2910 -29.3459
   -29.3435 -29.3386 -29.3366 -29.3342 -29.3302 -29.3286 -29.3203 -29.3177
   -29.3082 -11.5485 -11.2184 -10.6865  -8.9891  -8.6018  -4.0957  -3.3531
    -2.8335  -2.7018  -2.0312  -1.6634  -0.3473  -0.0103   0.6102   2.7937
     3.3624   3.4774   4.4560   5.1176   5.5258   6.4345   7.4915   7.7707
     8.2362   8.3197   8.9140   9.0812   9.6352   9.8981  10.2382  10.5271
    10.9752  11.0049  11.2519  11.4220  11.7647  12.1503  12.2529  12.5283
    12.7575  12.9294  13.1014  13.1661  13.3932  13.4272  13.7965  14.0132
    14.1507  14.4265  14.8206  15.0789  15.2890  15.6850  15.8199  15.9565
    16.4050  16.6259  16.8410  17.0301  17.0646  17.0894  17.5679  17.7190
    17.9122  18.0420  18.1212  18.2484  18.3056  18.5640  18.9296  19.1504
    19.2146  19.7625  19.8891  19.9874

     occupation numbers 
     1.0000   1.0000   1.0000   1.0000   1.0000   1.0000   1.0000   1.0000
     1.0000   1.0000   1.0000   1.0000   1.0000   1.0000   1.0000   1.0000
     1.0000   1.0000   1.0000   1.0000   1.0000   1.0000   1.0000   1.0000
     1.0000   1.0000   1.0000   1.0000   1.0000   1.0000   1.0000   1.0000
     1.0000   1.0000   1.0000   1.0000   1.0000   1.0000   1.0000   0.0000
     0.0000   0.0000   0.0000   0.0000   0.0000   0.0000   0.0000   0.0000
     0.0000   0.0000   0.0000   0.0000   0.0000   0.0000   0.0000   0.0000
     0.0000   0.0000   0.0000   0.0000   0.0000   0.0000   0.0000   0.0000
     0.0000   0.0000   0.0000   0.0000   0.0000   0.0000   0.0000   0.0000
     0.0000   0.0000   0.0000   0.0000   0.0000   0.0000   0.0000   0.0000
     0.0000   0.0000   0.0000   0.0000   0.0000   0.0000   0.0000   0.0000
     0.0000   0.0000   0.0000   0.0000   0.0000   0.0000   0.0000   0.0000
     0.0000   0.0000   0.0000   0.0000

          k = 0.4615 0.1741 0.0000 ( 24787 PWs)   bands (ev):

   -36.6615 -36.6532 -36.6339 -36.6257 -36.6125 -36.6109 -36.5955 -36.5854
   -36.5836 -36.5684 -36.3413 -36.3355 -36.3281 -36.2956 -36.2900 -29.3511
   -29.3481 -29.3420 -29.3391 -29.3387 -29.3302 -29.3284 -29.3196 -29.3135
   -29.3040 -11.4537 -11.1988 -10.7907  -9.1384  -8.5476  -4.3144  -3.0554
    -2.8232  -2.5793  -1.9524  -1.4615  -0.4122  -0.1599   0.4947   2.8821
     2.9847   3.4163   4.5912   4.8732   5.6161   5.9029   7.3386   7.9599
     8.3002   8.9326   9.1290   9.2116   9.7604  10.0348  10.3784  10.5079
    10.9093  11.1484  11.4349  11.6081  11.7891  12.0606  12.1803  12.5992
    12.6770  12.7674  13.1614  13.2596  13.6623  13.8510  14.0399  14.3317
    14.4326  14.5971  14.8797  15.1401  15.3465  15.4116  15.7404  15.9793
    16.1575  16.2316  16.3852  16.6086  16.8333  17.0201  17.0885  17.2820
    17.3917  17.5689  17.9491  18.0632  18.1521  18.6571  18.7666  18.9686
    19.1896  19.3025  19.4892  19.5925

     occupation numbers 
     1.0000   1.0000   1.0000   1.0000   1.0000   1.0000   1.0000   1.0000
     1.0000   1.0000   1.0000   1.0000   1.0000   1.0000   1.0000   1.0000
     1.0000   1.0000   1.0000   1.0000   1.0000   1.0000   1.0000   1.0000
     1.0000   1.0000   1.0000   1.0000   1.0000   1.0000   1.0000   1.0000
     1.0000   1.0000   1.0000   1.0000   1.0000   1.0000   1.0000   0.0000
     0.0000   0.0000   0.0000   0.0000   0.0000   0.0000   0.0000   0.0000
     0.0000   0.0000   0.0000   0.0000   0.0000   0.0000   0.0000   0.0000
     0.0000   0.0000   0.0000   0.0000   0.0000   0.0000   0.0000   0.0000
     0.0000   0.0000   0.0000   0.0000   0.0000   0.0000   0.0000   0.0000
     0.0000   0.0000   0.0000   0.0000   0.0000   0.0000   0.0000   0.0000
     0.0000   0.0000   0.0000   0.0000   0.0000   0.0000   0.0000   0.0000
     0.0000   0.0000   0.0000   0.0000   0.0000   0.0000   0.0000   0.0000
     0.0000   0.0000   0.0000   0.0000

     highest occupied, lowest unoccupied level (ev):     0.7921    1.7980

     Writing all to output data dir tmp/Sb2Te3-uatsx-c4-4.0.save/ :
     XML data file, pseudopotentials, collected wavefunctions

     init_run     :     12.20s CPU     13.15s WALL (       1 calls)
     electrons    :    849.56s CPU    859.89s WALL (       1 calls)

     Called by init_run:
     aceinit0     :     11.71s CPU     12.62s WALL (       1 calls)
     wfcinit      :      0.00s CPU      0.03s WALL (       1 calls)
     wfcinit:wfcr :      5.74s CPU      5.85s WALL (      86 calls)
     potinit      :      0.28s CPU      0.29s WALL (       1 calls)
     hinit0       :      0.15s CPU      0.16s WALL (       1 calls)

     Called by electrons:
     c_bands      :    259.69s CPU    263.40s WALL (       2 calls)
     sum_band     :      1.21s CPU      1.25s WALL (       1 calls)
     v_of_rho     :      0.02s CPU      0.02s WALL (       2 calls)
     v_h          :      0.00s CPU      0.00s WALL (       2 calls)
     v_xc         :      0.02s CPU      0.02s WALL (       2 calls)

     Called by c_bands:
     init_us_2    :      0.03s CPU      0.04s WALL (     129 calls)
     cegterg      :    239.78s CPU    243.16s WALL (     265 calls)

     Called by sum_band:
     sum_band:wei :      0.00s CPU      0.00s WALL (       1 calls)
     sum_band:loo :      1.21s CPU      1.25s WALL (       1 calls)
     sum_band:buf :      0.01s CPU      0.01s WALL (      43 calls)
     sum_band:ini :      0.01s CPU      0.01s WALL (      43 calls)

     Called by *egterg:
     cdiaghg      :     75.24s CPU     75.75s WALL (    4641 calls)
     cegterg:over :     16.99s CPU     17.16s WALL (    4555 calls)
     cegterg:upda :      3.91s CPU      3.95s WALL (    4555 calls)
     cegterg:last :      7.41s CPU      7.48s WALL (    2321 calls)
     h_psi        :    132.27s CPU    134.90s WALL (    4906 calls)
     g_psi        :      0.73s CPU      0.74s WALL (    4555 calls)

     Called by h_psi:
     h_psi:calbec :      6.74s CPU      6.84s WALL (    4906 calls)
     vloc_psi     :    112.76s CPU    115.15s WALL (    4906 calls)
     add_vuspsi   :      1.83s CPU      1.86s WALL (    4906 calls)

     General routines
     calbec       :     15.02s CPU     15.23s WALL (    9855 calls)
     fft          :      0.17s CPU      0.17s WALL (      19 calls)
     ffts         :      0.00s CPU      0.00s WALL (       1 calls)
     fftw         :    109.39s CPU    111.70s WALL (  479114 calls)
     fftc         :    463.27s CPU    468.39s WALL (  860000 calls)
     fftcw        :      4.61s CPU      4.67s WALL (   12900 calls)
     davcio       :      0.04s CPU      0.05s WALL (     258 calls)

     Parallel routines

     EXX routines
     exx_grid     :      0.00s CPU      0.00s WALL (       1 calls)
     exxinit      :     23.88s CPU     24.38s WALL (       1 calls)
     vexx         :    522.34s CPU    528.15s WALL (      43 calls)
     matcalc      :      8.32s CPU      8.42s WALL (    4949 calls)
     aceupdate    :      0.04s CPU      0.04s WALL (      43 calls)
     vexxace      :     10.63s CPU     10.75s WALL (    4906 calls)
     aceinit      :    522.51s CPU    528.33s WALL (      43 calls)

     PWSCF        :  14m44.45s CPU  15m42.39s WALL


   This run was terminated on:   6:54: 8  20May2025            

=------------------------------------------------------------------------------=
   JOB DONE.
=------------------------------------------------------------------------------=
