
     Program PWSCF v.7.4.1 starts on 22Aug2025 at 13:14:54 

     This program is part of the open-source Quantum ESPRESSO suite
     for quantum simulation of materials; please cite
         "P. Giannozzi et al., J. Phys.:Condens. Matter 21 395502 (2009);
         "P. Giannozzi et al., J. Phys.:Condens. Matter 29 465901 (2017);
         "P. Giannozzi et al., J. Chem. Phys. 152 154105 (2020);
          URL http://www.quantum-espresso.org", 
     in publications or presentations arising from this work. More details at
     http://www.quantum-espresso.org/quote

     Parallel version (MPI & OpenMP), running on      48 processor cores
     Number of MPI processes:                24
     Threads/MPI process:                     2

     MPI processes distributed on     2 nodes
     124248 MiB available memory on the printing compute node when the environment starts

     Waiting for input...
     Reading input from standard input

     Current dimensions of program PWSCF are:
     Max number of different atomic species (ntypx) = 10
     Max number of k-points (npk) =  40000
     Max angular momentum in pseudopotentials (lmaxx) =  4
Error reading attribute index: expected integer, found *
Error reading attribute index: expected integer, found *

     IMPORTANT: XC functional enforced from input :
     Exchange-correlation= PBE
                           (   1   4   3   4   0   0   0)
     Any further DFT definition will be discarded
     Please, verify this is what you really want

     Message from routine setup:
     no reason to have ecutrho>4*ecutwfc

     R & G space division:  proc/nbgrp/npool/nimage =      24
     Subspace diagonalization in iterative solution of the eigenvalue problem:
     a serial algorithm will be used


     Parallelization info
     --------------------
     sticks:   dense  smooth     PW     G-vecs:    dense   smooth      PW
     Min         133      53     15                31371     7939    1203
     Max         134      54     16                31398     7956    1224
     Sum        3205    1285    367               753229   190727   29057

     Using Slab Decomposition



     bravais-lattice index     =            0
     lattice parameter (alat)  =       8.1456  a.u.
     unit-cell volume          =    2407.5243 (a.u.)^3
     number of atoms/cell      =            5
     number of atomic types    =            2
     number of electrons       =        78.00
     number of Kohn-Sham states=           78
     kinetic-energy cutoff     =      70.0000  Ry
     charge density cutoff     =     700.0000  Ry
     scf convergence threshold =      1.0E-07
     mixing beta               =       0.7000
     number of iterations used =            8  plain     mixing
     Exchange-correlation= PBE
                           (   1   4   3   4   0   0   0)
     Non magnetic calculation with spin-orbit


     celldm(1)=   8.145633  celldm(2)=   0.000000  celldm(3)=   0.000000
     celldm(4)=   0.000000  celldm(5)=   0.000000  celldm(6)=   0.000000

     crystal axes: (cart. coord. in units of alat)
               a(1) = (   1.000000   0.000000   0.000000 )  
               a(2) = (  -0.500000   0.866351   0.000000 )  
               a(3) = (   0.000000   0.000000   5.141647 )  

     reciprocal axes: (cart. coord. in units 2 pi/alat)
               b(1) = (  1.000000  0.577133 -0.000000 )  
               b(2) = (  0.000000  1.154267  0.000000 )  
               b(3) = (  0.000000 -0.000000  0.194490 )  


     PseudoPot. # 1 for Sb read from file:
     /zfs-home/202401017n1/pseudos/Sb_ONCV_PBE_FR-1.1.upf
     MD5 check sum: 7dc1726f2158e3c51e4807d42b9c5c65
     Pseudo is Norm-conserving, Zval = 15.0
     Generated using ONCVPSP code by D. R. Hamann
     Using radial grid of  602 points, 10 beta functions with: 
                l(1) =   0
                l(2) =   0
                l(3) =   1
                l(4) =   1
                l(5) =   1
                l(6) =   1
                l(7) =   2
                l(8) =   2
                l(9) =   2
               l(10) =   2

     PseudoPot. # 2 for Te read from file:
     /zfs-home/202401017n1/pseudos/Te_ONCV_PBE_FR-1.1.upf
     MD5 check sum: c6e17480449037a9a9d16e6377b5c7c4
     Pseudo is Norm-conserving, Zval = 16.0
     Generated using ONCVPSP code by D. R. Hamann
     Using radial grid of  602 points, 10 beta functions with: 
                l(1) =   0
                l(2) =   0
                l(3) =   1
                l(4) =   1
                l(5) =   1
                l(6) =   1
                l(7) =   2
                l(8) =   2
                l(9) =   2
               l(10) =   2

     atomic species   valence    mass     pseudopotential
     Sb               15.00   121.76000     Sb( 1.00)
     Te               16.00   127.60000     Te( 1.00)

     No symmetry found


                                    s                        frac. trans.

      isym =  1     identity                                     

 cryst.   s( 1) = (     1          0          0      )
                  (     0          1          0      )
                  (     0          0          1      )

 cart.    s( 1) = (  1.0000000  0.0000000  0.0000000 )
                  (  0.0000000  1.0000000  0.0000000 )
                  (  0.0000000  0.0000000  1.0000000 )


   Cartesian axes

     site n.     atom                  positions (alat units)
         1        Sb     tau(   1) = (   0.5754431   0.4220521   3.0333851  )
         2        Te     tau(   2) = (   0.5747551   0.4223309   1.7144876  )
         3        Sb     tau(   3) = (   0.0752910   0.1326355   2.1082148  )
         4        Te     tau(   4) = (   0.0751205   0.1338578   3.4271228  )
         5        Te     tau(   5) = (   0.0748618   0.7114055   2.5708084  )

     -------------------------------------------------
     Parameters for Dispersion (Grimme-D2) Correction:
     -------------------------------------------------
       atom      VdW radius       C_6     

        Sb         3.555       1333.532
        Te         3.575       1101.101

   Crystallographic axes

     site n.     atom                  positions (cryst. coord.)
         1        Sb     tau(   1) = (  0.8190235  0.4871607  0.5899637  )
         2        Te     tau(   2) = (  0.8184963  0.4874825  0.3334511  )
         3        Sb     tau(   3) = (  0.1518394  0.1530967  0.4100271  )
         4        Te     tau(   4) = (  0.1523743  0.1545076  0.6665418  )
         5        Te     tau(   5) = (  0.4854376  0.8211517  0.4999971  )

     number of k points=   221
                       cart. coord. in units 2pi/alat
        k(    1) = (   0.0000000   0.0000000   0.0000000), wk =   0.0022676
        k(    2) = (   0.0000000   0.0549651   0.0000000), wk =   0.0045351
        k(    3) = (   0.0000000   0.1099302   0.0000000), wk =   0.0045351
        k(    4) = (   0.0000000   0.1648952   0.0000000), wk =   0.0045351
        k(    5) = (   0.0000000   0.2198603   0.0000000), wk =   0.0045351
        k(    6) = (   0.0000000   0.2748254   0.0000000), wk =   0.0045351
        k(    7) = (   0.0000000   0.3297905   0.0000000), wk =   0.0045351
        k(    8) = (   0.0000000   0.3847556   0.0000000), wk =   0.0045351
        k(    9) = (   0.0000000   0.4397206   0.0000000), wk =   0.0045351
        k(   10) = (   0.0000000   0.4946857   0.0000000), wk =   0.0045351
        k(   11) = (   0.0000000   0.5496508   0.0000000), wk =   0.0045351
        k(   12) = (   0.0476190   0.0274825   0.0000000), wk =   0.0045351
        k(   13) = (   0.0476190   0.0824476   0.0000000), wk =   0.0045351
        k(   14) = (   0.0476190   0.1374127   0.0000000), wk =   0.0045351
        k(   15) = (   0.0476190   0.1923778   0.0000000), wk =   0.0045351
        k(   16) = (   0.0476190   0.2473429   0.0000000), wk =   0.0045351
        k(   17) = (   0.0476190   0.3023079   0.0000000), wk =   0.0045351
        k(   18) = (   0.0476190   0.3572730   0.0000000), wk =   0.0045351
        k(   19) = (   0.0476190   0.4122381   0.0000000), wk =   0.0045351
        k(   20) = (   0.0476190   0.4672032   0.0000000), wk =   0.0045351
        k(   21) = (   0.0476190   0.5221682   0.0000000), wk =   0.0045351
        k(   22) = (   0.0476190   0.5771333   0.0000000), wk =   0.0045351
        k(   23) = (   0.0952381   0.0549651   0.0000000), wk =   0.0045351
        k(   24) = (   0.0952381   0.1099302   0.0000000), wk =   0.0045351
        k(   25) = (   0.0952381   0.1648952   0.0000000), wk =   0.0045351
        k(   26) = (   0.0952381   0.2198603   0.0000000), wk =   0.0045351
        k(   27) = (   0.0952381   0.2748254   0.0000000), wk =   0.0045351
        k(   28) = (   0.0952381   0.3297905   0.0000000), wk =   0.0045351
        k(   29) = (   0.0952381   0.3847556   0.0000000), wk =   0.0045351
        k(   30) = (   0.0952381   0.4397206   0.0000000), wk =   0.0045351
        k(   31) = (   0.0952381   0.4946857   0.0000000), wk =   0.0045351
        k(   32) = (   0.0952381   0.5496508   0.0000000), wk =   0.0045351
        k(   33) = (   0.0952381  -0.0000000   0.0000000), wk =   0.0045351
        k(   34) = (   0.1428571   0.0824476   0.0000000), wk =   0.0045351
        k(   35) = (   0.1428571   0.1374127   0.0000000), wk =   0.0045351
        k(   36) = (   0.1428571   0.1923778   0.0000000), wk =   0.0045351
        k(   37) = (   0.1428571   0.2473429   0.0000000), wk =   0.0045351
        k(   38) = (   0.1428571   0.3023079   0.0000000), wk =   0.0045351
        k(   39) = (   0.1428571   0.3572730   0.0000000), wk =   0.0045351
        k(   40) = (   0.1428571   0.4122381   0.0000000), wk =   0.0045351
        k(   41) = (   0.1428571   0.4672032   0.0000000), wk =   0.0045351
        k(   42) = (   0.1428571   0.5221682   0.0000000), wk =   0.0045351
        k(   43) = (   0.1428571   0.5771333   0.0000000), wk =   0.0045351
        k(   44) = (   0.1428571  -0.0274825   0.0000000), wk =   0.0045351
        k(   45) = (   0.1904762   0.1099302   0.0000000), wk =   0.0045351
        k(   46) = (   0.1904762   0.1648952   0.0000000), wk =   0.0045351
        k(   47) = (   0.1904762   0.2198603   0.0000000), wk =   0.0045351
        k(   48) = (   0.1904762   0.2748254   0.0000000), wk =   0.0045351
        k(   49) = (   0.1904762   0.3297905   0.0000000), wk =   0.0045351
        k(   50) = (   0.1904762   0.3847556   0.0000000), wk =   0.0045351
        k(   51) = (   0.1904762   0.4397206   0.0000000), wk =   0.0045351
        k(   52) = (   0.1904762   0.4946857   0.0000000), wk =   0.0045351
        k(   53) = (   0.1904762   0.5496508   0.0000000), wk =   0.0045351
        k(   54) = (   0.1904762  -0.0549651   0.0000000), wk =   0.0045351
        k(   55) = (   0.1904762  -0.0000000   0.0000000), wk =   0.0045351
        k(   56) = (   0.2380952   0.1374127   0.0000000), wk =   0.0045351
        k(   57) = (   0.2380952   0.1923778   0.0000000), wk =   0.0045351
        k(   58) = (   0.2380952   0.2473429   0.0000000), wk =   0.0045351
        k(   59) = (   0.2380952   0.3023079   0.0000000), wk =   0.0045351
        k(   60) = (   0.2380952   0.3572730   0.0000000), wk =   0.0045351
        k(   61) = (   0.2380952   0.4122381   0.0000000), wk =   0.0045351
        k(   62) = (   0.2380952   0.4672032   0.0000000), wk =   0.0045351
        k(   63) = (   0.2380952   0.5221682   0.0000000), wk =   0.0045351
        k(   64) = (   0.2380952   0.5771333   0.0000000), wk =   0.0045351
        k(   65) = (   0.2380952  -0.0824476   0.0000000), wk =   0.0045351
        k(   66) = (   0.2380952  -0.0274825   0.0000000), wk =   0.0045351
        k(   67) = (   0.2857143   0.1648952   0.0000000), wk =   0.0045351
        k(   68) = (   0.2857143   0.2198603   0.0000000), wk =   0.0045351
        k(   69) = (   0.2857143   0.2748254   0.0000000), wk =   0.0045351
        k(   70) = (   0.2857143   0.3297905   0.0000000), wk =   0.0045351
        k(   71) = (   0.2857143   0.3847556   0.0000000), wk =   0.0045351
        k(   72) = (   0.2857143   0.4397206   0.0000000), wk =   0.0045351
        k(   73) = (   0.2857143   0.4946857   0.0000000), wk =   0.0045351
        k(   74) = (   0.2857143   0.5496508   0.0000000), wk =   0.0045351
        k(   75) = (   0.2857143  -0.1099302   0.0000000), wk =   0.0045351
        k(   76) = (   0.2857143  -0.0549651   0.0000000), wk =   0.0045351
        k(   77) = (   0.2857143  -0.0000000   0.0000000), wk =   0.0045351
        k(   78) = (   0.3333333   0.1923778   0.0000000), wk =   0.0045351
        k(   79) = (   0.3333333   0.2473429   0.0000000), wk =   0.0045351
        k(   80) = (   0.3333333   0.3023079   0.0000000), wk =   0.0045351
        k(   81) = (   0.3333333   0.3572730   0.0000000), wk =   0.0045351
        k(   82) = (   0.3333333   0.4122381   0.0000000), wk =   0.0045351
        k(   83) = (   0.3333333   0.4672032   0.0000000), wk =   0.0045351
        k(   84) = (   0.3333333   0.5221682   0.0000000), wk =   0.0045351
        k(   85) = (   0.3333333   0.5771333   0.0000000), wk =   0.0045351
        k(   86) = (   0.3333333  -0.1374127   0.0000000), wk =   0.0045351
        k(   87) = (   0.3333333  -0.0824476   0.0000000), wk =   0.0045351
        k(   88) = (   0.3333333  -0.0274825   0.0000000), wk =   0.0045351
        k(   89) = (   0.3809524   0.2198603   0.0000000), wk =   0.0045351
        k(   90) = (   0.3809524   0.2748254   0.0000000), wk =   0.0045351
        k(   91) = (   0.3809524   0.3297905   0.0000000), wk =   0.0045351
        k(   92) = (   0.3809524   0.3847556   0.0000000), wk =   0.0045351
        k(   93) = (   0.3809524   0.4397206   0.0000000), wk =   0.0045351
        k(   94) = (   0.3809524   0.4946857   0.0000000), wk =   0.0045351
        k(   95) = (   0.3809524   0.5496508   0.0000000), wk =   0.0045351
        k(   96) = (   0.3809524  -0.1648952   0.0000000), wk =   0.0045351
        k(   97) = (   0.3809524  -0.1099302   0.0000000), wk =   0.0045351
        k(   98) = (   0.3809524  -0.0549651   0.0000000), wk =   0.0045351
        k(   99) = (   0.3809524  -0.0000000   0.0000000), wk =   0.0045351
        k(  100) = (   0.4285714   0.2473429   0.0000000), wk =   0.0045351
        k(  101) = (   0.4285714   0.3023079   0.0000000), wk =   0.0045351
        k(  102) = (   0.4285714   0.3572730   0.0000000), wk =   0.0045351
        k(  103) = (   0.4285714   0.4122381   0.0000000), wk =   0.0045351
        k(  104) = (   0.4285714   0.4672032   0.0000000), wk =   0.0045351
        k(  105) = (   0.4285714   0.5221682   0.0000000), wk =   0.0045351
        k(  106) = (   0.4285714   0.5771333   0.0000000), wk =   0.0045351
        k(  107) = (   0.4285714  -0.1923778   0.0000000), wk =   0.0045351
        k(  108) = (   0.4285714  -0.1374127   0.0000000), wk =   0.0045351
        k(  109) = (   0.4285714  -0.0824476   0.0000000), wk =   0.0045351
        k(  110) = (   0.4285714  -0.0274825   0.0000000), wk =   0.0045351
        k(  111) = (   0.4761905   0.2748254   0.0000000), wk =   0.0045351
        k(  112) = (   0.4761905   0.3297905   0.0000000), wk =   0.0045351
        k(  113) = (   0.4761905   0.3847556   0.0000000), wk =   0.0045351
        k(  114) = (   0.4761905   0.4397206   0.0000000), wk =   0.0045351
        k(  115) = (   0.4761905   0.4946857   0.0000000), wk =   0.0045351
        k(  116) = (   0.4761905   0.5496508   0.0000000), wk =   0.0045351
        k(  117) = (   0.4761905  -0.2198603   0.0000000), wk =   0.0045351
        k(  118) = (   0.4761905  -0.1648952   0.0000000), wk =   0.0045351
        k(  119) = (   0.4761905  -0.1099302   0.0000000), wk =   0.0045351
        k(  120) = (   0.4761905  -0.0549651   0.0000000), wk =   0.0045351
        k(  121) = (   0.4761905  -0.0000000   0.0000000), wk =   0.0045351
        k(  122) = (  -0.0476190   0.0274825   0.0000000), wk =   0.0045351
        k(  123) = (  -0.0476190   0.0824476   0.0000000), wk =   0.0045351
        k(  124) = (  -0.0476190   0.1374127   0.0000000), wk =   0.0045351
        k(  125) = (  -0.0476190   0.1923778   0.0000000), wk =   0.0045351
        k(  126) = (  -0.0476190   0.2473429   0.0000000), wk =   0.0045351
        k(  127) = (  -0.0476190   0.3023079   0.0000000), wk =   0.0045351
        k(  128) = (  -0.0476190   0.3572730   0.0000000), wk =   0.0045351
        k(  129) = (  -0.0476190   0.4122381   0.0000000), wk =   0.0045351
        k(  130) = (  -0.0476190   0.4672032   0.0000000), wk =   0.0045351
        k(  131) = (  -0.0476190   0.5221682   0.0000000), wk =   0.0045351
        k(  132) = (  -0.0952381   0.0549651   0.0000000), wk =   0.0045351
        k(  133) = (  -0.0952381   0.1099302   0.0000000), wk =   0.0045351
        k(  134) = (  -0.0952381   0.1648952   0.0000000), wk =   0.0045351
        k(  135) = (  -0.0952381   0.2198603   0.0000000), wk =   0.0045351
        k(  136) = (  -0.0952381   0.2748254   0.0000000), wk =   0.0045351
        k(  137) = (  -0.0952381   0.3297905   0.0000000), wk =   0.0045351
        k(  138) = (  -0.0952381   0.3847556   0.0000000), wk =   0.0045351
        k(  139) = (  -0.0952381   0.4397206   0.0000000), wk =   0.0045351
        k(  140) = (  -0.0952381   0.4946857   0.0000000), wk =   0.0045351
        k(  141) = (  -0.0952381   0.5496508   0.0000000), wk =   0.0045351
        k(  142) = (  -0.1428571   0.0824476   0.0000000), wk =   0.0045351
        k(  143) = (  -0.1428571   0.1374127   0.0000000), wk =   0.0045351
        k(  144) = (  -0.1428571   0.1923778   0.0000000), wk =   0.0045351
        k(  145) = (  -0.1428571   0.2473429   0.0000000), wk =   0.0045351
        k(  146) = (  -0.1428571   0.3023079   0.0000000), wk =   0.0045351
        k(  147) = (  -0.1428571   0.3572730   0.0000000), wk =   0.0045351
        k(  148) = (  -0.1428571   0.4122381   0.0000000), wk =   0.0045351
        k(  149) = (  -0.1428571   0.4672032   0.0000000), wk =   0.0045351
        k(  150) = (  -0.1428571   0.5221682   0.0000000), wk =   0.0045351
        k(  151) = (  -0.1428571  -0.0274825   0.0000000), wk =   0.0045351
        k(  152) = (  -0.1904762   0.1099302   0.0000000), wk =   0.0045351
        k(  153) = (  -0.1904762   0.1648952   0.0000000), wk =   0.0045351
        k(  154) = (  -0.1904762   0.2198603   0.0000000), wk =   0.0045351
        k(  155) = (  -0.1904762   0.2748254   0.0000000), wk =   0.0045351
        k(  156) = (  -0.1904762   0.3297905   0.0000000), wk =   0.0045351
        k(  157) = (  -0.1904762   0.3847556   0.0000000), wk =   0.0045351
        k(  158) = (  -0.1904762   0.4397206   0.0000000), wk =   0.0045351
        k(  159) = (  -0.1904762   0.4946857   0.0000000), wk =   0.0045351
        k(  160) = (  -0.1904762   0.5496508   0.0000000), wk =   0.0045351
        k(  161) = (  -0.1904762  -0.0549651   0.0000000), wk =   0.0045351
        k(  162) = (  -0.2380952   0.1374127   0.0000000), wk =   0.0045351
        k(  163) = (  -0.2380952   0.1923778   0.0000000), wk =   0.0045351
        k(  164) = (  -0.2380952   0.2473429   0.0000000), wk =   0.0045351
        k(  165) = (  -0.2380952   0.3023079   0.0000000), wk =   0.0045351
        k(  166) = (  -0.2380952   0.3572730   0.0000000), wk =   0.0045351
        k(  167) = (  -0.2380952   0.4122381   0.0000000), wk =   0.0045351
        k(  168) = (  -0.2380952   0.4672032   0.0000000), wk =   0.0045351
        k(  169) = (  -0.2380952   0.5221682   0.0000000), wk =   0.0045351
        k(  170) = (  -0.2380952  -0.0824476   0.0000000), wk =   0.0045351
        k(  171) = (  -0.2380952  -0.0274825   0.0000000), wk =   0.0045351
        k(  172) = (  -0.2857143   0.1648952   0.0000000), wk =   0.0045351
        k(  173) = (  -0.2857143   0.2198603   0.0000000), wk =   0.0045351
        k(  174) = (  -0.2857143   0.2748254   0.0000000), wk =   0.0045351
        k(  175) = (  -0.2857143   0.3297905   0.0000000), wk =   0.0045351
        k(  176) = (  -0.2857143   0.3847556   0.0000000), wk =   0.0045351
        k(  177) = (  -0.2857143   0.4397206   0.0000000), wk =   0.0045351
        k(  178) = (  -0.2857143   0.4946857   0.0000000), wk =   0.0045351
        k(  179) = (  -0.2857143   0.5496508   0.0000000), wk =   0.0045351
        k(  180) = (  -0.2857143  -0.1099302   0.0000000), wk =   0.0045351
        k(  181) = (  -0.2857143  -0.0549651   0.0000000), wk =   0.0045351
        k(  182) = (  -0.3333333   0.1923778   0.0000000), wk =   0.0045351
        k(  183) = (  -0.3333333   0.2473429   0.0000000), wk =   0.0045351
        k(  184) = (  -0.3333333   0.3023079   0.0000000), wk =   0.0045351
        k(  185) = (  -0.3333333   0.3572730   0.0000000), wk =   0.0045351
        k(  186) = (  -0.3333333   0.4122381   0.0000000), wk =   0.0045351
        k(  187) = (  -0.3333333   0.4672032   0.0000000), wk =   0.0045351
        k(  188) = (  -0.3333333   0.5221682   0.0000000), wk =   0.0045351
        k(  189) = (  -0.3333333  -0.1374127   0.0000000), wk =   0.0045351
        k(  190) = (  -0.3333333  -0.0824476   0.0000000), wk =   0.0045351
        k(  191) = (  -0.3333333  -0.0274825   0.0000000), wk =   0.0045351
        k(  192) = (  -0.3809524   0.2198603   0.0000000), wk =   0.0045351
        k(  193) = (  -0.3809524   0.2748254   0.0000000), wk =   0.0045351
        k(  194) = (  -0.3809524   0.3297905   0.0000000), wk =   0.0045351
        k(  195) = (  -0.3809524   0.3847556   0.0000000), wk =   0.0045351
        k(  196) = (  -0.3809524   0.4397206   0.0000000), wk =   0.0045351
        k(  197) = (  -0.3809524   0.4946857   0.0000000), wk =   0.0045351
        k(  198) = (  -0.3809524   0.5496508   0.0000000), wk =   0.0045351
        k(  199) = (  -0.3809524  -0.1648952   0.0000000), wk =   0.0045351
        k(  200) = (  -0.3809524  -0.1099302   0.0000000), wk =   0.0045351
        k(  201) = (  -0.3809524  -0.0549651   0.0000000), wk =   0.0045351
        k(  202) = (  -0.4285714   0.2473429   0.0000000), wk =   0.0045351
        k(  203) = (  -0.4285714   0.3023079   0.0000000), wk =   0.0045351
        k(  204) = (  -0.4285714   0.3572730   0.0000000), wk =   0.0045351
        k(  205) = (  -0.4285714   0.4122381   0.0000000), wk =   0.0045351
        k(  206) = (  -0.4285714   0.4672032   0.0000000), wk =   0.0045351
        k(  207) = (  -0.4285714   0.5221682   0.0000000), wk =   0.0045351
        k(  208) = (  -0.4285714  -0.1923778   0.0000000), wk =   0.0045351
        k(  209) = (  -0.4285714  -0.1374127   0.0000000), wk =   0.0045351
        k(  210) = (  -0.4285714  -0.0824476   0.0000000), wk =   0.0045351
        k(  211) = (  -0.4285714  -0.0274825   0.0000000), wk =   0.0045351
        k(  212) = (  -0.4761905   0.2748254   0.0000000), wk =   0.0045351
        k(  213) = (  -0.4761905   0.3297905   0.0000000), wk =   0.0045351
        k(  214) = (  -0.4761905   0.3847556   0.0000000), wk =   0.0045351
        k(  215) = (  -0.4761905   0.4397206   0.0000000), wk =   0.0045351
        k(  216) = (  -0.4761905   0.4946857   0.0000000), wk =   0.0045351
        k(  217) = (  -0.4761905   0.5496508   0.0000000), wk =   0.0045351
        k(  218) = (  -0.4761905  -0.2198603   0.0000000), wk =   0.0045351
        k(  219) = (  -0.4761905  -0.1648952   0.0000000), wk =   0.0045351
        k(  220) = (  -0.4761905  -0.1099302   0.0000000), wk =   0.0045351
        k(  221) = (  -0.4761905  -0.0549651   0.0000000), wk =   0.0045351

                       cryst. coord.
        k(    1) = (   0.0000000   0.0000000   0.0000000), wk =   0.0022676
        k(    2) = (   0.0000000   0.0476190   0.0000000), wk =   0.0045351
        k(    3) = (   0.0000000   0.0952381   0.0000000), wk =   0.0045351
        k(    4) = (   0.0000000   0.1428571   0.0000000), wk =   0.0045351
        k(    5) = (   0.0000000   0.1904762   0.0000000), wk =   0.0045351
        k(    6) = (   0.0000000   0.2380952   0.0000000), wk =   0.0045351
        k(    7) = (   0.0000000   0.2857143   0.0000000), wk =   0.0045351
        k(    8) = (   0.0000000   0.3333333   0.0000000), wk =   0.0045351
        k(    9) = (   0.0000000   0.3809524   0.0000000), wk =   0.0045351
        k(   10) = (   0.0000000   0.4285714   0.0000000), wk =   0.0045351
        k(   11) = (   0.0000000   0.4761905   0.0000000), wk =   0.0045351
        k(   12) = (   0.0476190   0.0000000   0.0000000), wk =   0.0045351
        k(   13) = (   0.0476190   0.0476190   0.0000000), wk =   0.0045351
        k(   14) = (   0.0476190   0.0952381   0.0000000), wk =   0.0045351
        k(   15) = (   0.0476190   0.1428571   0.0000000), wk =   0.0045351
        k(   16) = (   0.0476190   0.1904762   0.0000000), wk =   0.0045351
        k(   17) = (   0.0476190   0.2380952   0.0000000), wk =   0.0045351
        k(   18) = (   0.0476190   0.2857143   0.0000000), wk =   0.0045351
        k(   19) = (   0.0476190   0.3333333   0.0000000), wk =   0.0045351
        k(   20) = (   0.0476190   0.3809524   0.0000000), wk =   0.0045351
        k(   21) = (   0.0476190   0.4285714   0.0000000), wk =   0.0045351
        k(   22) = (   0.0476190   0.4761905   0.0000000), wk =   0.0045351
        k(   23) = (   0.0952381   0.0000000   0.0000000), wk =   0.0045351
        k(   24) = (   0.0952381   0.0476190   0.0000000), wk =   0.0045351
        k(   25) = (   0.0952381   0.0952381   0.0000000), wk =   0.0045351
        k(   26) = (   0.0952381   0.1428571   0.0000000), wk =   0.0045351
        k(   27) = (   0.0952381   0.1904762   0.0000000), wk =   0.0045351
        k(   28) = (   0.0952381   0.2380952   0.0000000), wk =   0.0045351
        k(   29) = (   0.0952381   0.2857143   0.0000000), wk =   0.0045351
        k(   30) = (   0.0952381   0.3333333   0.0000000), wk =   0.0045351
        k(   31) = (   0.0952381   0.3809524   0.0000000), wk =   0.0045351
        k(   32) = (   0.0952381   0.4285714   0.0000000), wk =   0.0045351
        k(   33) = (   0.0952381  -0.0476190   0.0000000), wk =   0.0045351
        k(   34) = (   0.1428571   0.0000000   0.0000000), wk =   0.0045351
        k(   35) = (   0.1428571   0.0476190   0.0000000), wk =   0.0045351
        k(   36) = (   0.1428571   0.0952381   0.0000000), wk =   0.0045351
        k(   37) = (   0.1428571   0.1428571   0.0000000), wk =   0.0045351
        k(   38) = (   0.1428571   0.1904762   0.0000000), wk =   0.0045351
        k(   39) = (   0.1428571   0.2380952   0.0000000), wk =   0.0045351
        k(   40) = (   0.1428571   0.2857143   0.0000000), wk =   0.0045351
        k(   41) = (   0.1428571   0.3333333   0.0000000), wk =   0.0045351
        k(   42) = (   0.1428571   0.3809524   0.0000000), wk =   0.0045351
        k(   43) = (   0.1428571   0.4285714   0.0000000), wk =   0.0045351
        k(   44) = (   0.1428571  -0.0952381   0.0000000), wk =   0.0045351
        k(   45) = (   0.1904762   0.0000000   0.0000000), wk =   0.0045351
        k(   46) = (   0.1904762   0.0476190   0.0000000), wk =   0.0045351
        k(   47) = (   0.1904762   0.0952381   0.0000000), wk =   0.0045351
        k(   48) = (   0.1904762   0.1428571   0.0000000), wk =   0.0045351
        k(   49) = (   0.1904762   0.1904762   0.0000000), wk =   0.0045351
        k(   50) = (   0.1904762   0.2380952   0.0000000), wk =   0.0045351
        k(   51) = (   0.1904762   0.2857143   0.0000000), wk =   0.0045351
        k(   52) = (   0.1904762   0.3333333   0.0000000), wk =   0.0045351
        k(   53) = (   0.1904762   0.3809524   0.0000000), wk =   0.0045351
        k(   54) = (   0.1904762  -0.1428571   0.0000000), wk =   0.0045351
        k(   55) = (   0.1904762  -0.0952381   0.0000000), wk =   0.0045351
        k(   56) = (   0.2380952   0.0000000   0.0000000), wk =   0.0045351
        k(   57) = (   0.2380952   0.0476190   0.0000000), wk =   0.0045351
        k(   58) = (   0.2380952   0.0952381   0.0000000), wk =   0.0045351
        k(   59) = (   0.2380952   0.1428571   0.0000000), wk =   0.0045351
        k(   60) = (   0.2380952   0.1904762   0.0000000), wk =   0.0045351
        k(   61) = (   0.2380952   0.2380952   0.0000000), wk =   0.0045351
        k(   62) = (   0.2380952   0.2857143   0.0000000), wk =   0.0045351
        k(   63) = (   0.2380952   0.3333333   0.0000000), wk =   0.0045351
        k(   64) = (   0.2380952   0.3809524   0.0000000), wk =   0.0045351
        k(   65) = (   0.2380952  -0.1904762   0.0000000), wk =   0.0045351
        k(   66) = (   0.2380952  -0.1428571   0.0000000), wk =   0.0045351
        k(   67) = (   0.2857143   0.0000000   0.0000000), wk =   0.0045351
        k(   68) = (   0.2857143   0.0476190   0.0000000), wk =   0.0045351
        k(   69) = (   0.2857143   0.0952381   0.0000000), wk =   0.0045351
        k(   70) = (   0.2857143   0.1428571   0.0000000), wk =   0.0045351
        k(   71) = (   0.2857143   0.1904762   0.0000000), wk =   0.0045351
        k(   72) = (   0.2857143   0.2380952   0.0000000), wk =   0.0045351
        k(   73) = (   0.2857143   0.2857143   0.0000000), wk =   0.0045351
        k(   74) = (   0.2857143   0.3333333   0.0000000), wk =   0.0045351
        k(   75) = (   0.2857143  -0.2380952   0.0000000), wk =   0.0045351
        k(   76) = (   0.2857143  -0.1904762   0.0000000), wk =   0.0045351
        k(   77) = (   0.2857143  -0.1428571   0.0000000), wk =   0.0045351
        k(   78) = (   0.3333333   0.0000000   0.0000000), wk =   0.0045351
        k(   79) = (   0.3333333   0.0476190   0.0000000), wk =   0.0045351
        k(   80) = (   0.3333333   0.0952381   0.0000000), wk =   0.0045351
        k(   81) = (   0.3333333   0.1428571   0.0000000), wk =   0.0045351
        k(   82) = (   0.3333333   0.1904762   0.0000000), wk =   0.0045351
        k(   83) = (   0.3333333   0.2380952   0.0000000), wk =   0.0045351
        k(   84) = (   0.3333333   0.2857143   0.0000000), wk =   0.0045351
        k(   85) = (   0.3333333   0.3333333   0.0000000), wk =   0.0045351
        k(   86) = (   0.3333333  -0.2857143   0.0000000), wk =   0.0045351
        k(   87) = (   0.3333333  -0.2380952   0.0000000), wk =   0.0045351
        k(   88) = (   0.3333333  -0.1904762   0.0000000), wk =   0.0045351
        k(   89) = (   0.3809524   0.0000000   0.0000000), wk =   0.0045351
        k(   90) = (   0.3809524   0.0476190   0.0000000), wk =   0.0045351
        k(   91) = (   0.3809524   0.0952381   0.0000000), wk =   0.0045351
        k(   92) = (   0.3809524   0.1428571   0.0000000), wk =   0.0045351
        k(   93) = (   0.3809524   0.1904762   0.0000000), wk =   0.0045351
        k(   94) = (   0.3809524   0.2380952   0.0000000), wk =   0.0045351
        k(   95) = (   0.3809524   0.2857143   0.0000000), wk =   0.0045351
        k(   96) = (   0.3809524  -0.3333333   0.0000000), wk =   0.0045351
        k(   97) = (   0.3809524  -0.2857143   0.0000000), wk =   0.0045351
        k(   98) = (   0.3809524  -0.2380952   0.0000000), wk =   0.0045351
        k(   99) = (   0.3809524  -0.1904762   0.0000000), wk =   0.0045351
        k(  100) = (   0.4285714   0.0000000   0.0000000), wk =   0.0045351
        k(  101) = (   0.4285714   0.0476190   0.0000000), wk =   0.0045351
        k(  102) = (   0.4285714   0.0952381   0.0000000), wk =   0.0045351
        k(  103) = (   0.4285714   0.1428571   0.0000000), wk =   0.0045351
        k(  104) = (   0.4285714   0.1904762   0.0000000), wk =   0.0045351
        k(  105) = (   0.4285714   0.2380952   0.0000000), wk =   0.0045351
        k(  106) = (   0.4285714   0.2857143   0.0000000), wk =   0.0045351
        k(  107) = (   0.4285714  -0.3809524   0.0000000), wk =   0.0045351
        k(  108) = (   0.4285714  -0.3333333   0.0000000), wk =   0.0045351
        k(  109) = (   0.4285714  -0.2857143   0.0000000), wk =   0.0045351
        k(  110) = (   0.4285714  -0.2380952   0.0000000), wk =   0.0045351
        k(  111) = (   0.4761905   0.0000000   0.0000000), wk =   0.0045351
        k(  112) = (   0.4761905   0.0476190   0.0000000), wk =   0.0045351
        k(  113) = (   0.4761905   0.0952381   0.0000000), wk =   0.0045351
        k(  114) = (   0.4761905   0.1428571   0.0000000), wk =   0.0045351
        k(  115) = (   0.4761905   0.1904762   0.0000000), wk =   0.0045351
        k(  116) = (   0.4761905   0.2380952   0.0000000), wk =   0.0045351
        k(  117) = (   0.4761905  -0.4285714   0.0000000), wk =   0.0045351
        k(  118) = (   0.4761905  -0.3809524   0.0000000), wk =   0.0045351
        k(  119) = (   0.4761905  -0.3333333   0.0000000), wk =   0.0045351
        k(  120) = (   0.4761905  -0.2857143   0.0000000), wk =   0.0045351
        k(  121) = (   0.4761905  -0.2380952   0.0000000), wk =   0.0045351
        k(  122) = (  -0.0476190   0.0476190   0.0000000), wk =   0.0045351
        k(  123) = (  -0.0476190   0.0952381   0.0000000), wk =   0.0045351
        k(  124) = (  -0.0476190   0.1428571   0.0000000), wk =   0.0045351
        k(  125) = (  -0.0476190   0.1904762   0.0000000), wk =   0.0045351
        k(  126) = (  -0.0476190   0.2380952   0.0000000), wk =   0.0045351
        k(  127) = (  -0.0476190   0.2857143   0.0000000), wk =   0.0045351
        k(  128) = (  -0.0476190   0.3333333   0.0000000), wk =   0.0045351
        k(  129) = (  -0.0476190   0.3809524   0.0000000), wk =   0.0045351
        k(  130) = (  -0.0476190   0.4285714   0.0000000), wk =   0.0045351
        k(  131) = (  -0.0476190   0.4761905   0.0000000), wk =   0.0045351
        k(  132) = (  -0.0952381   0.0952381   0.0000000), wk =   0.0045351
        k(  133) = (  -0.0952381   0.1428571   0.0000000), wk =   0.0045351
        k(  134) = (  -0.0952381   0.1904762   0.0000000), wk =   0.0045351
        k(  135) = (  -0.0952381   0.2380952   0.0000000), wk =   0.0045351
        k(  136) = (  -0.0952381   0.2857143   0.0000000), wk =   0.0045351
        k(  137) = (  -0.0952381   0.3333333   0.0000000), wk =   0.0045351
        k(  138) = (  -0.0952381   0.3809524   0.0000000), wk =   0.0045351
        k(  139) = (  -0.0952381   0.4285714   0.0000000), wk =   0.0045351
        k(  140) = (  -0.0952381   0.4761905   0.0000000), wk =   0.0045351
        k(  141) = (  -0.0952381   0.5238095   0.0000000), wk =   0.0045351
        k(  142) = (  -0.1428571   0.1428571   0.0000000), wk =   0.0045351
        k(  143) = (  -0.1428571   0.1904762   0.0000000), wk =   0.0045351
        k(  144) = (  -0.1428571   0.2380952   0.0000000), wk =   0.0045351
        k(  145) = (  -0.1428571   0.2857143   0.0000000), wk =   0.0045351
        k(  146) = (  -0.1428571   0.3333333   0.0000000), wk =   0.0045351
        k(  147) = (  -0.1428571   0.3809524   0.0000000), wk =   0.0045351
        k(  148) = (  -0.1428571   0.4285714   0.0000000), wk =   0.0045351
        k(  149) = (  -0.1428571   0.4761905   0.0000000), wk =   0.0045351
        k(  150) = (  -0.1428571   0.5238095   0.0000000), wk =   0.0045351
        k(  151) = (  -0.1428571   0.0476190   0.0000000), wk =   0.0045351
        k(  152) = (  -0.1904762   0.1904762   0.0000000), wk =   0.0045351
        k(  153) = (  -0.1904762   0.2380952   0.0000000), wk =   0.0045351
        k(  154) = (  -0.1904762   0.2857143   0.0000000), wk =   0.0045351
        k(  155) = (  -0.1904762   0.3333333   0.0000000), wk =   0.0045351
        k(  156) = (  -0.1904762   0.3809524   0.0000000), wk =   0.0045351
        k(  157) = (  -0.1904762   0.4285714   0.0000000), wk =   0.0045351
        k(  158) = (  -0.1904762   0.4761905   0.0000000), wk =   0.0045351
        k(  159) = (  -0.1904762   0.5238095   0.0000000), wk =   0.0045351
        k(  160) = (  -0.1904762   0.5714286   0.0000000), wk =   0.0045351
        k(  161) = (  -0.1904762   0.0476190   0.0000000), wk =   0.0045351
        k(  162) = (  -0.2380952   0.2380952   0.0000000), wk =   0.0045351
        k(  163) = (  -0.2380952   0.2857143   0.0000000), wk =   0.0045351
        k(  164) = (  -0.2380952   0.3333333   0.0000000), wk =   0.0045351
        k(  165) = (  -0.2380952   0.3809524   0.0000000), wk =   0.0045351
        k(  166) = (  -0.2380952   0.4285714   0.0000000), wk =   0.0045351
        k(  167) = (  -0.2380952   0.4761905   0.0000000), wk =   0.0045351
        k(  168) = (  -0.2380952   0.5238095   0.0000000), wk =   0.0045351
        k(  169) = (  -0.2380952   0.5714286   0.0000000), wk =   0.0045351
        k(  170) = (  -0.2380952   0.0476190   0.0000000), wk =   0.0045351
        k(  171) = (  -0.2380952   0.0952381   0.0000000), wk =   0.0045351
        k(  172) = (  -0.2857143   0.2857143   0.0000000), wk =   0.0045351
        k(  173) = (  -0.2857143   0.3333333   0.0000000), wk =   0.0045351
        k(  174) = (  -0.2857143   0.3809524   0.0000000), wk =   0.0045351
        k(  175) = (  -0.2857143   0.4285714   0.0000000), wk =   0.0045351
        k(  176) = (  -0.2857143   0.4761905   0.0000000), wk =   0.0045351
        k(  177) = (  -0.2857143   0.5238095   0.0000000), wk =   0.0045351
        k(  178) = (  -0.2857143   0.5714286   0.0000000), wk =   0.0045351
        k(  179) = (  -0.2857143   0.6190476   0.0000000), wk =   0.0045351
        k(  180) = (  -0.2857143   0.0476190   0.0000000), wk =   0.0045351
        k(  181) = (  -0.2857143   0.0952381   0.0000000), wk =   0.0045351
        k(  182) = (  -0.3333333   0.3333333   0.0000000), wk =   0.0045351
        k(  183) = (  -0.3333333   0.3809524   0.0000000), wk =   0.0045351
        k(  184) = (  -0.3333333   0.4285714   0.0000000), wk =   0.0045351
        k(  185) = (  -0.3333333   0.4761905   0.0000000), wk =   0.0045351
        k(  186) = (  -0.3333333   0.5238095   0.0000000), wk =   0.0045351
        k(  187) = (  -0.3333333   0.5714286   0.0000000), wk =   0.0045351
        k(  188) = (  -0.3333333   0.6190476   0.0000000), wk =   0.0045351
        k(  189) = (  -0.3333333   0.0476190   0.0000000), wk =   0.0045351
        k(  190) = (  -0.3333333   0.0952381   0.0000000), wk =   0.0045351
        k(  191) = (  -0.3333333   0.1428571   0.0000000), wk =   0.0045351
        k(  192) = (  -0.3809524   0.3809524   0.0000000), wk =   0.0045351
        k(  193) = (  -0.3809524   0.4285714   0.0000000), wk =   0.0045351
        k(  194) = (  -0.3809524   0.4761905   0.0000000), wk =   0.0045351
        k(  195) = (  -0.3809524   0.5238095   0.0000000), wk =   0.0045351
        k(  196) = (  -0.3809524   0.5714286   0.0000000), wk =   0.0045351
        k(  197) = (  -0.3809524   0.6190476   0.0000000), wk =   0.0045351
        k(  198) = (  -0.3809524   0.6666667   0.0000000), wk =   0.0045351
        k(  199) = (  -0.3809524   0.0476190   0.0000000), wk =   0.0045351
        k(  200) = (  -0.3809524   0.0952381   0.0000000), wk =   0.0045351
        k(  201) = (  -0.3809524   0.1428571   0.0000000), wk =   0.0045351
        k(  202) = (  -0.4285714   0.4285714   0.0000000), wk =   0.0045351
        k(  203) = (  -0.4285714   0.4761905   0.0000000), wk =   0.0045351
        k(  204) = (  -0.4285714   0.5238095   0.0000000), wk =   0.0045351
        k(  205) = (  -0.4285714   0.5714286   0.0000000), wk =   0.0045351
        k(  206) = (  -0.4285714   0.6190476   0.0000000), wk =   0.0045351
        k(  207) = (  -0.4285714   0.6666667   0.0000000), wk =   0.0045351
        k(  208) = (  -0.4285714   0.0476190   0.0000000), wk =   0.0045351
        k(  209) = (  -0.4285714   0.0952381   0.0000000), wk =   0.0045351
        k(  210) = (  -0.4285714   0.1428571   0.0000000), wk =   0.0045351
        k(  211) = (  -0.4285714   0.1904762   0.0000000), wk =   0.0045351
        k(  212) = (  -0.4761905   0.4761905   0.0000000), wk =   0.0045351
        k(  213) = (  -0.4761905   0.5238095   0.0000000), wk =   0.0045351
        k(  214) = (  -0.4761905   0.5714286   0.0000000), wk =   0.0045351
        k(  215) = (  -0.4761905   0.6190476   0.0000000), wk =   0.0045351
        k(  216) = (  -0.4761905   0.6666667   0.0000000), wk =   0.0045351
        k(  217) = (  -0.4761905   0.7142857   0.0000000), wk =   0.0045351
        k(  218) = (  -0.4761905   0.0476190   0.0000000), wk =   0.0045351
        k(  219) = (  -0.4761905   0.0952381   0.0000000), wk =   0.0045351
        k(  220) = (  -0.4761905   0.1428571   0.0000000), wk =   0.0045351
        k(  221) = (  -0.4761905   0.1904762   0.0000000), wk =   0.0045351

     Dense  grid:   753229 G-vectors     FFT dimensions: (  72,  72, 360)

     Smooth grid:   190727 G-vectors     FFT dimensions: (  45,  45, 225)

     Dynamical RAM for                 wfc:       2.36 MB

     Dynamical RAM for     wfc (w. buffer):     524.21 MB

     Dynamical RAM for           str. fact:       0.96 MB

     Dynamical RAM for           local pot:       0.00 MB

     Dynamical RAM for          nlocal pot:       2.57 MB

     Dynamical RAM for                qrad:      11.12 MB

     Dynamical RAM for          rho,v,vnew:      12.86 MB

     Dynamical RAM for               rhoin:       4.29 MB

     Dynamical RAM for            rho*nmix:      30.64 MB

     Dynamical RAM for           G-vectors:       1.86 MB

     Dynamical RAM for          h,s,v(r/c):       1.11 MB

     Dynamical RAM for          <psi|beta>:       0.40 MB

     Dynamical RAM for                 psi:       4.72 MB

     Dynamical RAM for                hpsi:       4.72 MB

     Dynamical RAM for      wfcinit/wfcrot:       3.68 MB

     Estimated static dynamical RAM per process >     564.05 MB

     Estimated max dynamical RAM per process >     605.65 MB

     Estimated total dynamical RAM >      14.19 GB

     Initial potential from superposition of free atoms

     starting charge      77.7613, renormalised to      78.0000

     negative rho (up, down):  2.636E-04 0.000E+00
     Starting wfcs are random

     total cpu time spent up to now is       32.4 secs

     Self-consistent Calculation

     iteration #  1     ecut=    70.00 Ry     beta= 0.70
     Davidson diagonalization with overlap

---- Real-time Memory Report at c_bands before calling an iterative solver
           759 MiB given to the printing process from OS
             0 MiB allocation reported by mallinfo(arena+hblkhd)
        117317 MiB available memory on the node where the printing process lives
------------------
     ethr =  1.00E-02,  avg # of iterations = 12.5

     Threshold (ethr) on eigenvalues was too large:
     Diagonalizing with lowered threshold

     Davidson diagonalization with overlap

---- Real-time Memory Report at c_bands before calling an iterative solver
           770 MiB given to the printing process from OS
             0 MiB allocation reported by mallinfo(arena+hblkhd)
        117173 MiB available memory on the node where the printing process lives
------------------
     ethr =  1.13E-04,  avg # of iterations =  5.9

     negative rho (up, down):  3.373E-06 0.000E+00

     total cpu time spent up to now is      519.0 secs

     total energy              =    -806.64504696 Ry
     estimated scf accuracy    <       0.07538371 Ry

     iteration #  2     ecut=    70.00 Ry     beta= 0.70
     Davidson diagonalization with overlap

---- Real-time Memory Report at c_bands before calling an iterative solver
           771 MiB given to the printing process from OS
             0 MiB allocation reported by mallinfo(arena+hblkhd)
        117162 MiB available memory on the node where the printing process lives
------------------
     ethr =  9.66E-05,  avg # of iterations =  4.9

     negative rho (up, down):  2.189E-05 0.000E+00

     total cpu time spent up to now is      647.5 secs

     total energy              =    -806.60836879 Ry
     estimated scf accuracy    <       0.35615950 Ry

     iteration #  3     ecut=    70.00 Ry     beta= 0.70
     Davidson diagonalization with overlap

---- Real-time Memory Report at c_bands before calling an iterative solver
           773 MiB given to the printing process from OS
             0 MiB allocation reported by mallinfo(arena+hblkhd)
        117135 MiB available memory on the node where the printing process lives
------------------
     ethr =  9.66E-05,  avg # of iterations =  5.2

     negative rho (up, down):  1.896E-05 0.000E+00

     total cpu time spent up to now is      765.9 secs

     total energy              =    -806.65292867 Ry
     estimated scf accuracy    <       0.22349749 Ry

     iteration #  4     ecut=    70.00 Ry     beta= 0.70
     Davidson diagonalization with overlap

---- Real-time Memory Report at c_bands before calling an iterative solver
           774 MiB given to the printing process from OS
             0 MiB allocation reported by mallinfo(arena+hblkhd)
        117124 MiB available memory on the node where the printing process lives
------------------
     ethr =  9.66E-05,  avg # of iterations =  3.4

     negative rho (up, down):  1.978E-06 0.000E+00

     total cpu time spent up to now is      868.6 secs

     total energy              =    -806.67666360 Ry
     estimated scf accuracy    <       0.00250403 Ry

     iteration #  5     ecut=    70.00 Ry     beta= 0.70
     Davidson diagonalization with overlap

---- Real-time Memory Report at c_bands before calling an iterative solver
           776 MiB given to the printing process from OS
             0 MiB allocation reported by mallinfo(arena+hblkhd)
        117100 MiB available memory on the node where the printing process lives
------------------
     ethr =  3.21E-06,  avg # of iterations =  5.2

     negative rho (up, down):  2.700E-07 0.000E+00

     total cpu time spent up to now is      984.8 secs

     total energy              =    -806.67729182 Ry
     estimated scf accuracy    <       0.00280383 Ry

     iteration #  6     ecut=    70.00 Ry     beta= 0.70
     Davidson diagonalization with overlap

---- Real-time Memory Report at c_bands before calling an iterative solver
           777 MiB given to the printing process from OS
             0 MiB allocation reported by mallinfo(arena+hblkhd)
        117086 MiB available memory on the node where the printing process lives
------------------
     ethr =  3.21E-06,  avg # of iterations =  5.2

     negative rho (up, down):  1.816E-08 0.000E+00

     total cpu time spent up to now is     1087.1 secs

     total energy              =    -806.67715955 Ry
     estimated scf accuracy    <       0.00612004 Ry

     iteration #  7     ecut=    70.00 Ry     beta= 0.70
     Davidson diagonalization with overlap

---- Real-time Memory Report at c_bands before calling an iterative solver
           778 MiB given to the printing process from OS
             0 MiB allocation reported by mallinfo(arena+hblkhd)
        117076 MiB available memory on the node where the printing process lives
------------------
     ethr =  3.21E-06,  avg # of iterations =  5.1

     total cpu time spent up to now is     1185.7 secs

     total energy              =    -806.67749770 Ry
     estimated scf accuracy    <       0.00006728 Ry

     iteration #  8     ecut=    70.00 Ry     beta= 0.70
     Davidson diagonalization with overlap

---- Real-time Memory Report at c_bands before calling an iterative solver
           779 MiB given to the printing process from OS
             0 MiB allocation reported by mallinfo(arena+hblkhd)
        117065 MiB available memory on the node where the printing process lives
------------------
     ethr =  8.63E-08,  avg # of iterations =  6.1

     total cpu time spent up to now is     1294.2 secs

     total energy              =    -806.67751299 Ry
     estimated scf accuracy    <       0.00008627 Ry

     iteration #  9     ecut=    70.00 Ry     beta= 0.70
     Davidson diagonalization with overlap

---- Real-time Memory Report at c_bands before calling an iterative solver
           780 MiB given to the printing process from OS
             0 MiB allocation reported by mallinfo(arena+hblkhd)
        117051 MiB available memory on the node where the printing process lives
------------------
     ethr =  8.63E-08,  avg # of iterations =  3.3

     total cpu time spent up to now is     1384.8 secs

     total energy              =    -806.67751640 Ry
     estimated scf accuracy    <       0.00000702 Ry

     iteration # 10     ecut=    70.00 Ry     beta= 0.70
     Davidson diagonalization with overlap

---- Real-time Memory Report at c_bands before calling an iterative solver
           781 MiB given to the printing process from OS
             0 MiB allocation reported by mallinfo(arena+hblkhd)
        117039 MiB available memory on the node where the printing process lives
------------------
     ethr =  9.00E-09,  avg # of iterations =  6.3

     total cpu time spent up to now is     1493.1 secs

     total energy              =    -806.67751793 Ry
     estimated scf accuracy    <       0.00000843 Ry

     iteration # 11     ecut=    70.00 Ry     beta= 0.70
     Davidson diagonalization with overlap

---- Real-time Memory Report at c_bands before calling an iterative solver
           782 MiB given to the printing process from OS
             0 MiB allocation reported by mallinfo(arena+hblkhd)
        117028 MiB available memory on the node where the printing process lives
------------------
     ethr =  9.00E-09,  avg # of iterations =  1.4

     total cpu time spent up to now is     1574.4 secs

     total energy              =    -806.67751734 Ry
     estimated scf accuracy    <       0.00000538 Ry

     iteration # 12     ecut=    70.00 Ry     beta= 0.70
     Davidson diagonalization with overlap

---- Real-time Memory Report at c_bands before calling an iterative solver
           782 MiB given to the printing process from OS
             0 MiB allocation reported by mallinfo(arena+hblkhd)
        117022 MiB available memory on the node where the printing process lives
------------------
     ethr =  6.90E-09,  avg # of iterations =  5.1

     total cpu time spent up to now is     1672.0 secs

     total energy              =    -806.67751784 Ry
     estimated scf accuracy    <       0.00000011 Ry

     iteration # 13     ecut=    70.00 Ry     beta= 0.70
     Davidson diagonalization with overlap

---- Real-time Memory Report at c_bands before calling an iterative solver
           782 MiB given to the printing process from OS
             0 MiB allocation reported by mallinfo(arena+hblkhd)
        117015 MiB available memory on the node where the printing process lives
------------------
     ethr =  1.40E-10,  avg # of iterations =  5.7

     total cpu time spent up to now is     1775.4 secs

     total energy              =    -806.67751782 Ry
     estimated scf accuracy    <       0.00000039 Ry

     iteration # 14     ecut=    70.00 Ry     beta= 0.70
     Davidson diagonalization with overlap

---- Real-time Memory Report at c_bands before calling an iterative solver
           782 MiB given to the printing process from OS
             0 MiB allocation reported by mallinfo(arena+hblkhd)
        117016 MiB available memory on the node where the printing process lives
------------------
     ethr =  1.40E-10,  avg # of iterations =  5.4

     total cpu time spent up to now is     1875.7 secs

     End of self-consistent calculation

          k = 0.0000 0.0000 0.0000 ( 23771 PWs)   bands (ev):

   -35.3653 -35.3653 -35.3653 -35.3653 -35.3405 -35.3405 -35.3404 -35.3404
   -35.2615 -35.2615 -35.2254 -35.2254 -33.9054 -33.9054 -33.9053 -33.9053
   -33.8843 -33.8843 -33.8842 -33.8842 -33.8730 -33.8730 -33.8730 -33.8730
   -33.7990 -33.7990 -33.7836 -33.7836 -33.7521 -33.7521 -27.9809 -27.9809
   -27.9806 -27.9806 -27.9719 -27.9719 -27.9718 -27.9718 -26.7419 -26.7419
   -26.7417 -26.7417 -26.7317 -26.7317 -26.7316 -26.7316 -26.7306 -26.7306
   -26.7304 -26.7304 -10.5777 -10.5777 -10.0405 -10.0405  -8.9463  -8.9463
    -6.1646  -6.1646  -4.7074  -4.7074  -0.3927  -0.3927   0.1613   0.1613
     0.3881   0.3881   0.6665   0.6665   0.7651   0.7651   0.8783   0.8783
     1.0804   1.0804   1.4773   1.4773   1.6311   1.6311

     occupation numbers 
     1.0000   1.0000   1.0000   1.0000   1.0000   1.0000   1.0000   1.0000
     1.0000   1.0000   1.0000   1.0000   1.0000   1.0000   1.0000   1.0000
     1.0000   1.0000   1.0000   1.0000   1.0000   1.0000   1.0000   1.0000
     1.0000   1.0000   1.0000   1.0000   1.0000   1.0000   1.0000   1.0000
     1.0000   1.0000   1.0000   1.0000   1.0000   1.0000   1.0000   1.0000
     1.0000   1.0000   1.0000   1.0000   1.0000   1.0000   1.0000   1.0000
     1.0000   1.0000   1.0000   1.0000   1.0000   1.0000   1.0000   1.0000
     1.0000   1.0000   1.0000   1.0000   1.0000   1.0000   1.0000   1.0000
     1.0000   1.0000   1.0000   1.0000   1.0000   1.0000   1.0000   1.0000
     1.0000   1.0000   1.0000   1.0000   1.0000   1.0000

          k = 0.0000 0.0550 0.0000 ( 23759 PWs)   bands (ev):

   -35.3653 -35.3653 -35.3652 -35.3652 -35.3405 -35.3404 -35.3404 -35.3404
   -35.2615 -35.2615 -35.2253 -35.2253 -33.9053 -33.9053 -33.9053 -33.9053
   -33.8843 -33.8843 -33.8842 -33.8842 -33.8730 -33.8730 -33.8730 -33.8730
   -33.7990 -33.7990 -33.7836 -33.7836 -33.7521 -33.7521 -27.9808 -27.9808
   -27.9806 -27.9806 -27.9719 -27.9719 -27.9718 -27.9718 -26.7419 -26.7419
   -26.7416 -26.7416 -26.7317 -26.7317 -26.7317 -26.7317 -26.7306 -26.7306
   -26.7304 -26.7304 -10.5577 -10.5577 -10.0220 -10.0220  -8.9345  -8.9345
    -6.1658  -6.1657  -4.7395  -4.7395  -0.4207  -0.4203  -0.0415  -0.0397
     0.3613   0.3632   0.4692   0.4745   0.6052   0.6090   0.9084   0.9163
     1.1752   1.1788   1.3941   1.3970   1.7870   1.7894

     occupation numbers 
     1.0000   1.0000   1.0000   1.0000   1.0000   1.0000   1.0000   1.0000
     1.0000   1.0000   1.0000   1.0000   1.0000   1.0000   1.0000   1.0000
     1.0000   1.0000   1.0000   1.0000   1.0000   1.0000   1.0000   1.0000
     1.0000   1.0000   1.0000   1.0000   1.0000   1.0000   1.0000   1.0000
     1.0000   1.0000   1.0000   1.0000   1.0000   1.0000   1.0000   1.0000
     1.0000   1.0000   1.0000   1.0000   1.0000   1.0000   1.0000   1.0000
     1.0000   1.0000   1.0000   1.0000   1.0000   1.0000   1.0000   1.0000
     1.0000   1.0000   1.0000   1.0000   1.0000   1.0000   1.0000   1.0000
     1.0000   1.0000   1.0000   1.0000   1.0000   1.0000   1.0000   1.0000
     1.0000   1.0000   1.0000   1.0000   1.0000   1.0000

          k = 0.0000 0.1099 0.0000 ( 23761 PWs)   bands (ev):

   -35.3653 -35.3653 -35.3652 -35.3652 -35.3405 -35.3404 -35.3404 -35.3404
   -35.2615 -35.2615 -35.2253 -35.2253 -33.9053 -33.9053 -33.9052 -33.9052
   -33.8843 -33.8843 -33.8842 -33.8842 -33.8730 -33.8730 -33.8729 -33.8729
   -33.7990 -33.7990 -33.7836 -33.7836 -33.7520 -33.7520 -27.9808 -27.9808
   -27.9805 -27.9805 -27.9720 -27.9719 -27.9718 -27.9718 -26.7417 -26.7417
   -26.7415 -26.7415 -26.7318 -26.7318 -26.7318 -26.7318 -26.7306 -26.7305
   -26.7304 -26.7303 -10.4978 -10.4978  -9.9668  -9.9668  -8.8999  -8.8999
    -6.1714  -6.1713  -4.8365  -4.8364  -0.5622  -0.5618  -0.3942  -0.3923
     0.0790   0.0839   0.2341   0.2365   0.4560   0.4586   0.7155   0.7173
     1.1751   1.1781   1.5860   1.5878   1.8867   1.8893

     occupation numbers 
     1.0000   1.0000   1.0000   1.0000   1.0000   1.0000   1.0000   1.0000
     1.0000   1.0000   1.0000   1.0000   1.0000   1.0000   1.0000   1.0000
     1.0000   1.0000   1.0000   1.0000   1.0000   1.0000   1.0000   1.0000
     1.0000   1.0000   1.0000   1.0000   1.0000   1.0000   1.0000   1.0000
     1.0000   1.0000   1.0000   1.0000   1.0000   1.0000   1.0000   1.0000
     1.0000   1.0000   1.0000   1.0000   1.0000   1.0000   1.0000   1.0000
     1.0000   1.0000   1.0000   1.0000   1.0000   1.0000   1.0000   1.0000
     1.0000   1.0000   1.0000   1.0000   1.0000   1.0000   1.0000   1.0000
     1.0000   1.0000   1.0000   1.0000   1.0000   1.0000   1.0000   1.0000
     1.0000   1.0000   1.0000   1.0000   1.0000   1.0000

          k = 0.0000 0.1649 0.0000 ( 23739 PWs)   bands (ev):

   -35.3652 -35.3652 -35.3652 -35.3652 -35.3404 -35.3404 -35.3404 -35.3404
   -35.2615 -35.2615 -35.2253 -35.2253 -33.9052 -33.9052 -33.9051 -33.9051
   -33.8843 -33.8843 -33.8842 -33.8842 -33.8729 -33.8729 -33.8729 -33.8729
   -33.7989 -33.7989 -33.7836 -33.7836 -33.7519 -33.7519 -27.9807 -27.9807
   -27.9805 -27.9805 -27.9720 -27.9719 -27.9718 -27.9718 -26.7415 -26.7415
   -26.7413 -26.7413 -26.7320 -26.7319 -26.7319 -26.7319 -26.7305 -26.7305
   -26.7303 -26.7302 -10.3988 -10.3988  -9.8762  -9.8762  -8.8451  -8.8450
    -6.1879  -6.1878  -4.9978  -4.9977  -0.9872  -0.9860  -0.5833  -0.5821
    -0.2860  -0.2820   0.0438   0.0453   0.2145   0.2160   0.5383   0.5410
     1.1803   1.1834   1.6020   1.6047   1.8375   1.8405

     occupation numbers 
     1.0000   1.0000   1.0000   1.0000   1.0000   1.0000   1.0000   1.0000
     1.0000   1.0000   1.0000   1.0000   1.0000   1.0000   1.0000   1.0000
     1.0000   1.0000   1.0000   1.0000   1.0000   1.0000   1.0000   1.0000
     1.0000   1.0000   1.0000   1.0000   1.0000   1.0000   1.0000   1.0000
     1.0000   1.0000   1.0000   1.0000   1.0000   1.0000   1.0000   1.0000
     1.0000   1.0000   1.0000   1.0000   1.0000   1.0000   1.0000   1.0000
     1.0000   1.0000   1.0000   1.0000   1.0000   1.0000   1.0000   1.0000
     1.0000   1.0000   1.0000   1.0000   1.0000   1.0000   1.0000   1.0000
     1.0000   1.0000   1.0000   1.0000   1.0000   1.0000   1.0000   1.0000
     1.0000   1.0000   1.0000   1.0000   1.0000   1.0000

          k = 0.0000 0.2199 0.0000 ( 23789 PWs)   bands (ev):

   -35.3652 -35.3651 -35.3651 -35.3651 -35.3404 -35.3404 -35.3404 -35.3404
   -35.2615 -35.2615 -35.2252 -35.2252 -33.9051 -33.9051 -33.9050 -33.9050
   -33.8843 -33.8843 -33.8842 -33.8842 -33.8729 -33.8729 -33.8728 -33.8728
   -33.7989 -33.7989 -33.7836 -33.7836 -33.7518 -33.7518 -27.9805 -27.9805
   -27.9804 -27.9804 -27.9720 -27.9720 -27.9719 -27.9718 -26.7413 -26.7413
   -26.7411 -26.7411 -26.7321 -26.7321 -26.7321 -26.7320 -26.7304 -26.7304
   -26.7302 -26.7301 -10.2620 -10.2620  -9.7523  -9.7522  -8.7745  -8.7744
    -6.2261  -6.2260  -5.2180  -5.2179  -1.4557  -1.4545  -0.7402  -0.7385
    -0.6672  -0.6645  -0.1885  -0.1876   0.0306   0.0326   0.4409   0.4446
     1.0620   1.0670   1.3379   1.3424   1.9534   1.9556

     occupation numbers 
     1.0000   1.0000   1.0000   1.0000   1.0000   1.0000   1.0000   1.0000
     1.0000   1.0000   1.0000   1.0000   1.0000   1.0000   1.0000   1.0000
     1.0000   1.0000   1.0000   1.0000   1.0000   1.0000   1.0000   1.0000
     1.0000   1.0000   1.0000   1.0000   1.0000   1.0000   1.0000   1.0000
     1.0000   1.0000   1.0000   1.0000   1.0000   1.0000   1.0000   1.0000
     1.0000   1.0000   1.0000   1.0000   1.0000   1.0000   1.0000   1.0000
     1.0000   1.0000   1.0000   1.0000   1.0000   1.0000   1.0000   1.0000
     1.0000   1.0000   1.0000   1.0000   1.0000   1.0000   1.0000   1.0000
     1.0000   1.0000   1.0000   1.0000   1.0000   1.0000   1.0000   1.0000
     1.0000   1.0000   1.0000   1.0000   1.0000   1.0000

          k = 0.0000 0.2748 0.0000 ( 23783 PWs)   bands (ev):

   -35.3651 -35.3651 -35.3650 -35.3650 -35.3404 -35.3404 -35.3404 -35.3403
   -35.2615 -35.2615 -35.2251 -35.2251 -33.9049 -33.9049 -33.9049 -33.9049
   -33.8843 -33.8843 -33.8842 -33.8842 -33.8728 -33.8728 -33.8728 -33.8728
   -33.7988 -33.7988 -33.7836 -33.7836 -33.7517 -33.7517 -27.9804 -27.9804
   -27.9802 -27.9802 -27.9721 -27.9720 -27.9719 -27.9718 -26.7410 -26.7410
   -26.7408 -26.7408 -26.7323 -26.7323 -26.7322 -26.7322 -26.7303 -26.7303
   -26.7301 -26.7300 -10.0895 -10.0895  -9.5987  -9.5987  -8.6954  -8.6953
    -6.3001  -6.3000  -5.4827  -5.4826  -1.8802  -1.8791  -1.0403  -1.0380
    -0.8704  -0.8683  -0.4142  -0.4134  -0.1240  -0.1223   0.3944   0.3980
     0.7642   0.7672   1.2387   1.2409   1.9212   1.9233

     occupation numbers 
     1.0000   1.0000   1.0000   1.0000   1.0000   1.0000   1.0000   1.0000
     1.0000   1.0000   1.0000   1.0000   1.0000   1.0000   1.0000   1.0000
     1.0000   1.0000   1.0000   1.0000   1.0000   1.0000   1.0000   1.0000
     1.0000   1.0000   1.0000   1.0000   1.0000   1.0000   1.0000   1.0000
     1.0000   1.0000   1.0000   1.0000   1.0000   1.0000   1.0000   1.0000
     1.0000   1.0000   1.0000   1.0000   1.0000   1.0000   1.0000   1.0000
     1.0000   1.0000   1.0000   1.0000   1.0000   1.0000   1.0000   1.0000
     1.0000   1.0000   1.0000   1.0000   1.0000   1.0000   1.0000   1.0000
     1.0000   1.0000   1.0000   1.0000   1.0000   1.0000   1.0000   1.0000
     1.0000   1.0000   1.0000   1.0000   1.0000   1.0000

          k = 0.0000 0.3298 0.0000 ( 23829 PWs)   bands (ev):

   -35.3650 -35.3650 -35.3649 -35.3649 -35.3404 -35.3404 -35.3404 -35.3403
   -35.2615 -35.2615 -35.2250 -35.2250 -33.9048 -33.9048 -33.9048 -33.9047
   -33.8843 -33.8843 -33.8842 -33.8842 -33.8728 -33.8727 -33.8727 -33.8727
   -33.7988 -33.7988 -33.7837 -33.7837 -33.7515 -33.7515 -27.9802 -27.9802
   -27.9801 -27.9801 -27.9721 -27.9721 -27.9719 -27.9719 -26.7407 -26.7407
   -26.7406 -26.7406 -26.7325 -26.7324 -26.7324 -26.7323 -26.7302 -26.7302
   -26.7299 -26.7299  -9.8846  -9.8845  -9.4213  -9.4212  -8.6186  -8.6185
    -6.4238  -6.4236  -5.7672  -5.7671  -2.2385  -2.2375  -1.3547  -1.3529
    -0.9855  -0.9829  -0.5979  -0.5965  -0.2823  -0.2809   0.3141   0.3162
     0.5305   0.5312   1.1793   1.1807   1.7705   1.7724

     occupation numbers 
     1.0000   1.0000   1.0000   1.0000   1.0000   1.0000   1.0000   1.0000
     1.0000   1.0000   1.0000   1.0000   1.0000   1.0000   1.0000   1.0000
     1.0000   1.0000   1.0000   1.0000   1.0000   1.0000   1.0000   1.0000
     1.0000   1.0000   1.0000   1.0000   1.0000   1.0000   1.0000   1.0000
     1.0000   1.0000   1.0000   1.0000   1.0000   1.0000   1.0000   1.0000
     1.0000   1.0000   1.0000   1.0000   1.0000   1.0000   1.0000   1.0000
     1.0000   1.0000   1.0000   1.0000   1.0000   1.0000   1.0000   1.0000
     1.0000   1.0000   1.0000   1.0000   1.0000   1.0000   1.0000   1.0000
     1.0000   1.0000   1.0000   1.0000   1.0000   1.0000   1.0000   1.0000
     1.0000   1.0000   1.0000   1.0000   1.0000   1.0000

          k = 0.0000 0.3848 0.0000 ( 23849 PWs)   bands (ev):

   -35.3649 -35.3649 -35.3649 -35.3649 -35.3404 -35.3403 -35.3403 -35.3403
   -35.2615 -35.2615 -35.2250 -35.2250 -33.9047 -33.9047 -33.9046 -33.9046
   -33.8843 -33.8843 -33.8842 -33.8842 -33.8727 -33.8727 -33.8727 -33.8726
   -33.7987 -33.7987 -33.7837 -33.7837 -33.7514 -33.7514 -27.9801 -27.9801
   -27.9800 -27.9800 -27.9722 -27.9721 -27.9719 -27.9719 -26.7405 -26.7405
   -26.7404 -26.7404 -26.7326 -26.7326 -26.7325 -26.7325 -26.7301 -26.7301
   -26.7298 -26.7298  -9.6524  -9.6523  -9.2294  -9.2294  -8.5595  -8.5593
    -6.6018  -6.6016  -6.0403  -6.0403  -2.5253  -2.5245  -1.5854  -1.5839
    -1.0984  -1.0955  -0.7395  -0.7377  -0.4341  -0.4328   0.1265   0.1281
     0.4750   0.4772   1.1319   1.1333   1.5860   1.5875

     occupation numbers 
     1.0000   1.0000   1.0000   1.0000   1.0000   1.0000   1.0000   1.0000
     1.0000   1.0000   1.0000   1.0000   1.0000   1.0000   1.0000   1.0000
     1.0000   1.0000   1.0000   1.0000   1.0000   1.0000   1.0000   1.0000
     1.0000   1.0000   1.0000   1.0000   1.0000   1.0000   1.0000   1.0000
     1.0000   1.0000   1.0000   1.0000   1.0000   1.0000   1.0000   1.0000
     1.0000   1.0000   1.0000   1.0000   1.0000   1.0000   1.0000   1.0000
     1.0000   1.0000   1.0000   1.0000   1.0000   1.0000   1.0000   1.0000
     1.0000   1.0000   1.0000   1.0000   1.0000   1.0000   1.0000   1.0000
     1.0000   1.0000   1.0000   1.0000   1.0000   1.0000   1.0000   1.0000
     1.0000   1.0000   1.0000   1.0000   1.0000   1.0000

          k = 0.0000 0.4397 0.0000 ( 23829 PWs)   bands (ev):

   -35.3649 -35.3648 -35.3648 -35.3648 -35.3404 -35.3403 -35.3403 -35.3403
   -35.2615 -35.2615 -35.2249 -35.2249 -33.9046 -33.9046 -33.9045 -33.9045
   -33.8843 -33.8843 -33.8842 -33.8842 -33.8727 -33.8726 -33.8726 -33.8726
   -33.7987 -33.7987 -33.7837 -33.7837 -33.7513 -33.7513 -27.9800 -27.9800
   -27.9799 -27.9799 -27.9722 -27.9721 -27.9719 -27.9719 -26.7403 -26.7403
   -26.7402 -26.7402 -26.7327 -26.7327 -26.7326 -26.7326 -26.7300 -26.7300
   -26.7297 -26.7297  -9.4011  -9.4011  -9.0388  -9.0387  -8.5394  -8.5393
    -6.8135  -6.8133  -6.2753  -6.2752  -2.7437  -2.7431  -1.7124  -1.7111
    -1.2260  -1.2232  -0.8610  -0.8593  -0.5523  -0.5511  -0.0113  -0.0096
     0.4468   0.4492   1.0986   1.1000   1.4293   1.4303

     occupation numbers 
     1.0000   1.0000   1.0000   1.0000   1.0000   1.0000   1.0000   1.0000
     1.0000   1.0000   1.0000   1.0000   1.0000   1.0000   1.0000   1.0000
     1.0000   1.0000   1.0000   1.0000   1.0000   1.0000   1.0000   1.0000
     1.0000   1.0000   1.0000   1.0000   1.0000   1.0000   1.0000   1.0000
     1.0000   1.0000   1.0000   1.0000   1.0000   1.0000   1.0000   1.0000
     1.0000   1.0000   1.0000   1.0000   1.0000   1.0000   1.0000   1.0000
     1.0000   1.0000   1.0000   1.0000   1.0000   1.0000   1.0000   1.0000
     1.0000   1.0000   1.0000   1.0000   1.0000   1.0000   1.0000   1.0000
     1.0000   1.0000   1.0000   1.0000   1.0000   1.0000   1.0000   1.0000
     1.0000   1.0000   1.0000   1.0000   1.0000   1.0000

          k = 0.0000 0.4947 0.0000 ( 23848 PWs)   bands (ev):

   -35.3648 -35.3648 -35.3648 -35.3648 -35.3403 -35.3403 -35.3403 -35.3403
   -35.2615 -35.2615 -35.2249 -35.2249 -33.9045 -33.9045 -33.9045 -33.9045
   -33.8843 -33.8843 -33.8842 -33.8842 -33.8726 -33.8726 -33.8726 -33.8726
   -33.7987 -33.7987 -33.7837 -33.7837 -33.7512 -33.7512 -27.9799 -27.9799
   -27.9798 -27.9798 -27.9722 -27.9722 -27.9720 -27.9719 -26.7402 -26.7402
   -26.7401 -26.7401 -26.7328 -26.7328 -26.7326 -26.7326 -26.7299 -26.7299
   -26.7296 -26.7296  -9.1442  -9.1442  -8.8750  -8.8749  -8.5830  -8.5828
    -7.0087  -7.0085  -6.4524  -6.4524  -2.8946  -2.8943  -1.7335  -1.7323
    -1.3737  -1.3715  -0.9658  -0.9647  -0.6190  -0.6183  -0.0677  -0.0663
     0.4024   0.4043   1.0746   1.0757   1.3329   1.3333

     occupation numbers 
     1.0000   1.0000   1.0000   1.0000   1.0000   1.0000   1.0000   1.0000
     1.0000   1.0000   1.0000   1.0000   1.0000   1.0000   1.0000   1.0000
     1.0000   1.0000   1.0000   1.0000   1.0000   1.0000   1.0000   1.0000
     1.0000   1.0000   1.0000   1.0000   1.0000   1.0000   1.0000   1.0000
     1.0000   1.0000   1.0000   1.0000   1.0000   1.0000   1.0000   1.0000
     1.0000   1.0000   1.0000   1.0000   1.0000   1.0000   1.0000   1.0000
     1.0000   1.0000   1.0000   1.0000   1.0000   1.0000   1.0000   1.0000
     1.0000   1.0000   1.0000   1.0000   1.0000   1.0000   1.0000   1.0000
     1.0000   1.0000   1.0000   1.0000   1.0000   1.0000   1.0000   1.0000
     1.0000   1.0000   1.0000   1.0000   1.0000   1.0000

          k = 0.0000 0.5497 0.0000 ( 23860 PWs)   bands (ev):

   -35.3648 -35.3648 -35.3647 -35.3647 -35.3403 -35.3403 -35.3403 -35.3403
   -35.2615 -35.2615 -35.2249 -35.2249 -33.9045 -33.9045 -33.9044 -33.9044
   -33.8843 -33.8843 -33.8842 -33.8842 -33.8726 -33.8726 -33.8726 -33.8726
   -33.7987 -33.7987 -33.7837 -33.7837 -33.7512 -33.7512 -27.9799 -27.9799
   -27.9798 -27.9798 -27.9722 -27.9722 -27.9720 -27.9720 -26.7401 -26.7401
   -26.7401 -26.7401 -26.7328 -26.7328 -26.7327 -26.7327 -26.7299 -26.7299
   -26.7296 -26.7296  -8.9030  -8.9029  -8.7758  -8.7756  -8.7064  -8.7062
    -7.1273  -7.1273  -6.5503  -6.5503  -2.9728  -2.9727  -1.6669  -1.6657
    -1.5271  -1.5255  -1.0249  -1.0245  -0.6471  -0.6468  -0.0755  -0.0749
     0.3629   0.3636   1.0583   1.0587   1.2954   1.2956

     occupation numbers 
     1.0000   1.0000   1.0000   1.0000   1.0000   1.0000   1.0000   1.0000
     1.0000   1.0000   1.0000   1.0000   1.0000   1.0000   1.0000   1.0000
     1.0000   1.0000   1.0000   1.0000   1.0000   1.0000   1.0000   1.0000
     1.0000   1.0000   1.0000   1.0000   1.0000   1.0000   1.0000   1.0000
     1.0000   1.0000   1.0000   1.0000   1.0000   1.0000   1.0000   1.0000
     1.0000   1.0000   1.0000   1.0000   1.0000   1.0000   1.0000   1.0000
     1.0000   1.0000   1.0000   1.0000   1.0000   1.0000   1.0000   1.0000
     1.0000   1.0000   1.0000   1.0000   1.0000   1.0000   1.0000   1.0000
     1.0000   1.0000   1.0000   1.0000   1.0000   1.0000   1.0000   1.0000
     1.0000   1.0000   1.0000   1.0000   1.0000   1.0000

          k = 0.0476 0.0275 0.0000 ( 23755 PWs)   bands (ev):

   -35.3653 -35.3653 -35.3652 -35.3652 -35.3405 -35.3404 -35.3404 -35.3404
   -35.2615 -35.2615 -35.2253 -35.2253 -33.9053 -33.9053 -33.9053 -33.9053
   -33.8843 -33.8843 -33.8842 -33.8842 -33.8730 -33.8730 -33.8730 -33.8730
   -33.7990 -33.7990 -33.7836 -33.7836 -33.7521 -33.7521 -27.9808 -27.9808
   -27.9806 -27.9806 -27.9719 -27.9719 -27.9718 -27.9718 -26.7419 -26.7419
   -26.7416 -26.7416 -26.7318 -26.7317 -26.7317 -26.7317 -26.7306 -26.7306
   -26.7304 -26.7304 -10.5577 -10.5577 -10.0220 -10.0220  -8.9345  -8.9344
    -6.1657  -6.1657  -4.7396  -4.7395  -0.4208  -0.4204  -0.0412  -0.0400
     0.3605   0.3643   0.4678   0.4766   0.6041   0.6105   0.9057   0.9184
     1.1730   1.1798   1.3925   1.3981   1.7869   1.7902

     occupation numbers 
     1.0000   1.0000   1.0000   1.0000   1.0000   1.0000   1.0000   1.0000
     1.0000   1.0000   1.0000   1.0000   1.0000   1.0000   1.0000   1.0000
     1.0000   1.0000   1.0000   1.0000   1.0000   1.0000   1.0000   1.0000
     1.0000   1.0000   1.0000   1.0000   1.0000   1.0000   1.0000   1.0000
     1.0000   1.0000   1.0000   1.0000   1.0000   1.0000   1.0000   1.0000
     1.0000   1.0000   1.0000   1.0000   1.0000   1.0000   1.0000   1.0000
     1.0000   1.0000   1.0000   1.0000   1.0000   1.0000   1.0000   1.0000
     1.0000   1.0000   1.0000   1.0000   1.0000   1.0000   1.0000   1.0000
     1.0000   1.0000   1.0000   1.0000   1.0000   1.0000   1.0000   1.0000
     1.0000   1.0000   1.0000   1.0000   1.0000   1.0000

          k = 0.0476 0.0824 0.0000 ( 23761 PWs)   bands (ev):

   -35.3653 -35.3653 -35.3652 -35.3652 -35.3405 -35.3404 -35.3404 -35.3404
   -35.2615 -35.2615 -35.2253 -35.2253 -33.9053 -33.9053 -33.9052 -33.9052
   -33.8843 -33.8843 -33.8842 -33.8842 -33.8730 -33.8730 -33.8730 -33.8729
   -33.7990 -33.7990 -33.7836 -33.7836 -33.7520 -33.7520 -27.9808 -27.9808
   -27.9806 -27.9806 -27.9719 -27.9719 -27.9718 -27.9718 -26.7418 -26.7418
   -26.7415 -26.7415 -26.7318 -26.7318 -26.7317 -26.7317 -26.7306 -26.7305
   -26.7304 -26.7303 -10.5177 -10.5177  -9.9852  -9.9851  -8.9113  -8.9112
    -6.1691  -6.1690  -4.8042  -4.8041  -0.4957  -0.4950  -0.2987  -0.2964
     0.1000   0.1053   0.3377   0.3419   0.5098   0.5142   0.7985   0.8034
     1.1545   1.1559   1.5124   1.5146   1.8922   1.8949

     occupation numbers 
     1.0000   1.0000   1.0000   1.0000   1.0000   1.0000   1.0000   1.0000
     1.0000   1.0000   1.0000   1.0000   1.0000   1.0000   1.0000   1.0000
     1.0000   1.0000   1.0000   1.0000   1.0000   1.0000   1.0000   1.0000
     1.0000   1.0000   1.0000   1.0000   1.0000   1.0000   1.0000   1.0000
     1.0000   1.0000   1.0000   1.0000   1.0000   1.0000   1.0000   1.0000
     1.0000   1.0000   1.0000   1.0000   1.0000   1.0000   1.0000   1.0000
     1.0000   1.0000   1.0000   1.0000   1.0000   1.0000   1.0000   1.0000
     1.0000   1.0000   1.0000   1.0000   1.0000   1.0000   1.0000   1.0000
     1.0000   1.0000   1.0000   1.0000   1.0000   1.0000   1.0000   1.0000
     1.0000   1.0000   1.0000   1.0000   1.0000   1.0000

          k = 0.0476 0.1374 0.0000 ( 23757 PWs)   bands (ev):

   -35.3652 -35.3652 -35.3652 -35.3652 -35.3405 -35.3404 -35.3404 -35.3404
   -35.2615 -35.2615 -35.2253 -35.2253 -33.9052 -33.9052 -33.9052 -33.9052
   -33.8843 -33.8843 -33.8842 -33.8842 -33.8730 -33.8729 -33.8729 -33.8729
   -33.7990 -33.7990 -33.7836 -33.7836 -33.7519 -33.7519 -27.9807 -27.9807
   -27.9805 -27.9805 -27.9720 -27.9719 -27.9718 -27.9718 -26.7416 -26.7416
   -26.7414 -26.7414 -26.7319 -26.7319 -26.7318 -26.7318 -26.7305 -26.7305
   -26.7303 -26.7303 -10.4383 -10.4383  -9.9122  -9.9122  -8.8665  -8.8664
    -6.1800  -6.1799  -4.9336  -4.9335  -0.7887  -0.7873  -0.5300  -0.5286
    -0.2429  -0.2391   0.0943   0.0984   0.3962   0.3994   0.6185   0.6206
     1.0870   1.0895   1.7139   1.7176   1.8285   1.8327

     occupation numbers 
     1.0000   1.0000   1.0000   1.0000   1.0000   1.0000   1.0000   1.0000
     1.0000   1.0000   1.0000   1.0000   1.0000   1.0000   1.0000   1.0000
     1.0000   1.0000   1.0000   1.0000   1.0000   1.0000   1.0000   1.0000
     1.0000   1.0000   1.0000   1.0000   1.0000   1.0000   1.0000   1.0000
     1.0000   1.0000   1.0000   1.0000   1.0000   1.0000   1.0000   1.0000
     1.0000   1.0000   1.0000   1.0000   1.0000   1.0000   1.0000   1.0000
     1.0000   1.0000   1.0000   1.0000   1.0000   1.0000   1.0000   1.0000
     1.0000   1.0000   1.0000   1.0000   1.0000   1.0000   1.0000   1.0000
     1.0000   1.0000   1.0000   1.0000   1.0000   1.0000   1.0000   1.0000
     1.0000   1.0000   1.0000   1.0000   1.0000   1.0000

          k = 0.0476 0.1924 0.0000 ( 23761 PWs)   bands (ev):

   -35.3652 -35.3652 -35.3651 -35.3651 -35.3404 -35.3404 -35.3404 -35.3404
   -35.2615 -35.2615 -35.2252 -35.2252 -33.9051 -33.9051 -33.9051 -33.9051
   -33.8843 -33.8843 -33.8842 -33.8842 -33.8729 -33.8729 -33.8729 -33.8728
   -33.7989 -33.7989 -33.7836 -33.7836 -33.7518 -33.7518 -27.9806 -27.9806
   -27.9804 -27.9804 -27.9720 -27.9720 -27.9718 -27.9718 -26.7414 -26.7414
   -26.7412 -26.7412 -26.7321 -26.7320 -26.7320 -26.7320 -26.7305 -26.7304
   -26.7302 -26.7302 -10.3203 -10.3203  -9.8048  -9.8048  -8.8036  -8.8036
    -6.2070  -6.2069  -5.1252  -5.1251  -1.2334  -1.2318  -0.7032  -0.7025
    -0.5853  -0.5833  -0.1179  -0.1142   0.1896   0.1939   0.4411   0.4448
     1.0676   1.0700   1.5190   1.5212   1.9220   1.9240

     occupation numbers 
     1.0000   1.0000   1.0000   1.0000   1.0000   1.0000   1.0000   1.0000
     1.0000   1.0000   1.0000   1.0000   1.0000   1.0000   1.0000   1.0000
     1.0000   1.0000   1.0000   1.0000   1.0000   1.0000   1.0000   1.0000
     1.0000   1.0000   1.0000   1.0000   1.0000   1.0000   1.0000   1.0000
     1.0000   1.0000   1.0000   1.0000   1.0000   1.0000   1.0000   1.0000
     1.0000   1.0000   1.0000   1.0000   1.0000   1.0000   1.0000   1.0000
     1.0000   1.0000   1.0000   1.0000   1.0000   1.0000   1.0000   1.0000
     1.0000   1.0000   1.0000   1.0000   1.0000   1.0000   1.0000   1.0000
     1.0000   1.0000   1.0000   1.0000   1.0000   1.0000   1.0000   1.0000
     1.0000   1.0000   1.0000   1.0000   1.0000   1.0000

          k = 0.0476 0.2473 0.0000 ( 23776 PWs)   bands (ev):

   -35.3651 -35.3651 -35.3651 -35.3650 -35.3404 -35.3404 -35.3404 -35.3403
   -35.2615 -35.2615 -35.2252 -35.2251 -33.9050 -33.9050 -33.9049 -33.9049
   -33.8843 -33.8843 -33.8842 -33.8842 -33.8729 -33.8728 -33.8728 -33.8728
   -33.7989 -33.7989 -33.7836 -33.7836 -33.7517 -33.7517 -27.9805 -27.9804
   -27.9803 -27.9803 -27.9721 -27.9720 -27.9719 -27.9718 -26.7411 -26.7411
   -26.7409 -26.7409 -26.7322 -26.7322 -26.7322 -26.7321 -26.7304 -26.7303
   -26.7301 -26.7301 -10.1656 -10.1656  -9.6659  -9.6659  -8.7284  -8.7283
    -6.2622  -6.2620  -5.3695  -5.3694  -1.6708  -1.6694  -0.9779  -0.9767
    -0.7983  -0.7961  -0.3400  -0.3358  -0.0458  -0.0421   0.3556   0.3581
     0.9733   0.9747   1.2769   1.2784   1.9494   1.9514

     occupation numbers 
     1.0000   1.0000   1.0000   1.0000   1.0000   1.0000   1.0000   1.0000
     1.0000   1.0000   1.0000   1.0000   1.0000   1.0000   1.0000   1.0000
     1.0000   1.0000   1.0000   1.0000   1.0000   1.0000   1.0000   1.0000
     1.0000   1.0000   1.0000   1.0000   1.0000   1.0000   1.0000   1.0000
     1.0000   1.0000   1.0000   1.0000   1.0000   1.0000   1.0000   1.0000
     1.0000   1.0000   1.0000   1.0000   1.0000   1.0000   1.0000   1.0000
     1.0000   1.0000   1.0000   1.0000   1.0000   1.0000   1.0000   1.0000
     1.0000   1.0000   1.0000   1.0000   1.0000   1.0000   1.0000   1.0000
     1.0000   1.0000   1.0000   1.0000   1.0000   1.0000   1.0000   1.0000
     1.0000   1.0000   1.0000   1.0000   1.0000   1.0000

          k = 0.0476 0.3023 0.0000 ( 23791 PWs)   bands (ev):

   -35.3650 -35.3650 -35.3650 -35.3650 -35.3404 -35.3404 -35.3404 -35.3403
   -35.2615 -35.2615 -35.2251 -35.2251 -33.9049 -33.9049 -33.9048 -33.9048
   -33.8843 -33.8843 -33.8843 -33.8842 -33.8728 -33.8728 -33.8728 -33.8727
   -33.7988 -33.7988 -33.7836 -33.7836 -33.7516 -33.7516 -27.9803 -27.9803
   -27.9802 -27.9801 -27.9721 -27.9721 -27.9719 -27.9718 -26.7409 -26.7408
   -26.7407 -26.7407 -26.7324 -26.7324 -26.7323 -26.7322 -26.7303 -26.7302
   -26.7300 -26.7299  -9.9767  -9.9766  -9.5000  -9.5000  -8.6495  -8.6493
    -6.3597  -6.3596  -5.6472  -5.6471  -2.0580  -2.0568  -1.2740  -1.2727
    -0.9326  -0.9296  -0.5717  -0.5673  -0.2321  -0.2295   0.2904   0.2919
     0.7637   0.7658   1.1611   1.1620   1.8636   1.8655

     occupation numbers 
     1.0000   1.0000   1.0000   1.0000   1.0000   1.0000   1.0000   1.0000
     1.0000   1.0000   1.0000   1.0000   1.0000   1.0000   1.0000   1.0000
     1.0000   1.0000   1.0000   1.0000   1.0000   1.0000   1.0000   1.0000
     1.0000   1.0000   1.0000   1.0000   1.0000   1.0000   1.0000   1.0000
     1.0000   1.0000   1.0000   1.0000   1.0000   1.0000   1.0000   1.0000
     1.0000   1.0000   1.0000   1.0000   1.0000   1.0000   1.0000   1.0000
     1.0000   1.0000   1.0000   1.0000   1.0000   1.0000   1.0000   1.0000
     1.0000   1.0000   1.0000   1.0000   1.0000   1.0000   1.0000   1.0000
     1.0000   1.0000   1.0000   1.0000   1.0000   1.0000   1.0000   1.0000
     1.0000   1.0000   1.0000   1.0000   1.0000   1.0000

          k = 0.0476 0.3573 0.0000 ( 23817 PWs)   bands (ev):

   -35.3650 -35.3649 -35.3649 -35.3649 -35.3404 -35.3403 -35.3403 -35.3403
   -35.2615 -35.2615 -35.2250 -35.2250 -33.9047 -33.9047 -33.9047 -33.9047
   -33.8843 -33.8843 -33.8843 -33.8842 -33.8727 -33.8727 -33.8727 -33.8727
   -33.7988 -33.7988 -33.7837 -33.7837 -33.7515 -33.7515 -27.9802 -27.9802
   -27.9801 -27.9800 -27.9722 -27.9721 -27.9719 -27.9719 -26.7406 -26.7406
   -26.7405 -26.7404 -26.7326 -26.7325 -26.7324 -26.7324 -26.7301 -26.7301
   -26.7299 -26.7298  -9.7577  -9.7577  -9.3144  -9.3144  -8.5796  -8.5795
    -6.5103  -6.5102  -5.9297  -5.9297  -2.3791  -2.3782  -1.5114  -1.5103
    -1.0625  -1.0592  -0.7682  -0.7639  -0.3695  -0.3676   0.1738   0.1768
     0.5889   0.5933   1.1095   1.1107   1.7112   1.7129

     occupation numbers 
     1.0000   1.0000   1.0000   1.0000   1.0000   1.0000   1.0000   1.0000
     1.0000   1.0000   1.0000   1.0000   1.0000   1.0000   1.0000   1.0000
     1.0000   1.0000   1.0000   1.0000   1.0000   1.0000   1.0000   1.0000
     1.0000   1.0000   1.0000   1.0000   1.0000   1.0000   1.0000   1.0000
     1.0000   1.0000   1.0000   1.0000   1.0000   1.0000   1.0000   1.0000
     1.0000   1.0000   1.0000   1.0000   1.0000   1.0000   1.0000   1.0000
     1.0000   1.0000   1.0000   1.0000   1.0000   1.0000   1.0000   1.0000
     1.0000   1.0000   1.0000   1.0000   1.0000   1.0000   1.0000   1.0000
     1.0000   1.0000   1.0000   1.0000   1.0000   1.0000   1.0000   1.0000
     1.0000   1.0000   1.0000   1.0000   1.0000   1.0000

          k = 0.0476 0.4122 0.0000 ( 23829 PWs)   bands (ev):

   -35.3649 -35.3649 -35.3648 -35.3648 -35.3404 -35.3403 -35.3403 -35.3403
   -35.2615 -35.2615 -35.2249 -35.2249 -33.9046 -33.9046 -33.9046 -33.9046
   -33.8843 -33.8843 -33.8843 -33.8842 -33.8727 -33.8727 -33.8727 -33.8726
   -33.7987 -33.7987 -33.7837 -33.7837 -33.7514 -33.7514 -27.9801 -27.9800
   -27.9799 -27.9799 -27.9722 -27.9721 -27.9719 -27.9719 -26.7404 -26.7404
   -26.7403 -26.7402 -26.7327 -26.7327 -26.7326 -26.7325 -26.7300 -26.7300
   -26.7298 -26.7297  -9.5153  -9.5152  -9.1213  -9.1213  -8.5370  -8.5368
    -6.7086  -6.7084  -6.1865  -6.1864  -2.6314  -2.6307  -1.6667  -1.6658
    -1.2048  -1.2021  -0.9136  -0.9100  -0.4697  -0.4679   0.0160   0.0196
     0.5049   0.5099   1.0828   1.0841   1.5478   1.5492

     occupation numbers 
     1.0000   1.0000   1.0000   1.0000   1.0000   1.0000   1.0000   1.0000
[...]
   -26.7298 -26.7298  -9.4424  -9.4423  -9.0548  -9.0548  -8.4836  -8.4834
    -6.6751  -6.6750  -6.3681  -6.3680  -2.3601  -2.3593  -2.0855  -2.0847
    -1.3468  -1.3448  -1.1123  -1.1091  -0.8406  -0.8375  -0.2019  -0.2007
     0.7779   0.7801   1.2655   1.2663   1.5547   1.5561

     occupation numbers 
     1.0000   1.0000   1.0000   1.0000   1.0000   1.0000   1.0000   1.0000
     1.0000   1.0000   1.0000   1.0000   1.0000   1.0000   1.0000   1.0000
     1.0000   1.0000   1.0000   1.0000   1.0000   1.0000   1.0000   1.0000
     1.0000   1.0000   1.0000   1.0000   1.0000   1.0000   1.0000   1.0000
     1.0000   1.0000   1.0000   1.0000   1.0000   1.0000   1.0000   1.0000
     1.0000   1.0000   1.0000   1.0000   1.0000   1.0000   1.0000   1.0000
     1.0000   1.0000   1.0000   1.0000   1.0000   1.0000   1.0000   1.0000
     1.0000   1.0000   1.0000   1.0000   1.0000   1.0000   1.0000   1.0000
     1.0000   1.0000   1.0000   1.0000   1.0000   1.0000   1.0000   1.0000
     1.0000   1.0000   1.0000   1.0000   1.0000   1.0000

          k =-0.4762 0.2748 0.0000 ( 23854 PWs)   bands (ev):

   -35.3648 -35.3648 -35.3647 -35.3647 -35.3403 -35.3403 -35.3403 -35.3403
   -35.2614 -35.2614 -35.2249 -35.2249 -33.9045 -33.9045 -33.9044 -33.9044
   -33.8843 -33.8843 -33.8842 -33.8842 -33.8726 -33.8726 -33.8726 -33.8726
   -33.7987 -33.7987 -33.7837 -33.7837 -33.7512 -33.7512 -27.9799 -27.9799
   -27.9798 -27.9798 -27.9722 -27.9722 -27.9720 -27.9720 -26.7402 -26.7401
   -26.7401 -26.7401 -26.7328 -26.7328 -26.7327 -26.7327 -26.7299 -26.7299
   -26.7296 -26.7295  -8.9018  -8.9018  -8.7760  -8.7759  -8.7050  -8.7047
    -7.1250  -7.1250  -6.5511  -6.5511  -2.9743  -2.9742  -1.6666  -1.6653
    -1.5273  -1.5257  -1.0266  -1.0263  -0.6496  -0.6494  -0.0758  -0.0752
     0.3623   0.3630   1.0570   1.0574   1.2932   1.2934

     occupation numbers 
     1.0000   1.0000   1.0000   1.0000   1.0000   1.0000   1.0000   1.0000
     1.0000   1.0000   1.0000   1.0000   1.0000   1.0000   1.0000   1.0000
     1.0000   1.0000   1.0000   1.0000   1.0000   1.0000   1.0000   1.0000
     1.0000   1.0000   1.0000   1.0000   1.0000   1.0000   1.0000   1.0000
     1.0000   1.0000   1.0000   1.0000   1.0000   1.0000   1.0000   1.0000
     1.0000   1.0000   1.0000   1.0000   1.0000   1.0000   1.0000   1.0000
     1.0000   1.0000   1.0000   1.0000   1.0000   1.0000   1.0000   1.0000
     1.0000   1.0000   1.0000   1.0000   1.0000   1.0000   1.0000   1.0000
     1.0000   1.0000   1.0000   1.0000   1.0000   1.0000   1.0000   1.0000
     1.0000   1.0000   1.0000   1.0000   1.0000   1.0000

          k =-0.4762 0.3298 0.0000 ( 23836 PWs)   bands (ev):

   -35.3648 -35.3648 -35.3647 -35.3647 -35.3403 -35.3403 -35.3403 -35.3403
   -35.2614 -35.2614 -35.2248 -35.2248 -33.9045 -33.9045 -33.9044 -33.9044
   -33.8843 -33.8843 -33.8843 -33.8842 -33.8726 -33.8726 -33.8726 -33.8726
   -33.7987 -33.7987 -33.7837 -33.7837 -33.7512 -33.7512 -27.9799 -27.9799
   -27.9798 -27.9797 -27.9722 -27.9722 -27.9720 -27.9720 -26.7402 -26.7401
   -26.7400 -26.7400 -26.7329 -26.7329 -26.7327 -26.7326 -26.7299 -26.7299
   -26.7296 -26.7295  -8.7912  -8.7907  -8.7817  -8.7815  -8.7512  -8.7509
    -7.1430  -7.1430  -6.5859  -6.5859  -2.9705  -2.9704  -1.6630  -1.6560
    -1.5775  -1.5698  -1.1277  -1.1268  -0.6378  -0.6347  -0.1512  -0.1476
     0.4159   0.4188   1.0394   1.0402   1.3172   1.3178

     occupation numbers 
     1.0000   1.0000   1.0000   1.0000   1.0000   1.0000   1.0000   1.0000
     1.0000   1.0000   1.0000   1.0000   1.0000   1.0000   1.0000   1.0000
     1.0000   1.0000   1.0000   1.0000   1.0000   1.0000   1.0000   1.0000
     1.0000   1.0000   1.0000   1.0000   1.0000   1.0000   1.0000   1.0000
     1.0000   1.0000   1.0000   1.0000   1.0000   1.0000   1.0000   1.0000
     1.0000   1.0000   1.0000   1.0000   1.0000   1.0000   1.0000   1.0000
     1.0000   1.0000   1.0000   1.0000   1.0000   1.0000   1.0000   1.0000
     1.0000   1.0000   1.0000   1.0000   1.0000   1.0000   1.0000   1.0000
     1.0000   1.0000   1.0000   1.0000   1.0000   1.0000   1.0000   1.0000
     1.0000   1.0000   1.0000   1.0000   1.0000   1.0000

          k =-0.4762 0.3848 0.0000 ( 23827 PWs)   bands (ev):

   -35.3648 -35.3648 -35.3647 -35.3647 -35.3403 -35.3403 -35.3403 -35.3403
   -35.2614 -35.2614 -35.2248 -35.2248 -33.9045 -33.9044 -33.9044 -33.9044
   -33.8843 -33.8843 -33.8843 -33.8842 -33.8726 -33.8726 -33.8726 -33.8725
   -33.7987 -33.7987 -33.7837 -33.7837 -33.7512 -33.7512 -27.9800 -27.9799
   -27.9797 -27.9796 -27.9722 -27.9722 -27.9720 -27.9719 -26.7402 -26.7401
   -26.7399 -26.7398 -26.7330 -26.7330 -26.7326 -26.7326 -26.7299 -26.7299
   -26.7296 -26.7296  -8.8593  -8.8591  -8.7370  -8.7368  -8.6681  -8.6678
    -7.1334  -7.1334  -6.6382  -6.6381  -2.9204  -2.9201  -1.7423  -1.7359
    -1.6104  -1.6029  -1.2704  -1.2690  -0.6528  -0.6516  -0.2888  -0.2866
     0.5118   0.5162   0.9848   0.9860   1.4519   1.4533

     occupation numbers 
     1.0000   1.0000   1.0000   1.0000   1.0000   1.0000   1.0000   1.0000
     1.0000   1.0000   1.0000   1.0000   1.0000   1.0000   1.0000   1.0000
     1.0000   1.0000   1.0000   1.0000   1.0000   1.0000   1.0000   1.0000
     1.0000   1.0000   1.0000   1.0000   1.0000   1.0000   1.0000   1.0000
     1.0000   1.0000   1.0000   1.0000   1.0000   1.0000   1.0000   1.0000
     1.0000   1.0000   1.0000   1.0000   1.0000   1.0000   1.0000   1.0000
     1.0000   1.0000   1.0000   1.0000   1.0000   1.0000   1.0000   1.0000
     1.0000   1.0000   1.0000   1.0000   1.0000   1.0000   1.0000   1.0000
     1.0000   1.0000   1.0000   1.0000   1.0000   1.0000   1.0000   1.0000
     1.0000   1.0000   1.0000   1.0000   1.0000   1.0000

          k =-0.4762 0.4397 0.0000 ( 23824 PWs)   bands (ev):

   -35.3648 -35.3647 -35.3647 -35.3647 -35.3403 -35.3403 -35.3403 -35.3403
   -35.2614 -35.2614 -35.2248 -35.2248 -33.9045 -33.9044 -33.9044 -33.9043
   -33.8844 -33.8843 -33.8843 -33.8842 -33.8726 -33.8726 -33.8726 -33.8725
   -33.7987 -33.7987 -33.7837 -33.7837 -33.7512 -33.7512 -27.9800 -27.9800
   -27.9796 -27.9795 -27.9722 -27.9722 -27.9720 -27.9719 -26.7402 -26.7401
   -26.7397 -26.7397 -26.7331 -26.7331 -26.7326 -26.7326 -26.7299 -26.7299
   -26.7296 -26.7296  -8.9194  -8.9192  -8.7281  -8.7280  -8.5623  -8.5620
    -7.0987  -7.0986  -6.7051  -6.7050  -2.8288  -2.8284  -1.8738  -1.8704
    -1.6916  -1.6876  -1.3379  -1.3363  -0.7177  -0.7138  -0.4252  -0.4215
     0.5682   0.5726   1.0197   1.0213   1.5560   1.5575

     occupation numbers 
     1.0000   1.0000   1.0000   1.0000   1.0000   1.0000   1.0000   1.0000
     1.0000   1.0000   1.0000   1.0000   1.0000   1.0000   1.0000   1.0000
     1.0000   1.0000   1.0000   1.0000   1.0000   1.0000   1.0000   1.0000
     1.0000   1.0000   1.0000   1.0000   1.0000   1.0000   1.0000   1.0000
     1.0000   1.0000   1.0000   1.0000   1.0000   1.0000   1.0000   1.0000
     1.0000   1.0000   1.0000   1.0000   1.0000   1.0000   1.0000   1.0000
     1.0000   1.0000   1.0000   1.0000   1.0000   1.0000   1.0000   1.0000
     1.0000   1.0000   1.0000   1.0000   1.0000   1.0000   1.0000   1.0000
     1.0000   1.0000   1.0000   1.0000   1.0000   1.0000   1.0000   1.0000
     1.0000   1.0000   1.0000   1.0000   1.0000   1.0000

          k =-0.4762 0.4947 0.0000 ( 23813 PWs)   bands (ev):

   -35.3648 -35.3647 -35.3647 -35.3647 -35.3403 -35.3403 -35.3403 -35.3403
   -35.2614 -35.2614 -35.2248 -35.2248 -33.9045 -33.9044 -33.9044 -33.9043
   -33.8844 -33.8843 -33.8843 -33.8842 -33.8726 -33.8726 -33.8725 -33.8725
   -33.7986 -33.7986 -33.7837 -33.7837 -33.7512 -33.7512 -27.9801 -27.9800
   -27.9795 -27.9795 -27.9723 -27.9722 -27.9720 -27.9719 -26.7401 -26.7401
   -26.7396 -26.7395 -26.7332 -26.7331 -26.7326 -26.7326 -26.7300 -26.7299
   -26.7297 -26.7296  -8.9619  -8.9617  -8.7247  -8.7246  -8.4805  -8.4803
    -7.0444  -7.0442  -6.7813  -6.7812  -2.7014  -2.7009  -2.1024  -2.1015
    -1.6670  -1.6658  -1.3701  -1.3691  -0.9083  -0.9048  -0.4336  -0.4309
     0.5946   0.5978   1.1215   1.1235   1.5369   1.5381

     occupation numbers 
     1.0000   1.0000   1.0000   1.0000   1.0000   1.0000   1.0000   1.0000
     1.0000   1.0000   1.0000   1.0000   1.0000   1.0000   1.0000   1.0000
     1.0000   1.0000   1.0000   1.0000   1.0000   1.0000   1.0000   1.0000
     1.0000   1.0000   1.0000   1.0000   1.0000   1.0000   1.0000   1.0000
     1.0000   1.0000   1.0000   1.0000   1.0000   1.0000   1.0000   1.0000
     1.0000   1.0000   1.0000   1.0000   1.0000   1.0000   1.0000   1.0000
     1.0000   1.0000   1.0000   1.0000   1.0000   1.0000   1.0000   1.0000
     1.0000   1.0000   1.0000   1.0000   1.0000   1.0000   1.0000   1.0000
     1.0000   1.0000   1.0000   1.0000   1.0000   1.0000   1.0000   1.0000
     1.0000   1.0000   1.0000   1.0000   1.0000   1.0000

          k =-0.4762 0.5497 0.0000 ( 23824 PWs)   bands (ev):

   -35.3648 -35.3647 -35.3647 -35.3647 -35.3403 -35.3403 -35.3403 -35.3403
   -35.2614 -35.2614 -35.2248 -35.2248 -33.9045 -33.9044 -33.9044 -33.9043
   -33.8844 -33.8843 -33.8843 -33.8842 -33.8726 -33.8726 -33.8725 -33.8725
   -33.7986 -33.7986 -33.7837 -33.7837 -33.7512 -33.7512 -27.9801 -27.9800
   -27.9795 -27.9795 -27.9723 -27.9722 -27.9720 -27.9719 -26.7401 -26.7400
   -26.7395 -26.7395 -26.7332 -26.7332 -26.7326 -26.7326 -26.7300 -26.7300
   -26.7297 -26.7297  -8.9838  -8.9837  -8.7238  -8.7237  -8.4356  -8.4354
    -6.9844  -6.9842  -6.8530  -6.8528  -2.5415  -2.5409  -2.3316  -2.3312
    -1.5972  -1.5962  -1.3587  -1.3579  -1.1253  -1.1233  -0.3913  -0.3904
     0.6159   0.6177   1.1880   1.1901   1.4798   1.4812

     occupation numbers 
     1.0000   1.0000   1.0000   1.0000   1.0000   1.0000   1.0000   1.0000
     1.0000   1.0000   1.0000   1.0000   1.0000   1.0000   1.0000   1.0000
     1.0000   1.0000   1.0000   1.0000   1.0000   1.0000   1.0000   1.0000
     1.0000   1.0000   1.0000   1.0000   1.0000   1.0000   1.0000   1.0000
     1.0000   1.0000   1.0000   1.0000   1.0000   1.0000   1.0000   1.0000
     1.0000   1.0000   1.0000   1.0000   1.0000   1.0000   1.0000   1.0000
     1.0000   1.0000   1.0000   1.0000   1.0000   1.0000   1.0000   1.0000
     1.0000   1.0000   1.0000   1.0000   1.0000   1.0000   1.0000   1.0000
     1.0000   1.0000   1.0000   1.0000   1.0000   1.0000   1.0000   1.0000
     1.0000   1.0000   1.0000   1.0000   1.0000   1.0000

          k =-0.4762-0.2199 0.0000 ( 23844 PWs)   bands (ev):

   -35.3648 -35.3648 -35.3647 -35.3647 -35.3403 -35.3403 -35.3403 -35.3403
   -35.2615 -35.2615 -35.2249 -35.2249 -33.9045 -33.9045 -33.9044 -33.9044
   -33.8843 -33.8843 -33.8843 -33.8842 -33.8726 -33.8726 -33.8726 -33.8726
   -33.7987 -33.7987 -33.7837 -33.7837 -33.7512 -33.7512 -27.9800 -27.9799
   -27.9798 -27.9797 -27.9722 -27.9722 -27.9720 -27.9719 -26.7402 -26.7402
   -26.7401 -26.7400 -26.7329 -26.7328 -26.7327 -26.7326 -26.7299 -26.7299
   -26.7296 -26.7296  -9.0068  -9.0067  -8.8038  -8.8038  -8.6242  -8.6241
    -7.0819  -7.0818  -6.5375  -6.5375  -2.9316  -2.9316  -1.7116  -1.7098
    -1.4873  -1.4843  -1.0994  -1.0980  -0.6126  -0.6119  -0.1424  -0.1405
     0.4283   0.4317   1.0489   1.0502   1.3391   1.3398

     occupation numbers 
     1.0000   1.0000   1.0000   1.0000   1.0000   1.0000   1.0000   1.0000
     1.0000   1.0000   1.0000   1.0000   1.0000   1.0000   1.0000   1.0000
     1.0000   1.0000   1.0000   1.0000   1.0000   1.0000   1.0000   1.0000
     1.0000   1.0000   1.0000   1.0000   1.0000   1.0000   1.0000   1.0000
     1.0000   1.0000   1.0000   1.0000   1.0000   1.0000   1.0000   1.0000
     1.0000   1.0000   1.0000   1.0000   1.0000   1.0000   1.0000   1.0000
     1.0000   1.0000   1.0000   1.0000   1.0000   1.0000   1.0000   1.0000
     1.0000   1.0000   1.0000   1.0000   1.0000   1.0000   1.0000   1.0000
     1.0000   1.0000   1.0000   1.0000   1.0000   1.0000   1.0000   1.0000
     1.0000   1.0000   1.0000   1.0000   1.0000   1.0000

          k =-0.4762-0.1649 0.0000 ( 23826 PWs)   bands (ev):

   -35.3648 -35.3648 -35.3648 -35.3647 -35.3403 -35.3403 -35.3403 -35.3403
   -35.2615 -35.2615 -35.2249 -35.2249 -33.9045 -33.9045 -33.9044 -33.9044
   -33.8843 -33.8843 -33.8843 -33.8842 -33.8726 -33.8726 -33.8726 -33.8726
   -33.7987 -33.7987 -33.7837 -33.7837 -33.7512 -33.7512 -27.9800 -27.9800
   -27.9797 -27.9797 -27.9722 -27.9722 -27.9720 -27.9719 -26.7402 -26.7402
   -26.7399 -26.7399 -26.7330 -26.7329 -26.7326 -26.7326 -26.7299 -26.7299
   -26.7296 -26.7296  -9.0952  -9.0951  -8.8335  -8.8335  -8.5518  -8.5517
    -7.0155  -7.0154  -6.5426  -6.5425  -2.8461  -2.8460  -1.7405  -1.7390
    -1.5476  -1.5454  -1.2232  -1.2215  -0.6004  -0.5994  -0.2334  -0.2320
     0.5064   0.5099   1.0152   1.0166   1.5015   1.5023

     occupation numbers 
     1.0000   1.0000   1.0000   1.0000   1.0000   1.0000   1.0000   1.0000
     1.0000   1.0000   1.0000   1.0000   1.0000   1.0000   1.0000   1.0000
     1.0000   1.0000   1.0000   1.0000   1.0000   1.0000   1.0000   1.0000
     1.0000   1.0000   1.0000   1.0000   1.0000   1.0000   1.0000   1.0000
     1.0000   1.0000   1.0000   1.0000   1.0000   1.0000   1.0000   1.0000
     1.0000   1.0000   1.0000   1.0000   1.0000   1.0000   1.0000   1.0000
     1.0000   1.0000   1.0000   1.0000   1.0000   1.0000   1.0000   1.0000
     1.0000   1.0000   1.0000   1.0000   1.0000   1.0000   1.0000   1.0000
     1.0000   1.0000   1.0000   1.0000   1.0000   1.0000   1.0000   1.0000
     1.0000   1.0000   1.0000   1.0000   1.0000   1.0000

          k =-0.4762-0.1099 0.0000 ( 23815 PWs)   bands (ev):

   -35.3648 -35.3648 -35.3648 -35.3647 -35.3403 -35.3403 -35.3403 -35.3403
   -35.2615 -35.2615 -35.2249 -35.2249 -33.9045 -33.9045 -33.9045 -33.9044
   -33.8844 -33.8843 -33.8843 -33.8842 -33.8726 -33.8726 -33.8726 -33.8726
   -33.7987 -33.7987 -33.7837 -33.7837 -33.7512 -33.7512 -27.9801 -27.9800
   -27.9797 -27.9796 -27.9722 -27.9722 -27.9720 -27.9719 -26.7403 -26.7402
   -26.7398 -26.7398 -26.7330 -26.7330 -26.7326 -26.7325 -26.7300 -26.7299
   -26.7297 -26.7297  -9.1615  -9.1614  -8.8592  -8.8592  -8.4945  -8.4943
    -6.9361  -6.9360  -6.5682  -6.5681  -2.7225  -2.7224  -1.8754  -1.8750
    -1.5576  -1.5552  -1.3132  -1.3104  -0.6943  -0.6929  -0.2889  -0.2879
     0.5792   0.5819   1.0596   1.0610   1.6155   1.6164

     occupation numbers 
     1.0000   1.0000   1.0000   1.0000   1.0000   1.0000   1.0000   1.0000
     1.0000   1.0000   1.0000   1.0000   1.0000   1.0000   1.0000   1.0000
     1.0000   1.0000   1.0000   1.0000   1.0000   1.0000   1.0000   1.0000
     1.0000   1.0000   1.0000   1.0000   1.0000   1.0000   1.0000   1.0000
     1.0000   1.0000   1.0000   1.0000   1.0000   1.0000   1.0000   1.0000
     1.0000   1.0000   1.0000   1.0000   1.0000   1.0000   1.0000   1.0000
     1.0000   1.0000   1.0000   1.0000   1.0000   1.0000   1.0000   1.0000
     1.0000   1.0000   1.0000   1.0000   1.0000   1.0000   1.0000   1.0000
     1.0000   1.0000   1.0000   1.0000   1.0000   1.0000   1.0000   1.0000
     1.0000   1.0000   1.0000   1.0000   1.0000   1.0000

          k =-0.4762-0.0550 0.0000 ( 23825 PWs)   bands (ev):

   -35.3648 -35.3648 -35.3648 -35.3647 -35.3403 -35.3403 -35.3403 -35.3403
   -35.2615 -35.2615 -35.2249 -35.2249 -33.9045 -33.9045 -33.9045 -33.9044
   -33.8844 -33.8843 -33.8843 -33.8842 -33.8726 -33.8726 -33.8726 -33.8726
   -33.7987 -33.7987 -33.7837 -33.7837 -33.7512 -33.7512 -27.9801 -27.9800
   -27.9796 -27.9796 -27.9722 -27.9722 -27.9720 -27.9719 -26.7402 -26.7402
   -26.7398 -26.7397 -26.7331 -26.7330 -26.7326 -26.7325 -26.7300 -26.7300
   -26.7297 -26.7297  -9.2025  -9.2024  -8.8765  -8.8765  -8.4579  -8.4577
    -6.8595  -6.8594  -6.6077  -6.6077  -2.5642  -2.5639  -2.1096  -2.1091
    -1.4563  -1.4508  -1.3486  -1.3424  -0.8989  -0.8970  -0.2977  -0.2967
     0.6703   0.6723   1.1595   1.1605   1.5664   1.5675

     occupation numbers 
     1.0000   1.0000   1.0000   1.0000   1.0000   1.0000   1.0000   1.0000
     1.0000   1.0000   1.0000   1.0000   1.0000   1.0000   1.0000   1.0000
     1.0000   1.0000   1.0000   1.0000   1.0000   1.0000   1.0000   1.0000
     1.0000   1.0000   1.0000   1.0000   1.0000   1.0000   1.0000   1.0000
     1.0000   1.0000   1.0000   1.0000   1.0000   1.0000   1.0000   1.0000
     1.0000   1.0000   1.0000   1.0000   1.0000   1.0000   1.0000   1.0000
     1.0000   1.0000   1.0000   1.0000   1.0000   1.0000   1.0000   1.0000
     1.0000   1.0000   1.0000   1.0000   1.0000   1.0000   1.0000   1.0000
     1.0000   1.0000   1.0000   1.0000   1.0000   1.0000   1.0000   1.0000
     1.0000   1.0000   1.0000   1.0000   1.0000   1.0000

     highest occupied level (ev):     1.9560

!    total energy              =    -806.67751783 Ry
     estimated scf accuracy    <          7.7E-09 Ry

     The total energy is the sum of the following terms:
     one-electron contribution =   -3425.11246362 Ry
     hartree contribution      =    1708.11575042 Ry
     xc contribution           =     -87.20950776 Ry
     ewald contribution        =     997.62966022 Ry
     Dispersion Correction     =      -0.10095710 Ry

     convergence has been achieved in  14 iterations

     Writing all to output data dir tmp/Sb2Te3-uatsx-c5-soc-0.0.save/ :
     XML data file, charge density, pseudopotentials, collected wavefunctions

     init_run     :     58.36s CPU     31.77s WALL (       1 calls)
     electrons    :   3496.72s CPU   1843.44s WALL (       1 calls)

     Called by init_run:
     wfcinit      :     57.06s CPU     30.42s WALL (       1 calls)
     wfcinit:wfcr :     54.19s CPU     28.26s WALL (     221 calls)
     potinit      :      0.26s CPU      0.23s WALL (       1 calls)
     hinit0       :      0.85s CPU      0.91s WALL (       1 calls)

     Called by electrons:
     c_bands      :   3125.22s CPU   1654.19s WALL (      15 calls)
     sum_band     :    369.44s CPU    187.81s WALL (      15 calls)
     v_of_rho     :      1.07s CPU      0.72s WALL (      15 calls)
     v_h          :      0.09s CPU      0.06s WALL (      15 calls)
     v_xc         :      0.97s CPU      0.67s WALL (      15 calls)
     mix_rho      :      0.54s CPU      0.37s WALL (      15 calls)
     energy_londo :      0.02s CPU      0.01s WALL (       1 calls)

     Called by c_bands:
     init_us_2    :     14.87s CPU      9.21s WALL (    6851 calls)
     cegterg      :   3013.93s CPU   1591.15s WALL (    3315 calls)

     Called by sum_band:
     sum_band:wei :      0.00s CPU      0.00s WALL (      15 calls)
     sum_band:loo :    369.12s CPU    187.61s WALL (      15 calls)
     sum_band:buf :      6.12s CPU      3.54s WALL (    3315 calls)
     sum_band:ini :      8.63s CPU      4.47s WALL (    3315 calls)

     Called by *egterg:
     cdiaghg      :    247.63s CPU    158.50s WALL (   20929 calls)
     cegterg:over :    144.38s CPU     78.11s WALL (   17835 calls)
     cegterg:upda :     69.65s CPU     33.59s WALL (   17835 calls)
     cegterg:last :    105.29s CPU     52.95s WALL (    8495 calls)
     h_psi        :   2370.78s CPU   1217.14s WALL (   21371 calls)
     g_psi        :      9.98s CPU      5.72s WALL (   17835 calls)

     Called by h_psi:
     h_psi:calbec :    147.70s CPU     76.32s WALL (   21371 calls)
     vloc_psi     :   2110.44s CPU   1074.47s WALL (   21371 calls)
     add_vuspsi   :    105.03s CPU     61.97s WALL (   21371 calls)

     General routines
     calbec       :    147.54s CPU     76.26s WALL (   21371 calls)
     fft          :      2.19s CPU      1.75s WALL (     349 calls)
     ffts         :      0.25s CPU      0.20s WALL (     120 calls)
     fftw         :   1862.45s CPU    943.48s WALL ( 3661060 calls)
     interpolate  :      0.44s CPU      0.32s WALL (      60 calls)

     Parallel routines

     PWSCF        :  59m37.39s CPU  33m 6.64s WALL


   This run was terminated on:  13:48: 1  22Aug2025            

=------------------------------------------------------------------------------=
   JOB DONE.
=------------------------------------------------------------------------------=
