
     Program PWSCF v.7.4.1 starts on 14Aug2025 at 17:20:23 

     This program is part of the open-source Quantum ESPRESSO suite
     for quantum simulation of materials; please cite
         "P. Giannozzi et al., J. Phys.:Condens. Matter 21 395502 (2009);
         "P. Giannozzi et al., J. Phys.:Condens. Matter 29 465901 (2017);
         "P. Giannozzi et al., J. Chem. Phys. 152 154105 (2020);
          URL http://www.quantum-espresso.org", 
     in publications or presentations arising from this work. More details at
     http://www.quantum-espresso.org/quote

     Parallel version (MPI & OpenMP), running on      48 processor cores
     Number of MPI processes:                24
     Threads/MPI process:                     2

     MPI processes distributed on     2 nodes
     84479 MiB available memory on the printing compute node when the environment starts

     Waiting for input...
     Reading input from standard input

     Current dimensions of program PWSCF are:
     Max number of different atomic species (ntypx) = 10
     Max number of k-points (npk) =  40000
     Max angular momentum in pseudopotentials (lmaxx) =  4
Error reading attribute index: expected integer, found *
Error reading attribute index: expected integer, found *

     IMPORTANT: XC functional enforced from input :
     Exchange-correlation= PBE
                           (   1   4   3   4   0   0   0)
     Any further DFT definition will be discarded
     Please, verify this is what you really want

     Message from routine setup:
     no reason to have ecutrho>4*ecutwfc

     R & G space division:  proc/nbgrp/npool/nimage =      24
     Subspace diagonalization in iterative solution of the eigenvalue problem:
     a serial algorithm will be used


     Parallelization info
     --------------------
     sticks:   dense  smooth     PW     G-vecs:    dense   smooth      PW
     Min          99      39     12                19681     4971     832
     Max         100      40     13                19687     4990     841
     Sum        2379     953    291               472441   119521   19997

     Using Slab Decomposition



     bravais-lattice index     =            0
     lattice parameter (alat)  =       8.4715  a.u.
     unit-cell volume          =    2502.8602 (a.u.)^3
     number of atoms/cell      =            5
     number of atomic types    =            2
     number of electrons       =        78.00
     number of Kohn-Sham states=           78
     kinetic-energy cutoff     =      50.0000  Ry
     charge density cutoff     =     500.0000  Ry
     scf convergence threshold =      1.0E-07
     mixing beta               =       0.7000
     number of iterations used =            8  plain     mixing
     Exchange-correlation= PBE
                           (   1   4   3   4   0   0   0)
     Non magnetic calculation with spin-orbit


     celldm(1)=   8.471459  celldm(2)=   0.000000  celldm(3)=   0.000000
     celldm(4)=   0.000000  celldm(5)=   0.000000  celldm(6)=   0.000000

     crystal axes: (cart. coord. in units of alat)
               a(1) = (   1.000000   0.000000   0.000000 )  
               a(2) = (  -0.480769   0.832709   0.000000 )  
               a(3) = (   0.000000   0.000000   4.943891 )  

     reciprocal axes: (cart. coord. in units 2 pi/alat)
               b(1) = (  1.000000  0.577356 -0.000000 )  
               b(2) = (  0.000000  1.200900  0.000000 )  
               b(3) = (  0.000000 -0.000000  0.202270 )  


     PseudoPot. # 1 for Sb read from file:
     /zfs-home/202401017n1/pseudos/Sb_ONCV_PBE_FR-1.1.upf
     MD5 check sum: 7dc1726f2158e3c51e4807d42b9c5c65
     Pseudo is Norm-conserving, Zval = 15.0
     Generated using ONCVPSP code by D. R. Hamann
     Using radial grid of  602 points, 10 beta functions with: 
                l(1) =   0
                l(2) =   0
                l(3) =   1
                l(4) =   1
                l(5) =   1
                l(6) =   1
                l(7) =   2
                l(8) =   2
                l(9) =   2
               l(10) =   2

     PseudoPot. # 2 for Te read from file:
     /zfs-home/202401017n1/pseudos/Te_ONCV_PBE_FR-1.1.upf
     MD5 check sum: c6e17480449037a9a9d16e6377b5c7c4
     Pseudo is Norm-conserving, Zval = 16.0
     Generated using ONCVPSP code by D. R. Hamann
     Using radial grid of  602 points, 10 beta functions with: 
                l(1) =   0
                l(2) =   0
                l(3) =   1
                l(4) =   1
                l(5) =   1
                l(6) =   1
                l(7) =   2
                l(8) =   2
                l(9) =   2
               l(10) =   2

     atomic species   valence    mass     pseudopotential
     Sb               15.00   121.76000     Sb( 1.00)
     Te               16.00   127.60000     Te( 1.00)

     No symmetry found


                                    s                        frac. trans.

      isym =  1     identity                                     

 cryst.   s( 1) = (     1          0          0      )
                  (     0          1          0      )
                  (     0          0          1      )

 cart.    s( 1) = (  1.0000000  0.0000000  0.0000000 )
                  (  0.0000000  1.0000000  0.0000000 )
                  (  0.0000000  0.0000000  1.0000000 )


   Cartesian axes

     site n.     atom                  positions (alat units)
         1        Sb     tau(   1) = (   0.5904646   0.4157527   2.9115514  )
         2        Te     tau(   2) = (   0.5755298   0.3904446   1.6605492  )
         3        Sb     tau(   3) = (   0.0721083   0.1184920   2.0322939  )
         4        Te     tau(   4) = (   0.0869606   0.1439524   3.2833161  )
         5        Te     tau(   5) = (   0.0908738   0.6835524   2.4719228  )

   Crystallographic axes

     site n.     atom                  positions (cryst. coord.)
         1        Sb     tau(   1) = (  0.8305018  0.4992775  0.5889190  )
         2        Te     tau(   2) = (  0.8009552  0.4688850  0.3358790  )
         3        Sb     tau(   3) = (  0.1405204  0.1422971  0.4110717  )
         4        Te     tau(   4) = (  0.1700723  0.1728725  0.6641158  )
         5        Te     tau(   5) = (  0.4855268  0.8208782  0.4999954  )

     number of k points=   221
                       cart. coord. in units 2pi/alat
        k(    1) = (   0.0000000   0.0000000   0.0000000), wk =   0.0022676
        k(    2) = (   0.0000000   0.0571857   0.0000000), wk =   0.0045351
        k(    3) = (   0.0000000   0.1143714   0.0000000), wk =   0.0045351
        k(    4) = (   0.0000000   0.1715572   0.0000000), wk =   0.0045351
        k(    5) = (   0.0000000   0.2287429   0.0000000), wk =   0.0045351
        k(    6) = (   0.0000000   0.2859286   0.0000000), wk =   0.0045351
        k(    7) = (   0.0000000   0.3431143   0.0000000), wk =   0.0045351
        k(    8) = (   0.0000000   0.4003001   0.0000000), wk =   0.0045351
        k(    9) = (   0.0000000   0.4574858   0.0000000), wk =   0.0045351
        k(   10) = (   0.0000000   0.5146715   0.0000000), wk =   0.0045351
        k(   11) = (   0.0000000   0.5718572   0.0000000), wk =   0.0045351
        k(   12) = (   0.0476190   0.0274931   0.0000000), wk =   0.0045351
        k(   13) = (   0.0476190   0.0846789   0.0000000), wk =   0.0045351
        k(   14) = (   0.0476190   0.1418646   0.0000000), wk =   0.0045351
        k(   15) = (   0.0476190   0.1990503   0.0000000), wk =   0.0045351
        k(   16) = (   0.0476190   0.2562360   0.0000000), wk =   0.0045351
        k(   17) = (   0.0476190   0.3134217   0.0000000), wk =   0.0045351
        k(   18) = (   0.0476190   0.3706075   0.0000000), wk =   0.0045351
        k(   19) = (   0.0476190   0.4277932   0.0000000), wk =   0.0045351
        k(   20) = (   0.0476190   0.4849789   0.0000000), wk =   0.0045351
        k(   21) = (   0.0476190   0.5421646   0.0000000), wk =   0.0045351
        k(   22) = (   0.0476190   0.5993504   0.0000000), wk =   0.0045351
        k(   23) = (   0.0476190  -0.5443641   0.0000000), wk =   0.0045351
        k(   24) = (   0.0476190  -0.4871784   0.0000000), wk =   0.0045351
        k(   25) = (   0.0476190  -0.4299926   0.0000000), wk =   0.0045351
        k(   26) = (   0.0476190  -0.3728069   0.0000000), wk =   0.0045351
        k(   27) = (   0.0476190  -0.3156212   0.0000000), wk =   0.0045351
        k(   28) = (   0.0476190  -0.2584355   0.0000000), wk =   0.0045351
        k(   29) = (   0.0476190  -0.2012498   0.0000000), wk =   0.0045351
        k(   30) = (   0.0476190  -0.1440640   0.0000000), wk =   0.0045351
        k(   31) = (   0.0476190  -0.0868783   0.0000000), wk =   0.0045351
        k(   32) = (   0.0476190  -0.0296926   0.0000000), wk =   0.0045351
        k(   33) = (   0.0952381   0.0549863   0.0000000), wk =   0.0045351
        k(   34) = (   0.0952381   0.1121720   0.0000000), wk =   0.0045351
        k(   35) = (   0.0952381   0.1693577   0.0000000), wk =   0.0045351
        k(   36) = (   0.0952381   0.2265434   0.0000000), wk =   0.0045351
        k(   37) = (   0.0952381   0.2837292   0.0000000), wk =   0.0045351
        k(   38) = (   0.0952381   0.3409149   0.0000000), wk =   0.0045351
        k(   39) = (   0.0952381   0.3981006   0.0000000), wk =   0.0045351
        k(   40) = (   0.0952381   0.4552863   0.0000000), wk =   0.0045351
        k(   41) = (   0.0952381   0.5124721   0.0000000), wk =   0.0045351
        k(   42) = (   0.0952381   0.5696578   0.0000000), wk =   0.0045351
        k(   43) = (   0.0952381   0.6268435   0.0000000), wk =   0.0045351
        k(   44) = (   0.0952381  -0.5168710   0.0000000), wk =   0.0045351
        k(   45) = (   0.0952381  -0.4596852   0.0000000), wk =   0.0045351
        k(   46) = (   0.0952381  -0.4024995   0.0000000), wk =   0.0045351
        k(   47) = (   0.0952381  -0.3453138   0.0000000), wk =   0.0045351
        k(   48) = (   0.0952381  -0.2881281   0.0000000), wk =   0.0045351
        k(   49) = (   0.0952381  -0.2309423   0.0000000), wk =   0.0045351
        k(   50) = (   0.0952381  -0.1737566   0.0000000), wk =   0.0045351
        k(   51) = (   0.0952381  -0.1165709   0.0000000), wk =   0.0045351
        k(   52) = (   0.0952381  -0.0593852   0.0000000), wk =   0.0045351
        k(   53) = (   0.0952381  -0.0021995   0.0000000), wk =   0.0045351
        k(   54) = (   0.1428571   0.0824794   0.0000000), wk =   0.0045351
        k(   55) = (   0.1428571   0.1396651   0.0000000), wk =   0.0045351
        k(   56) = (   0.1428571   0.1968509   0.0000000), wk =   0.0045351
        k(   57) = (   0.1428571   0.2540366   0.0000000), wk =   0.0045351
        k(   58) = (   0.1428571   0.3112223   0.0000000), wk =   0.0045351
        k(   59) = (   0.1428571   0.3684080   0.0000000), wk =   0.0045351
        k(   60) = (   0.1428571   0.4255937   0.0000000), wk =   0.0045351
        k(   61) = (   0.1428571   0.4827795   0.0000000), wk =   0.0045351
        k(   62) = (   0.1428571   0.5399652   0.0000000), wk =   0.0045351
        k(   63) = (   0.1428571   0.5971509   0.0000000), wk =   0.0045351
        k(   64) = (   0.1428571   0.6543366   0.0000000), wk =   0.0045351
        k(   65) = (   0.1428571  -0.4893778   0.0000000), wk =   0.0045351
        k(   66) = (   0.1428571  -0.4321921   0.0000000), wk =   0.0045351
        k(   67) = (   0.1428571  -0.3750064   0.0000000), wk =   0.0045351
        k(   68) = (   0.1428571  -0.3178207   0.0000000), wk =   0.0045351
        k(   69) = (   0.1428571  -0.2606349   0.0000000), wk =   0.0045351
        k(   70) = (   0.1428571  -0.2034492   0.0000000), wk =   0.0045351
        k(   71) = (   0.1428571  -0.1462635   0.0000000), wk =   0.0045351
        k(   72) = (   0.1428571  -0.0890778   0.0000000), wk =   0.0045351
        k(   73) = (   0.1428571  -0.0318920   0.0000000), wk =   0.0045351
        k(   74) = (   0.1428571   0.0252937   0.0000000), wk =   0.0045351
        k(   75) = (   0.1904762   0.1099725   0.0000000), wk =   0.0045351
        k(   76) = (   0.1904762   0.1671583   0.0000000), wk =   0.0045351
        k(   77) = (   0.1904762   0.2243440   0.0000000), wk =   0.0045351
        k(   78) = (   0.1904762   0.2815297   0.0000000), wk =   0.0045351
        k(   79) = (   0.1904762   0.3387154   0.0000000), wk =   0.0045351
        k(   80) = (   0.1904762   0.3959012   0.0000000), wk =   0.0045351
        k(   81) = (   0.1904762   0.4530869   0.0000000), wk =   0.0045351
        k(   82) = (   0.1904762   0.5102726   0.0000000), wk =   0.0045351
        k(   83) = (   0.1904762   0.5674583   0.0000000), wk =   0.0045351
        k(   84) = (   0.1904762   0.6246440   0.0000000), wk =   0.0045351
        k(   85) = (   0.1904762   0.6818298   0.0000000), wk =   0.0045351
        k(   86) = (   0.1904762  -0.4618847   0.0000000), wk =   0.0045351
        k(   87) = (   0.1904762  -0.4046990   0.0000000), wk =   0.0045351
        k(   88) = (   0.1904762  -0.3475132   0.0000000), wk =   0.0045351
        k(   89) = (   0.1904762  -0.2903275   0.0000000), wk =   0.0045351
        k(   90) = (   0.1904762  -0.2331418   0.0000000), wk =   0.0045351
        k(   91) = (   0.1904762  -0.1759561   0.0000000), wk =   0.0045351
        k(   92) = (   0.1904762  -0.1187703   0.0000000), wk =   0.0045351
        k(   93) = (   0.1904762  -0.0615846   0.0000000), wk =   0.0045351
        k(   94) = (   0.1904762  -0.0043989   0.0000000), wk =   0.0045351
        k(   95) = (   0.1904762   0.0527868   0.0000000), wk =   0.0045351
        k(   96) = (   0.2380952   0.1374657   0.0000000), wk =   0.0045351
        k(   97) = (   0.2380952   0.1946514   0.0000000), wk =   0.0045351
        k(   98) = (   0.2380952   0.2518371   0.0000000), wk =   0.0045351
        k(   99) = (   0.2380952   0.3090228   0.0000000), wk =   0.0045351
        k(  100) = (   0.2380952   0.3662086   0.0000000), wk =   0.0045351
        k(  101) = (   0.2380952   0.4233943   0.0000000), wk =   0.0045351
        k(  102) = (   0.2380952   0.4805800   0.0000000), wk =   0.0045351
        k(  103) = (   0.2380952   0.5377657   0.0000000), wk =   0.0045351
        k(  104) = (   0.2380952   0.5949515   0.0000000), wk =   0.0045351
        k(  105) = (   0.2380952   0.6521372   0.0000000), wk =   0.0045351
        k(  106) = (   0.2380952   0.7093229   0.0000000), wk =   0.0045351
        k(  107) = (   0.2380952  -0.4343915   0.0000000), wk =   0.0045351
        k(  108) = (   0.2380952  -0.3772058   0.0000000), wk =   0.0045351
        k(  109) = (   0.2380952  -0.3200201   0.0000000), wk =   0.0045351
        k(  110) = (   0.2380952  -0.2628344   0.0000000), wk =   0.0045351
        k(  111) = (   0.2380952  -0.2056487   0.0000000), wk =   0.0045351
        k(  112) = (   0.2380952  -0.1484629   0.0000000), wk =   0.0045351
        k(  113) = (   0.2380952  -0.0912772   0.0000000), wk =   0.0045351
        k(  114) = (   0.2380952  -0.0340915   0.0000000), wk =   0.0045351
        k(  115) = (   0.2380952   0.0230942   0.0000000), wk =   0.0045351
        k(  116) = (   0.2380952   0.0802800   0.0000000), wk =   0.0045351
        k(  117) = (   0.2857143   0.1649588   0.0000000), wk =   0.0045351
        k(  118) = (   0.2857143   0.2221445   0.0000000), wk =   0.0045351
        k(  119) = (   0.2857143   0.2793303   0.0000000), wk =   0.0045351
        k(  120) = (   0.2857143   0.3365160   0.0000000), wk =   0.0045351
        k(  121) = (   0.2857143   0.3937017   0.0000000), wk =   0.0045351
        k(  122) = (   0.2857143   0.4508874   0.0000000), wk =   0.0045351
        k(  123) = (   0.2857143   0.5080732   0.0000000), wk =   0.0045351
        k(  124) = (   0.2857143   0.5652589   0.0000000), wk =   0.0045351
        k(  125) = (   0.2857143   0.6224446   0.0000000), wk =   0.0045351
        k(  126) = (   0.2857143   0.6796303   0.0000000), wk =   0.0045351
        k(  127) = (   0.2857143   0.7368160   0.0000000), wk =   0.0045351
        k(  128) = (   0.2857143  -0.4068984   0.0000000), wk =   0.0045351
        k(  129) = (   0.2857143  -0.3497127   0.0000000), wk =   0.0045351
        k(  130) = (   0.2857143  -0.2925270   0.0000000), wk =   0.0045351
        k(  131) = (   0.2857143  -0.2353412   0.0000000), wk =   0.0045351
        k(  132) = (   0.2857143  -0.1781555   0.0000000), wk =   0.0045351
        k(  133) = (   0.2857143  -0.1209698   0.0000000), wk =   0.0045351
        k(  134) = (   0.2857143  -0.0637841   0.0000000), wk =   0.0045351
        k(  135) = (   0.2857143  -0.0065984   0.0000000), wk =   0.0045351
        k(  136) = (   0.2857143   0.0505874   0.0000000), wk =   0.0045351
        k(  137) = (   0.2857143   0.1077731   0.0000000), wk =   0.0045351
        k(  138) = (   0.3333333   0.1924520   0.0000000), wk =   0.0045351
        k(  139) = (   0.3333333   0.2496377   0.0000000), wk =   0.0045351
        k(  140) = (   0.3333333   0.3068234   0.0000000), wk =   0.0045351
        k(  141) = (   0.3333333   0.3640091   0.0000000), wk =   0.0045351
        k(  142) = (   0.3333333   0.4211948   0.0000000), wk =   0.0045351
        k(  143) = (   0.3333333   0.4783806   0.0000000), wk =   0.0045351
        k(  144) = (   0.3333333   0.5355663   0.0000000), wk =   0.0045351
        k(  145) = (   0.3333333   0.5927520   0.0000000), wk =   0.0045351
        k(  146) = (   0.3333333   0.6499377   0.0000000), wk =   0.0045351
        k(  147) = (   0.3333333   0.7071235   0.0000000), wk =   0.0045351
        k(  148) = (   0.3333333   0.7643092   0.0000000), wk =   0.0045351
        k(  149) = (   0.3333333  -0.3794053   0.0000000), wk =   0.0045351
        k(  150) = (   0.3333333  -0.3222196   0.0000000), wk =   0.0045351
        k(  151) = (   0.3333333  -0.2650338   0.0000000), wk =   0.0045351
        k(  152) = (   0.3333333  -0.2078481   0.0000000), wk =   0.0045351
        k(  153) = (   0.3333333  -0.1506624   0.0000000), wk =   0.0045351
        k(  154) = (   0.3333333  -0.0934767   0.0000000), wk =   0.0045351
        k(  155) = (   0.3333333  -0.0362909   0.0000000), wk =   0.0045351
        k(  156) = (   0.3333333   0.0208948   0.0000000), wk =   0.0045351
        k(  157) = (   0.3333333   0.0780805   0.0000000), wk =   0.0045351
        k(  158) = (   0.3333333   0.1352662   0.0000000), wk =   0.0045351
        k(  159) = (   0.3809524   0.2199451   0.0000000), wk =   0.0045351
        k(  160) = (   0.3809524   0.2771308   0.0000000), wk =   0.0045351
        k(  161) = (   0.3809524   0.3343165   0.0000000), wk =   0.0045351
        k(  162) = (   0.3809524   0.3915023   0.0000000), wk =   0.0045351
        k(  163) = (   0.3809524   0.4486880   0.0000000), wk =   0.0045351
        k(  164) = (   0.3809524   0.5058737   0.0000000), wk =   0.0045351
        k(  165) = (   0.3809524   0.5630594   0.0000000), wk =   0.0045351
        k(  166) = (   0.3809524   0.6202451   0.0000000), wk =   0.0045351
        k(  167) = (   0.3809524   0.6774309   0.0000000), wk =   0.0045351
        k(  168) = (   0.3809524   0.7346166   0.0000000), wk =   0.0045351
        k(  169) = (   0.3809524   0.7918023   0.0000000), wk =   0.0045351
        k(  170) = (   0.3809524  -0.3519121   0.0000000), wk =   0.0045351
        k(  171) = (   0.3809524  -0.2947264   0.0000000), wk =   0.0045351
        k(  172) = (   0.3809524  -0.2375407   0.0000000), wk =   0.0045351
        k(  173) = (   0.3809524  -0.1803550   0.0000000), wk =   0.0045351
        k(  174) = (   0.3809524  -0.1231692   0.0000000), wk =   0.0045351
        k(  175) = (   0.3809524  -0.0659835   0.0000000), wk =   0.0045351
        k(  176) = (   0.3809524  -0.0087978   0.0000000), wk =   0.0045351
        k(  177) = (   0.3809524   0.0483879   0.0000000), wk =   0.0045351
        k(  178) = (   0.3809524   0.1055736   0.0000000), wk =   0.0045351
        k(  179) = (   0.3809524   0.1627594   0.0000000), wk =   0.0045351
        k(  180) = (   0.4285714   0.2474382   0.0000000), wk =   0.0045351
        k(  181) = (   0.4285714   0.3046239   0.0000000), wk =   0.0045351
        k(  182) = (   0.4285714   0.3618097   0.0000000), wk =   0.0045351
        k(  183) = (   0.4285714   0.4189954   0.0000000), wk =   0.0045351
        k(  184) = (   0.4285714   0.4761811   0.0000000), wk =   0.0045351
        k(  185) = (   0.4285714   0.5333668   0.0000000), wk =   0.0045351
        k(  186) = (   0.4285714   0.5905526   0.0000000), wk =   0.0045351
        k(  187) = (   0.4285714   0.6477383   0.0000000), wk =   0.0045351
        k(  188) = (   0.4285714   0.7049240   0.0000000), wk =   0.0045351
        k(  189) = (   0.4285714   0.7621097   0.0000000), wk =   0.0045351
        k(  190) = (   0.4285714   0.8192954   0.0000000), wk =   0.0045351
        k(  191) = (   0.4285714  -0.3244190   0.0000000), wk =   0.0045351
        k(  192) = (   0.4285714  -0.2672333   0.0000000), wk =   0.0045351
        k(  193) = (   0.4285714  -0.2100476   0.0000000), wk =   0.0045351
        k(  194) = (   0.4285714  -0.1528618   0.0000000), wk =   0.0045351
        k(  195) = (   0.4285714  -0.0956761   0.0000000), wk =   0.0045351
        k(  196) = (   0.4285714  -0.0384904   0.0000000), wk =   0.0045351
        k(  197) = (   0.4285714   0.0186953   0.0000000), wk =   0.0045351
        k(  198) = (   0.4285714   0.0758811   0.0000000), wk =   0.0045351
        k(  199) = (   0.4285714   0.1330668   0.0000000), wk =   0.0045351
        k(  200) = (   0.4285714   0.1902525   0.0000000), wk =   0.0045351
        k(  201) = (   0.4761905   0.2749314   0.0000000), wk =   0.0045351
        k(  202) = (   0.4761905   0.3321171   0.0000000), wk =   0.0045351
        k(  203) = (   0.4761905   0.3893028   0.0000000), wk =   0.0045351
        k(  204) = (   0.4761905   0.4464885   0.0000000), wk =   0.0045351
        k(  205) = (   0.4761905   0.5036742   0.0000000), wk =   0.0045351
        k(  206) = (   0.4761905   0.5608600   0.0000000), wk =   0.0045351
        k(  207) = (   0.4761905   0.6180457   0.0000000), wk =   0.0045351
        k(  208) = (   0.4761905   0.6752314   0.0000000), wk =   0.0045351
        k(  209) = (   0.4761905   0.7324171   0.0000000), wk =   0.0045351
        k(  210) = (   0.4761905   0.7896029   0.0000000), wk =   0.0045351
        k(  211) = (   0.4761905   0.8467886   0.0000000), wk =   0.0045351
        k(  212) = (   0.4761905  -0.2969259   0.0000000), wk =   0.0045351
        k(  213) = (   0.4761905  -0.2397401   0.0000000), wk =   0.0045351
        k(  214) = (   0.4761905  -0.1825544   0.0000000), wk =   0.0045351
        k(  215) = (   0.4761905  -0.1253687   0.0000000), wk =   0.0045351
        k(  216) = (   0.4761905  -0.0681830   0.0000000), wk =   0.0045351
        k(  217) = (   0.4761905  -0.0109973   0.0000000), wk =   0.0045351
        k(  218) = (   0.4761905   0.0461885   0.0000000), wk =   0.0045351
        k(  219) = (   0.4761905   0.1033742   0.0000000), wk =   0.0045351
        k(  220) = (   0.4761905   0.1605599   0.0000000), wk =   0.0045351
        k(  221) = (   0.4761905   0.2177456   0.0000000), wk =   0.0045351

                       cryst. coord.
        k(    1) = (   0.0000000   0.0000000   0.0000000), wk =   0.0022676
        k(    2) = (   0.0000000   0.0476190   0.0000000), wk =   0.0045351
        k(    3) = (   0.0000000   0.0952381   0.0000000), wk =   0.0045351
        k(    4) = (   0.0000000   0.1428571   0.0000000), wk =   0.0045351
        k(    5) = (   0.0000000   0.1904762   0.0000000), wk =   0.0045351
        k(    6) = (   0.0000000   0.2380952   0.0000000), wk =   0.0045351
        k(    7) = (   0.0000000   0.2857143   0.0000000), wk =   0.0045351
        k(    8) = (   0.0000000   0.3333333   0.0000000), wk =   0.0045351
        k(    9) = (   0.0000000   0.3809524   0.0000000), wk =   0.0045351
        k(   10) = (   0.0000000   0.4285714   0.0000000), wk =   0.0045351
        k(   11) = (   0.0000000   0.4761905   0.0000000), wk =   0.0045351
        k(   12) = (   0.0476190   0.0000000   0.0000000), wk =   0.0045351
        k(   13) = (   0.0476190   0.0476190   0.0000000), wk =   0.0045351
        k(   14) = (   0.0476190   0.0952381   0.0000000), wk =   0.0045351
        k(   15) = (   0.0476190   0.1428571   0.0000000), wk =   0.0045351
        k(   16) = (   0.0476190   0.1904762   0.0000000), wk =   0.0045351
        k(   17) = (   0.0476190   0.2380952   0.0000000), wk =   0.0045351
        k(   18) = (   0.0476190   0.2857143   0.0000000), wk =   0.0045351
        k(   19) = (   0.0476190   0.3333333   0.0000000), wk =   0.0045351
        k(   20) = (   0.0476190   0.3809524   0.0000000), wk =   0.0045351
        k(   21) = (   0.0476190   0.4285714   0.0000000), wk =   0.0045351
        k(   22) = (   0.0476190   0.4761905   0.0000000), wk =   0.0045351
        k(   23) = (   0.0476190  -0.4761905   0.0000000), wk =   0.0045351
        k(   24) = (   0.0476190  -0.4285714   0.0000000), wk =   0.0045351
        k(   25) = (   0.0476190  -0.3809524   0.0000000), wk =   0.0045351
        k(   26) = (   0.0476190  -0.3333333   0.0000000), wk =   0.0045351
        k(   27) = (   0.0476190  -0.2857143   0.0000000), wk =   0.0045351
        k(   28) = (   0.0476190  -0.2380952   0.0000000), wk =   0.0045351
        k(   29) = (   0.0476190  -0.1904762   0.0000000), wk =   0.0045351
        k(   30) = (   0.0476190  -0.1428571   0.0000000), wk =   0.0045351
        k(   31) = (   0.0476190  -0.0952381   0.0000000), wk =   0.0045351
        k(   32) = (   0.0476190  -0.0476190   0.0000000), wk =   0.0045351
        k(   33) = (   0.0952381   0.0000000   0.0000000), wk =   0.0045351
        k(   34) = (   0.0952381   0.0476190   0.0000000), wk =   0.0045351
        k(   35) = (   0.0952381   0.0952381   0.0000000), wk =   0.0045351
        k(   36) = (   0.0952381   0.1428571   0.0000000), wk =   0.0045351
        k(   37) = (   0.0952381   0.1904762   0.0000000), wk =   0.0045351
        k(   38) = (   0.0952381   0.2380952   0.0000000), wk =   0.0045351
        k(   39) = (   0.0952381   0.2857143   0.0000000), wk =   0.0045351
        k(   40) = (   0.0952381   0.3333333   0.0000000), wk =   0.0045351
        k(   41) = (   0.0952381   0.3809524   0.0000000), wk =   0.0045351
        k(   42) = (   0.0952381   0.4285714   0.0000000), wk =   0.0045351
        k(   43) = (   0.0952381   0.4761905   0.0000000), wk =   0.0045351
        k(   44) = (   0.0952381  -0.4761905   0.0000000), wk =   0.0045351
        k(   45) = (   0.0952381  -0.4285714   0.0000000), wk =   0.0045351
        k(   46) = (   0.0952381  -0.3809524   0.0000000), wk =   0.0045351
        k(   47) = (   0.0952381  -0.3333333   0.0000000), wk =   0.0045351
        k(   48) = (   0.0952381  -0.2857143   0.0000000), wk =   0.0045351
        k(   49) = (   0.0952381  -0.2380952   0.0000000), wk =   0.0045351
        k(   50) = (   0.0952381  -0.1904762   0.0000000), wk =   0.0045351
        k(   51) = (   0.0952381  -0.1428571   0.0000000), wk =   0.0045351
        k(   52) = (   0.0952381  -0.0952381   0.0000000), wk =   0.0045351
        k(   53) = (   0.0952381  -0.0476190   0.0000000), wk =   0.0045351
        k(   54) = (   0.1428571   0.0000000   0.0000000), wk =   0.0045351
        k(   55) = (   0.1428571   0.0476190   0.0000000), wk =   0.0045351
        k(   56) = (   0.1428571   0.0952381   0.0000000), wk =   0.0045351
        k(   57) = (   0.1428571   0.1428571   0.0000000), wk =   0.0045351
        k(   58) = (   0.1428571   0.1904762   0.0000000), wk =   0.0045351
        k(   59) = (   0.1428571   0.2380952   0.0000000), wk =   0.0045351
        k(   60) = (   0.1428571   0.2857143   0.0000000), wk =   0.0045351
        k(   61) = (   0.1428571   0.3333333   0.0000000), wk =   0.0045351
        k(   62) = (   0.1428571   0.3809524   0.0000000), wk =   0.0045351
        k(   63) = (   0.1428571   0.4285714   0.0000000), wk =   0.0045351
        k(   64) = (   0.1428571   0.4761905   0.0000000), wk =   0.0045351
        k(   65) = (   0.1428571  -0.4761905   0.0000000), wk =   0.0045351
        k(   66) = (   0.1428571  -0.4285714   0.0000000), wk =   0.0045351
        k(   67) = (   0.1428571  -0.3809524   0.0000000), wk =   0.0045351
        k(   68) = (   0.1428571  -0.3333333   0.0000000), wk =   0.0045351
        k(   69) = (   0.1428571  -0.2857143   0.0000000), wk =   0.0045351
        k(   70) = (   0.1428571  -0.2380952   0.0000000), wk =   0.0045351
        k(   71) = (   0.1428571  -0.1904762   0.0000000), wk =   0.0045351
        k(   72) = (   0.1428571  -0.1428571   0.0000000), wk =   0.0045351
        k(   73) = (   0.1428571  -0.0952381   0.0000000), wk =   0.0045351
        k(   74) = (   0.1428571  -0.0476190   0.0000000), wk =   0.0045351
        k(   75) = (   0.1904762   0.0000000   0.0000000), wk =   0.0045351
        k(   76) = (   0.1904762   0.0476190   0.0000000), wk =   0.0045351
        k(   77) = (   0.1904762   0.0952381   0.0000000), wk =   0.0045351
        k(   78) = (   0.1904762   0.1428571   0.0000000), wk =   0.0045351
        k(   79) = (   0.1904762   0.1904762   0.0000000), wk =   0.0045351
        k(   80) = (   0.1904762   0.2380952   0.0000000), wk =   0.0045351
        k(   81) = (   0.1904762   0.2857143   0.0000000), wk =   0.0045351
        k(   82) = (   0.1904762   0.3333333   0.0000000), wk =   0.0045351
        k(   83) = (   0.1904762   0.3809524   0.0000000), wk =   0.0045351
        k(   84) = (   0.1904762   0.4285714   0.0000000), wk =   0.0045351
        k(   85) = (   0.1904762   0.4761905   0.0000000), wk =   0.0045351
        k(   86) = (   0.1904762  -0.4761905   0.0000000), wk =   0.0045351
        k(   87) = (   0.1904762  -0.4285714   0.0000000), wk =   0.0045351
        k(   88) = (   0.1904762  -0.3809524   0.0000000), wk =   0.0045351
        k(   89) = (   0.1904762  -0.3333333   0.0000000), wk =   0.0045351
        k(   90) = (   0.1904762  -0.2857143   0.0000000), wk =   0.0045351
        k(   91) = (   0.1904762  -0.2380952   0.0000000), wk =   0.0045351
        k(   92) = (   0.1904762  -0.1904762   0.0000000), wk =   0.0045351
        k(   93) = (   0.1904762  -0.1428571   0.0000000), wk =   0.0045351
        k(   94) = (   0.1904762  -0.0952381   0.0000000), wk =   0.0045351
        k(   95) = (   0.1904762  -0.0476190   0.0000000), wk =   0.0045351
        k(   96) = (   0.2380952   0.0000000   0.0000000), wk =   0.0045351
        k(   97) = (   0.2380952   0.0476190   0.0000000), wk =   0.0045351
        k(   98) = (   0.2380952   0.0952381   0.0000000), wk =   0.0045351
        k(   99) = (   0.2380952   0.1428571   0.0000000), wk =   0.0045351
        k(  100) = (   0.2380952   0.1904762   0.0000000), wk =   0.0045351
        k(  101) = (   0.2380952   0.2380952   0.0000000), wk =   0.0045351
        k(  102) = (   0.2380952   0.2857143   0.0000000), wk =   0.0045351
        k(  103) = (   0.2380952   0.3333333   0.0000000), wk =   0.0045351
        k(  104) = (   0.2380952   0.3809524   0.0000000), wk =   0.0045351
        k(  105) = (   0.2380952   0.4285714   0.0000000), wk =   0.0045351
        k(  106) = (   0.2380952   0.4761905   0.0000000), wk =   0.0045351
        k(  107) = (   0.2380952  -0.4761905   0.0000000), wk =   0.0045351
        k(  108) = (   0.2380952  -0.4285714   0.0000000), wk =   0.0045351
        k(  109) = (   0.2380952  -0.3809524   0.0000000), wk =   0.0045351
        k(  110) = (   0.2380952  -0.3333333   0.0000000), wk =   0.0045351
        k(  111) = (   0.2380952  -0.2857143   0.0000000), wk =   0.0045351
        k(  112) = (   0.2380952  -0.2380952   0.0000000), wk =   0.0045351
        k(  113) = (   0.2380952  -0.1904762   0.0000000), wk =   0.0045351
        k(  114) = (   0.2380952  -0.1428571   0.0000000), wk =   0.0045351
        k(  115) = (   0.2380952  -0.0952381   0.0000000), wk =   0.0045351
        k(  116) = (   0.2380952  -0.0476190   0.0000000), wk =   0.0045351
        k(  117) = (   0.2857143   0.0000000   0.0000000), wk =   0.0045351
        k(  118) = (   0.2857143   0.0476190   0.0000000), wk =   0.0045351
        k(  119) = (   0.2857143   0.0952381   0.0000000), wk =   0.0045351
        k(  120) = (   0.2857143   0.1428571   0.0000000), wk =   0.0045351
        k(  121) = (   0.2857143   0.1904762   0.0000000), wk =   0.0045351
        k(  122) = (   0.2857143   0.2380952   0.0000000), wk =   0.0045351
        k(  123) = (   0.2857143   0.2857143   0.0000000), wk =   0.0045351
        k(  124) = (   0.2857143   0.3333333   0.0000000), wk =   0.0045351
        k(  125) = (   0.2857143   0.3809524   0.0000000), wk =   0.0045351
        k(  126) = (   0.2857143   0.4285714   0.0000000), wk =   0.0045351
        k(  127) = (   0.2857143   0.4761905   0.0000000), wk =   0.0045351
        k(  128) = (   0.2857143  -0.4761905   0.0000000), wk =   0.0045351
        k(  129) = (   0.2857143  -0.4285714   0.0000000), wk =   0.0045351
        k(  130) = (   0.2857143  -0.3809524   0.0000000), wk =   0.0045351
        k(  131) = (   0.2857143  -0.3333333   0.0000000), wk =   0.0045351
        k(  132) = (   0.2857143  -0.2857143   0.0000000), wk =   0.0045351
        k(  133) = (   0.2857143  -0.2380952   0.0000000), wk =   0.0045351
        k(  134) = (   0.2857143  -0.1904762   0.0000000), wk =   0.0045351
        k(  135) = (   0.2857143  -0.1428571   0.0000000), wk =   0.0045351
        k(  136) = (   0.2857143  -0.0952381   0.0000000), wk =   0.0045351
        k(  137) = (   0.2857143  -0.0476190   0.0000000), wk =   0.0045351
        k(  138) = (   0.3333333  -0.0000000   0.0000000), wk =   0.0045351
        k(  139) = (   0.3333333   0.0476190   0.0000000), wk =   0.0045351
        k(  140) = (   0.3333333   0.0952381   0.0000000), wk =   0.0045351
        k(  141) = (   0.3333333   0.1428571   0.0000000), wk =   0.0045351
        k(  142) = (   0.3333333   0.1904762   0.0000000), wk =   0.0045351
        k(  143) = (   0.3333333   0.2380952   0.0000000), wk =   0.0045351
        k(  144) = (   0.3333333   0.2857143   0.0000000), wk =   0.0045351
        k(  145) = (   0.3333333   0.3333333   0.0000000), wk =   0.0045351
        k(  146) = (   0.3333333   0.3809524   0.0000000), wk =   0.0045351
        k(  147) = (   0.3333333   0.4285714   0.0000000), wk =   0.0045351
        k(  148) = (   0.3333333   0.4761905   0.0000000), wk =   0.0045351
        k(  149) = (   0.3333333  -0.4761905   0.0000000), wk =   0.0045351
        k(  150) = (   0.3333333  -0.4285714   0.0000000), wk =   0.0045351
        k(  151) = (   0.3333333  -0.3809524   0.0000000), wk =   0.0045351
        k(  152) = (   0.3333333  -0.3333333   0.0000000), wk =   0.0045351
        k(  153) = (   0.3333333  -0.2857143   0.0000000), wk =   0.0045351
        k(  154) = (   0.3333333  -0.2380952   0.0000000), wk =   0.0045351
        k(  155) = (   0.3333333  -0.1904762   0.0000000), wk =   0.0045351
        k(  156) = (   0.3333333  -0.1428571   0.0000000), wk =   0.0045351
        k(  157) = (   0.3333333  -0.0952381   0.0000000), wk =   0.0045351
        k(  158) = (   0.3333333  -0.0476190   0.0000000), wk =   0.0045351
        k(  159) = (   0.3809524   0.0000000   0.0000000), wk =   0.0045351
        k(  160) = (   0.3809524   0.0476190   0.0000000), wk =   0.0045351
        k(  161) = (   0.3809524   0.0952381   0.0000000), wk =   0.0045351
        k(  162) = (   0.3809524   0.1428571   0.0000000), wk =   0.0045351
        k(  163) = (   0.3809524   0.1904762   0.0000000), wk =   0.0045351
        k(  164) = (   0.3809524   0.2380952   0.0000000), wk =   0.0045351
        k(  165) = (   0.3809524   0.2857143   0.0000000), wk =   0.0045351
        k(  166) = (   0.3809524   0.3333333   0.0000000), wk =   0.0045351
        k(  167) = (   0.3809524   0.3809524   0.0000000), wk =   0.0045351
        k(  168) = (   0.3809524   0.4285714   0.0000000), wk =   0.0045351
        k(  169) = (   0.3809524   0.4761905   0.0000000), wk =   0.0045351
        k(  170) = (   0.3809524  -0.4761905   0.0000000), wk =   0.0045351
        k(  171) = (   0.3809524  -0.4285714   0.0000000), wk =   0.0045351
        k(  172) = (   0.3809524  -0.3809524   0.0000000), wk =   0.0045351
        k(  173) = (   0.3809524  -0.3333333   0.0000000), wk =   0.0045351
        k(  174) = (   0.3809524  -0.2857143   0.0000000), wk =   0.0045351
        k(  175) = (   0.3809524  -0.2380952   0.0000000), wk =   0.0045351
        k(  176) = (   0.3809524  -0.1904762   0.0000000), wk =   0.0045351
        k(  177) = (   0.3809524  -0.1428571   0.0000000), wk =   0.0045351
        k(  178) = (   0.3809524  -0.0952381   0.0000000), wk =   0.0045351
        k(  179) = (   0.3809524  -0.0476190   0.0000000), wk =   0.0045351
        k(  180) = (   0.4285714   0.0000000   0.0000000), wk =   0.0045351
        k(  181) = (   0.4285714   0.0476190   0.0000000), wk =   0.0045351
        k(  182) = (   0.4285714   0.0952381   0.0000000), wk =   0.0045351
        k(  183) = (   0.4285714   0.1428571   0.0000000), wk =   0.0045351
        k(  184) = (   0.4285714   0.1904762   0.0000000), wk =   0.0045351
        k(  185) = (   0.4285714   0.2380952   0.0000000), wk =   0.0045351
        k(  186) = (   0.4285714   0.2857143   0.0000000), wk =   0.0045351
        k(  187) = (   0.4285714   0.3333333   0.0000000), wk =   0.0045351
        k(  188) = (   0.4285714   0.3809524   0.0000000), wk =   0.0045351
        k(  189) = (   0.4285714   0.4285714   0.0000000), wk =   0.0045351
        k(  190) = (   0.4285714   0.4761905   0.0000000), wk =   0.0045351
        k(  191) = (   0.4285714  -0.4761905   0.0000000), wk =   0.0045351
        k(  192) = (   0.4285714  -0.4285714   0.0000000), wk =   0.0045351
        k(  193) = (   0.4285714  -0.3809524   0.0000000), wk =   0.0045351
        k(  194) = (   0.4285714  -0.3333333   0.0000000), wk =   0.0045351
        k(  195) = (   0.4285714  -0.2857143   0.0000000), wk =   0.0045351
        k(  196) = (   0.4285714  -0.2380952   0.0000000), wk =   0.0045351
        k(  197) = (   0.4285714  -0.1904762   0.0000000), wk =   0.0045351
        k(  198) = (   0.4285714  -0.1428571   0.0000000), wk =   0.0045351
        k(  199) = (   0.4285714  -0.0952381   0.0000000), wk =   0.0045351
        k(  200) = (   0.4285714  -0.0476190   0.0000000), wk =   0.0045351
        k(  201) = (   0.4761905   0.0000000   0.0000000), wk =   0.0045351
        k(  202) = (   0.4761905   0.0476190   0.0000000), wk =   0.0045351
        k(  203) = (   0.4761905   0.0952381   0.0000000), wk =   0.0045351
        k(  204) = (   0.4761905   0.1428571   0.0000000), wk =   0.0045351
        k(  205) = (   0.4761905   0.1904762   0.0000000), wk =   0.0045351
        k(  206) = (   0.4761905   0.2380952   0.0000000), wk =   0.0045351
        k(  207) = (   0.4761905   0.2857143   0.0000000), wk =   0.0045351
        k(  208) = (   0.4761905   0.3333333   0.0000000), wk =   0.0045351
        k(  209) = (   0.4761905   0.3809524   0.0000000), wk =   0.0045351
        k(  210) = (   0.4761905   0.4285714   0.0000000), wk =   0.0045351
        k(  211) = (   0.4761905   0.4761905   0.0000000), wk =   0.0045351
        k(  212) = (   0.4761905  -0.4761905   0.0000000), wk =   0.0045351
        k(  213) = (   0.4761905  -0.4285714   0.0000000), wk =   0.0045351
        k(  214) = (   0.4761905  -0.3809524   0.0000000), wk =   0.0045351
        k(  215) = (   0.4761905  -0.3333333   0.0000000), wk =   0.0045351
        k(  216) = (   0.4761905  -0.2857143   0.0000000), wk =   0.0045351
        k(  217) = (   0.4761905  -0.2380952   0.0000000), wk =   0.0045351
        k(  218) = (   0.4761905  -0.1904762   0.0000000), wk =   0.0045351
        k(  219) = (   0.4761905  -0.1428571   0.0000000), wk =   0.0045351
        k(  220) = (   0.4761905  -0.0952381   0.0000000), wk =   0.0045351
        k(  221) = (   0.4761905  -0.0476190   0.0000000), wk =   0.0045351

     Dense  grid:   472441 G-vectors     FFT dimensions: (  64,  60, 300)

     Smooth grid:   119521 G-vectors     FFT dimensions: (  40,  40, 192)

     Dynamical RAM for                 wfc:       1.48 MB

     Dynamical RAM for     wfc (w. buffer):     328.69 MB

     Dynamical RAM for           str. fact:       0.60 MB

     Dynamical RAM for           local pot:       0.00 MB

     Dynamical RAM for          nlocal pot:       1.61 MB

     Dynamical RAM for                qrad:       9.40 MB

     Dynamical RAM for          rho,v,vnew:       8.18 MB

     Dynamical RAM for               rhoin:       2.73 MB

     Dynamical RAM for            rho*nmix:      19.23 MB

     Dynamical RAM for           G-vectors:       1.16 MB

     Dynamical RAM for          h,s,v(r/c):       1.11 MB

     Dynamical RAM for          <psi|beta>:       0.40 MB

     Dynamical RAM for                 psi:       2.96 MB

     Dynamical RAM for                hpsi:       2.96 MB

     Dynamical RAM for      wfcinit/wfcrot:       2.36 MB

     Estimated static dynamical RAM per process >     356.32 MB

     Estimated max dynamical RAM per process >     382.98 MB

     Estimated total dynamical RAM >       8.98 GB

     Initial potential from superposition of free atoms

     starting charge      77.7613, renormalised to      78.0000

     negative rho (up, down):  3.995E-04 0.000E+00
     Starting wfcs are random

     total cpu time spent up to now is       20.5 secs

     Self-consistent Calculation

     iteration #  1     ecut=    50.00 Ry     beta= 0.70
     Davidson diagonalization with overlap

---- Real-time Memory Report at c_bands before calling an iterative solver
           552 MiB given to the printing process from OS
             0 MiB allocation reported by mallinfo(arena+hblkhd)
         80044 MiB available memory on the node where the printing process lives
------------------
     ethr =  1.00E-02,  avg # of iterations = 12.5

     Threshold (ethr) on eigenvalues was too large:
     Diagonalizing with lowered threshold

     Davidson diagonalization with overlap

---- Real-time Memory Report at c_bands before calling an iterative solver
           561 MiB given to the printing process from OS
             0 MiB allocation reported by mallinfo(arena+hblkhd)
         79945 MiB available memory on the node where the printing process lives
------------------
     ethr =  1.23E-04,  avg # of iterations =  6.0

     negative rho (up, down):  1.698E-05 0.000E+00

     total cpu time spent up to now is      330.4 secs

     total energy              =    -806.53349955 Ry
     estimated scf accuracy    <       0.08348489 Ry

     iteration #  2     ecut=    50.00 Ry     beta= 0.70
     Davidson diagonalization with overlap

---- Real-time Memory Report at c_bands before calling an iterative solver
           561 MiB given to the printing process from OS
             0 MiB allocation reported by mallinfo(arena+hblkhd)
         79941 MiB available memory on the node where the printing process lives
------------------
     ethr =  1.07E-04,  avg # of iterations =  5.4

     negative rho (up, down):  2.823E-05 0.000E+00

     total cpu time spent up to now is      414.2 secs

     total energy              =    -806.48737210 Ry
     estimated scf accuracy    <       0.45156626 Ry

     iteration #  3     ecut=    50.00 Ry     beta= 0.70
     Davidson diagonalization with overlap

---- Real-time Memory Report at c_bands before calling an iterative solver
           563 MiB given to the printing process from OS
             0 MiB allocation reported by mallinfo(arena+hblkhd)
         79931 MiB available memory on the node where the printing process lives
------------------
     ethr =  1.07E-04,  avg # of iterations =  5.4

     negative rho (up, down):  2.382E-05 0.000E+00

     total cpu time spent up to now is      491.3 secs

     total energy              =    -806.54539063 Ry
     estimated scf accuracy    <       0.22771098 Ry

     iteration #  4     ecut=    50.00 Ry     beta= 0.70
     Davidson diagonalization with overlap

---- Real-time Memory Report at c_bands before calling an iterative solver
           563 MiB given to the printing process from OS
             0 MiB allocation reported by mallinfo(arena+hblkhd)
         79924 MiB available memory on the node where the printing process lives
------------------
     ethr =  1.07E-04,  avg # of iterations =  3.5

     negative rho (up, down):  4.233E-06 0.000E+00

     total cpu time spent up to now is      555.1 secs

     total energy              =    -806.56925697 Ry
     estimated scf accuracy    <       0.00368770 Ry

     iteration #  5     ecut=    50.00 Ry     beta= 0.70
     Davidson diagonalization with overlap

---- Real-time Memory Report at c_bands before calling an iterative solver
           564 MiB given to the printing process from OS
             0 MiB allocation reported by mallinfo(arena+hblkhd)
         79917 MiB available memory on the node where the printing process lives
------------------
     ethr =  4.73E-06,  avg # of iterations =  6.6

     negative rho (up, down):  2.722E-06 0.000E+00

     total cpu time spent up to now is      635.2 secs

     total energy              =    -806.56776350 Ry
     estimated scf accuracy    <       0.05276073 Ry

     iteration #  6     ecut=    50.00 Ry     beta= 0.70
     Davidson diagonalization with overlap

---- Real-time Memory Report at c_bands before calling an iterative solver
           566 MiB given to the printing process from OS
             0 MiB allocation reported by mallinfo(arena+hblkhd)
         79906 MiB available memory on the node where the printing process lives
------------------
     ethr =  4.73E-06,  avg # of iterations =  6.8

     negative rho (up, down):  1.407E-08 0.000E+00

     total cpu time spent up to now is      707.8 secs

     total energy              =    -806.57041359 Ry
     estimated scf accuracy    <       0.00304511 Ry

     iteration #  7     ecut=    50.00 Ry     beta= 0.70
     Davidson diagonalization with overlap

---- Real-time Memory Report at c_bands before calling an iterative solver
           572 MiB given to the printing process from OS
             0 MiB allocation reported by mallinfo(arena+hblkhd)
         79895 MiB available memory on the node where the printing process lives
------------------
     ethr =  3.90E-06,  avg # of iterations =  2.7

     total cpu time spent up to now is      765.2 secs

     total energy              =    -806.57066239 Ry
     estimated scf accuracy    <       0.00010973 Ry

     iteration #  8     ecut=    50.00 Ry     beta= 0.70
     Davidson diagonalization with overlap

---- Real-time Memory Report at c_bands before calling an iterative solver
           572 MiB given to the printing process from OS
             0 MiB allocation reported by mallinfo(arena+hblkhd)
         79888 MiB available memory on the node where the printing process lives
------------------
     ethr =  1.41E-07,  avg # of iterations =  5.8

     total cpu time spent up to now is      840.9 secs

     total energy              =    -806.57069755 Ry
     estimated scf accuracy    <       0.00014161 Ry

     iteration #  9     ecut=    50.00 Ry     beta= 0.70
     Davidson diagonalization with overlap

---- Real-time Memory Report at c_bands before calling an iterative solver
           573 MiB given to the printing process from OS
             0 MiB allocation reported by mallinfo(arena+hblkhd)
         79881 MiB available memory on the node where the printing process lives
------------------
     ethr =  1.41E-07,  avg # of iterations =  2.0

     total cpu time spent up to now is      896.0 secs

     total energy              =    -806.57069385 Ry
     estimated scf accuracy    <       0.00005324 Ry

     iteration # 10     ecut=    50.00 Ry     beta= 0.70
     Davidson diagonalization with overlap

---- Real-time Memory Report at c_bands before calling an iterative solver
           574 MiB given to the printing process from OS
             0 MiB allocation reported by mallinfo(arena+hblkhd)
         79872 MiB available memory on the node where the printing process lives
------------------
     ethr =  6.83E-08,  avg # of iterations =  3.7

     total cpu time spent up to now is      956.7 secs

     total energy              =    -806.57069808 Ry
     estimated scf accuracy    <       0.00000184 Ry

     iteration # 11     ecut=    50.00 Ry     beta= 0.70
     Davidson diagonalization with overlap

---- Real-time Memory Report at c_bands before calling an iterative solver
           574 MiB given to the printing process from OS
             0 MiB allocation reported by mallinfo(arena+hblkhd)
         79866 MiB available memory on the node where the printing process lives
------------------
     ethr =  2.36E-09,  avg # of iterations =  6.0

     total cpu time spent up to now is     1032.9 secs

     total energy              =    -806.57069863 Ry
     estimated scf accuracy    <       0.00000401 Ry

     iteration # 12     ecut=    50.00 Ry     beta= 0.70
     Davidson diagonalization with overlap

---- Real-time Memory Report at c_bands before calling an iterative solver
           576 MiB given to the printing process from OS
             0 MiB allocation reported by mallinfo(arena+hblkhd)
         79864 MiB available memory on the node where the printing process lives
------------------
     ethr =  2.36E-09,  avg # of iterations =  3.4

     total cpu time spent up to now is     1093.2 secs

     total energy              =    -806.57069886 Ry
     estimated scf accuracy    <       0.00000017 Ry

     iteration # 13     ecut=    50.00 Ry     beta= 0.70
     Davidson diagonalization with overlap

---- Real-time Memory Report at c_bands before calling an iterative solver
           576 MiB given to the printing process from OS
             0 MiB allocation reported by mallinfo(arena+hblkhd)
         79864 MiB available memory on the node where the printing process lives
------------------
     ethr =  2.14E-10,  avg # of iterations =  5.8

     total cpu time spent up to now is     1166.4 secs

     total energy              =    -806.57069890 Ry
     estimated scf accuracy    <       0.00000012 Ry

     iteration # 14     ecut=    50.00 Ry     beta= 0.70
     Davidson diagonalization with overlap

---- Real-time Memory Report at c_bands before calling an iterative solver
           577 MiB given to the printing process from OS
             0 MiB allocation reported by mallinfo(arena+hblkhd)
         79864 MiB available memory on the node where the printing process lives
------------------
     ethr =  1.57E-10,  avg # of iterations =  2.3

     total cpu time spent up to now is     1222.2 secs

     End of self-consistent calculation

          k = 0.0000 0.0000 0.0000 ( 14963 PWs)   bands (ev):

   -35.6368 -35.6368 -35.6368 -35.6368 -35.6031 -35.6031 -35.6031 -35.6031
   -35.5340 -35.5340 -35.5031 -35.5031 -34.1785 -34.1785 -34.1784 -34.1784
   -34.1501 -34.1501 -34.1501 -34.1501 -34.1346 -34.1346 -34.1346 -34.1346
   -34.0725 -34.0725 -34.0552 -34.0552 -34.0319 -34.0319 -28.2868 -28.2868
   -28.2866 -28.2866 -28.2783 -28.2783 -28.2782 -28.2782 -27.0473 -27.0473
   -27.0471 -27.0471 -27.0389 -27.0389 -27.0387 -27.0387 -27.0355 -27.0355
   -27.0355 -27.0355 -10.7097 -10.7097 -10.1704 -10.1704  -9.0987  -9.0987
    -6.3627  -6.3627  -5.0187  -5.0187  -0.6472  -0.6472  -0.2276  -0.2276
     0.0683   0.0683   0.3170   0.3170   0.3951   0.3951   0.4838   0.4838
     0.7820   0.7820   1.0406   1.0406   1.2394   1.2394

     occupation numbers 
     1.0000   1.0000   1.0000   1.0000   1.0000   1.0000   1.0000   1.0000
     1.0000   1.0000   1.0000   1.0000   1.0000   1.0000   1.0000   1.0000
     1.0000   1.0000   1.0000   1.0000   1.0000   1.0000   1.0000   1.0000
     1.0000   1.0000   1.0000   1.0000   1.0000   1.0000   1.0000   1.0000
     1.0000   1.0000   1.0000   1.0000   1.0000   1.0000   1.0000   1.0000
     1.0000   1.0000   1.0000   1.0000   1.0000   1.0000   1.0000   1.0000
     1.0000   1.0000   1.0000   1.0000   1.0000   1.0000   1.0000   1.0000
     1.0000   1.0000   1.0000   1.0000   1.0000   1.0000   1.0000   1.0000
     1.0000   1.0000   1.0000   1.0000   1.0000   1.0000   1.0000   1.0000
     1.0000   1.0000   1.0000   1.0000   1.0000   1.0000

          k = 0.0000 0.0572 0.0000 ( 14953 PWs)   bands (ev):

   -35.6368 -35.6368 -35.6368 -35.6368 -35.6031 -35.6031 -35.6030 -35.6030
   -35.5340 -35.5340 -35.5031 -35.5031 -34.1784 -34.1784 -34.1784 -34.1784
   -34.1501 -34.1501 -34.1501 -34.1501 -34.1346 -34.1346 -34.1346 -34.1345
   -34.0725 -34.0725 -34.0552 -34.0552 -34.0319 -34.0319 -28.2868 -28.2868
   -28.2866 -28.2866 -28.2783 -28.2783 -28.2782 -28.2782 -27.0473 -27.0472
   -27.0471 -27.0471 -27.0389 -27.0389 -27.0387 -27.0387 -27.0356 -27.0356
   -27.0355 -27.0355 -10.6900 -10.6900 -10.1523 -10.1523  -9.0877  -9.0877
    -6.3657  -6.3657  -5.0513  -5.0513  -0.6772  -0.6771  -0.3854  -0.3852
     0.0326   0.0332   0.1414   0.1417   0.2568   0.2570   0.5115   0.5123
     0.8152   0.8155   1.0035   1.0037   1.3609   1.3611

     occupation numbers 
     1.0000   1.0000   1.0000   1.0000   1.0000   1.0000   1.0000   1.0000
     1.0000   1.0000   1.0000   1.0000   1.0000   1.0000   1.0000   1.0000
     1.0000   1.0000   1.0000   1.0000   1.0000   1.0000   1.0000   1.0000
     1.0000   1.0000   1.0000   1.0000   1.0000   1.0000   1.0000   1.0000
     1.0000   1.0000   1.0000   1.0000   1.0000   1.0000   1.0000   1.0000
     1.0000   1.0000   1.0000   1.0000   1.0000   1.0000   1.0000   1.0000
     1.0000   1.0000   1.0000   1.0000   1.0000   1.0000   1.0000   1.0000
     1.0000   1.0000   1.0000   1.0000   1.0000   1.0000   1.0000   1.0000
     1.0000   1.0000   1.0000   1.0000   1.0000   1.0000   1.0000   1.0000
     1.0000   1.0000   1.0000   1.0000   1.0000   1.0000

          k = 0.0000 0.1144 0.0000 ( 14969 PWs)   bands (ev):

   -35.6368 -35.6368 -35.6368 -35.6368 -35.6031 -35.6031 -35.6030 -35.6030
   -35.5340 -35.5340 -35.5031 -35.5031 -34.1784 -34.1784 -34.1784 -34.1784
   -34.1501 -34.1501 -34.1501 -34.1501 -34.1346 -34.1345 -34.1345 -34.1345
   -34.0725 -34.0725 -34.0552 -34.0552 -34.0318 -34.0318 -28.2867 -28.2867
   -28.2865 -28.2865 -28.2783 -28.2783 -28.2782 -28.2782 -27.0471 -27.0471
   -27.0470 -27.0470 -27.0389 -27.0389 -27.0387 -27.0387 -27.0357 -27.0356
   -27.0355 -27.0355 -10.6311 -10.6311 -10.0983 -10.0983  -9.0557  -9.0556
    -6.3768  -6.3768  -5.1489  -5.1489  -0.8141  -0.8141  -0.6778  -0.6776
    -0.2927  -0.2922  -0.0158  -0.0156   0.0930   0.0932   0.3604   0.3607
     0.7348   0.7351   1.1979   1.1981   1.4825   1.4827

     occupation numbers 
     1.0000   1.0000   1.0000   1.0000   1.0000   1.0000   1.0000   1.0000
     1.0000   1.0000   1.0000   1.0000   1.0000   1.0000   1.0000   1.0000
     1.0000   1.0000   1.0000   1.0000   1.0000   1.0000   1.0000   1.0000
     1.0000   1.0000   1.0000   1.0000   1.0000   1.0000   1.0000   1.0000
     1.0000   1.0000   1.0000   1.0000   1.0000   1.0000   1.0000   1.0000
     1.0000   1.0000   1.0000   1.0000   1.0000   1.0000   1.0000   1.0000
     1.0000   1.0000   1.0000   1.0000   1.0000   1.0000   1.0000   1.0000
     1.0000   1.0000   1.0000   1.0000   1.0000   1.0000   1.0000   1.0000
     1.0000   1.0000   1.0000   1.0000   1.0000   1.0000   1.0000   1.0000
     1.0000   1.0000   1.0000   1.0000   1.0000   1.0000

          k = 0.0000 0.1716 0.0000 ( 14964 PWs)   bands (ev):

   -35.6368 -35.6367 -35.6367 -35.6367 -35.6030 -35.6030 -35.6030 -35.6030
   -35.5340 -35.5340 -35.5030 -35.5030 -34.1783 -34.1783 -34.1783 -34.1783
   -34.1501 -34.1501 -34.1501 -34.1501 -34.1345 -34.1345 -34.1345 -34.1345
   -34.0725 -34.0725 -34.0552 -34.0552 -34.0318 -34.0318 -28.2866 -28.2866
   -28.2865 -28.2865 -28.2784 -28.2783 -28.2782 -28.2782 -27.0470 -27.0470
   -27.0468 -27.0468 -27.0389 -27.0389 -27.0387 -27.0387 -27.0358 -27.0357
   -27.0355 -27.0355 -10.5337 -10.5337 -10.0098 -10.0098  -9.0049  -9.0049
    -6.4014  -6.4014  -5.3092  -5.3092  -1.2028  -1.2026  -0.8509  -0.8507
    -0.6274  -0.6270  -0.2417  -0.2416  -0.1515  -0.1514   0.2425   0.2427
     0.7250   0.7252   1.1863   1.1864   1.4668   1.4670

     occupation numbers 
     1.0000   1.0000   1.0000   1.0000   1.0000   1.0000   1.0000   1.0000
     1.0000   1.0000   1.0000   1.0000   1.0000   1.0000   1.0000   1.0000
     1.0000   1.0000   1.0000   1.0000   1.0000   1.0000   1.0000   1.0000
     1.0000   1.0000   1.0000   1.0000   1.0000   1.0000   1.0000   1.0000
     1.0000   1.0000   1.0000   1.0000   1.0000   1.0000   1.0000   1.0000
     1.0000   1.0000   1.0000   1.0000   1.0000   1.0000   1.0000   1.0000
     1.0000   1.0000   1.0000   1.0000   1.0000   1.0000   1.0000   1.0000
     1.0000   1.0000   1.0000   1.0000   1.0000   1.0000   1.0000   1.0000
     1.0000   1.0000   1.0000   1.0000   1.0000   1.0000   1.0000   1.0000
     1.0000   1.0000   1.0000   1.0000   1.0000   1.0000

          k = 0.0000 0.2287 0.0000 ( 14958 PWs)   bands (ev):

   -35.6367 -35.6367 -35.6367 -35.6367 -35.6030 -35.6030 -35.6030 -35.6030
   -35.5340 -35.5340 -35.5030 -35.5030 -34.1782 -34.1782 -34.1782 -34.1782
   -34.1501 -34.1501 -34.1501 -34.1501 -34.1345 -34.1345 -34.1344 -34.1344
   -34.0724 -34.0724 -34.0552 -34.0552 -34.0317 -34.0317 -28.2865 -28.2865
   -28.2864 -28.2863 -28.2784 -28.2784 -28.2782 -28.2782 -27.0467 -27.0467
   -27.0466 -27.0466 -27.0389 -27.0389 -27.0387 -27.0387 -27.0358 -27.0358
   -27.0356 -27.0355 -10.3992 -10.3992  -9.8888  -9.8888  -8.9399  -8.9399
    -6.4489  -6.4489  -5.5259  -5.5259  -1.6399  -1.6398  -1.0340  -1.0339
    -0.9319  -0.9318  -0.4952  -0.4949  -0.3613  -0.3611   0.1886   0.1888
     0.6306   0.6309   0.9336   0.9338   1.5592   1.5594

     occupation numbers 
     1.0000   1.0000   1.0000   1.0000   1.0000   1.0000   1.0000   1.0000
     1.0000   1.0000   1.0000   1.0000   1.0000   1.0000   1.0000   1.0000
     1.0000   1.0000   1.0000   1.0000   1.0000   1.0000   1.0000   1.0000
     1.0000   1.0000   1.0000   1.0000   1.0000   1.0000   1.0000   1.0000
     1.0000   1.0000   1.0000   1.0000   1.0000   1.0000   1.0000   1.0000
     1.0000   1.0000   1.0000   1.0000   1.0000   1.0000   1.0000   1.0000
     1.0000   1.0000   1.0000   1.0000   1.0000   1.0000   1.0000   1.0000
     1.0000   1.0000   1.0000   1.0000   1.0000   1.0000   1.0000   1.0000
     1.0000   1.0000   1.0000   1.0000   1.0000   1.0000   1.0000   1.0000
     1.0000   1.0000   1.0000   1.0000   1.0000   1.0000

          k = 0.0000 0.2859 0.0000 ( 14967 PWs)   bands (ev):

   -35.6366 -35.6366 -35.6366 -35.6366 -35.6030 -35.6030 -35.6030 -35.6030
   -35.5340 -35.5340 -35.5029 -35.5029 -34.1781 -34.1781 -34.1781 -34.1781
   -34.1502 -34.1501 -34.1501 -34.1501 -34.1344 -34.1344 -34.1344 -34.1344
   -34.0724 -34.0724 -34.0552 -34.0552 -34.0315 -34.0315 -28.2864 -28.2864
   -28.2862 -28.2862 -28.2785 -28.2784 -28.2782 -28.2782 -27.0465 -27.0465
   -27.0464 -27.0464 -27.0389 -27.0389 -27.0387 -27.0387 -27.0359 -27.0359
   -27.0356 -27.0356 -10.2298 -10.2298  -9.7390  -9.7390  -8.8673  -8.8673
    -6.5308  -6.5308  -5.7850  -5.7850  -2.0458  -2.0457  -1.2998  -1.2995
    -1.1367  -1.1364  -0.7048  -0.7045  -0.5420  -0.5418   0.1478   0.1481
     0.3854   0.3856   0.8229   0.8231   1.5159   1.5162

     occupation numbers 
     1.0000   1.0000   1.0000   1.0000   1.0000   1.0000   1.0000   1.0000
     1.0000   1.0000   1.0000   1.0000   1.0000   1.0000   1.0000   1.0000
     1.0000   1.0000   1.0000   1.0000   1.0000   1.0000   1.0000   1.0000
     1.0000   1.0000   1.0000   1.0000   1.0000   1.0000   1.0000   1.0000
     1.0000   1.0000   1.0000   1.0000   1.0000   1.0000   1.0000   1.0000
     1.0000   1.0000   1.0000   1.0000   1.0000   1.0000   1.0000   1.0000
     1.0000   1.0000   1.0000   1.0000   1.0000   1.0000   1.0000   1.0000
     1.0000   1.0000   1.0000   1.0000   1.0000   1.0000   1.0000   1.0000
     1.0000   1.0000   1.0000   1.0000   1.0000   1.0000   1.0000   1.0000
     1.0000   1.0000   1.0000   1.0000   1.0000   1.0000

          k = 0.0000 0.3431 0.0000 ( 14941 PWs)   bands (ev):

   -35.6366 -35.6366 -35.6366 -35.6365 -35.6030 -35.6030 -35.6029 -35.6029
   -35.5340 -35.5340 -35.5028 -35.5028 -34.1780 -34.1780 -34.1780 -34.1780
   -34.1501 -34.1501 -34.1501 -34.1501 -34.1344 -34.1344 -34.1343 -34.1343
   -34.0724 -34.0724 -34.0552 -34.0552 -34.0314 -34.0314 -28.2862 -28.2862
   -28.2861 -28.2861 -28.2785 -28.2785 -28.2783 -28.2782 -27.0463 -27.0463
   -27.0462 -27.0462 -27.0389 -27.0389 -27.0387 -27.0387 -27.0359 -27.0359
   -27.0356 -27.0356 -10.0287 -10.0287  -9.5661  -9.5661  -8.7970  -8.7970
    -6.6579  -6.6579  -6.0636  -6.0636  -2.3962  -2.3961  -1.5541  -1.5539
    -1.3001  -1.2997  -0.8587  -0.8583  -0.7101  -0.7099   0.0153   0.0155
     0.2252   0.2254   0.7723   0.7725   1.3605   1.3607

     occupation numbers 
     1.0000   1.0000   1.0000   1.0000   1.0000   1.0000   1.0000   1.0000
     1.0000   1.0000   1.0000   1.0000   1.0000   1.0000   1.0000   1.0000
     1.0000   1.0000   1.0000   1.0000   1.0000   1.0000   1.0000   1.0000
     1.0000   1.0000   1.0000   1.0000   1.0000   1.0000   1.0000   1.0000
     1.0000   1.0000   1.0000   1.0000   1.0000   1.0000   1.0000   1.0000
     1.0000   1.0000   1.0000   1.0000   1.0000   1.0000   1.0000   1.0000
     1.0000   1.0000   1.0000   1.0000   1.0000   1.0000   1.0000   1.0000
     1.0000   1.0000   1.0000   1.0000   1.0000   1.0000   1.0000   1.0000
     1.0000   1.0000   1.0000   1.0000   1.0000   1.0000   1.0000   1.0000
     1.0000   1.0000   1.0000   1.0000   1.0000   1.0000

          k = 0.0000 0.4003 0.0000 ( 14966 PWs)   bands (ev):

   -35.6365 -35.6365 -35.6365 -35.6365 -35.6030 -35.6030 -35.6029 -35.6029
   -35.5340 -35.5340 -35.5028 -35.5028 -34.1779 -34.1779 -34.1779 -34.1779
   -34.1502 -34.1501 -34.1501 -34.1501 -34.1343 -34.1343 -34.1343 -34.1342
   -34.0724 -34.0724 -34.0552 -34.0552 -34.0313 -34.0313 -28.2861 -28.2861
   -28.2860 -28.2860 -28.2785 -28.2785 -28.2783 -28.2783 -27.0461 -27.0461
   -27.0460 -27.0460 -27.0389 -27.0389 -27.0387 -27.0387 -27.0359 -27.0359
   -27.0356 -27.0356  -9.8014  -9.8013  -9.3794  -9.3794  -8.7435  -8.7435
    -6.8337  -6.8337  -6.3325  -6.3325  -2.6815  -2.6814  -1.7423  -1.7421
    -1.4460  -1.4457  -0.9787  -0.9784  -0.8663  -0.8661  -0.1758  -0.1757
     0.1831   0.1833   0.7433   0.7435   1.1728   1.1730

     occupation numbers 
     1.0000   1.0000   1.0000   1.0000   1.0000   1.0000   1.0000   1.0000
     1.0000   1.0000   1.0000   1.0000   1.0000   1.0000   1.0000   1.0000
     1.0000   1.0000   1.0000   1.0000   1.0000   1.0000   1.0000   1.0000
     1.0000   1.0000   1.0000   1.0000   1.0000   1.0000   1.0000   1.0000
     1.0000   1.0000   1.0000   1.0000   1.0000   1.0000   1.0000   1.0000
     1.0000   1.0000   1.0000   1.0000   1.0000   1.0000   1.0000   1.0000
     1.0000   1.0000   1.0000   1.0000   1.0000   1.0000   1.0000   1.0000
     1.0000   1.0000   1.0000   1.0000   1.0000   1.0000   1.0000   1.0000
     1.0000   1.0000   1.0000   1.0000   1.0000   1.0000   1.0000   1.0000
     1.0000   1.0000   1.0000   1.0000   1.0000   1.0000

          k = 0.0000 0.4575 0.0000 ( 14960 PWs)   bands (ev):

   -35.6365 -35.6364 -35.6364 -35.6364 -35.6029 -35.6029 -35.6029 -35.6029
   -35.5340 -35.5340 -35.5027 -35.5027 -34.1778 -34.1778 -34.1778 -34.1778
   -34.1501 -34.1501 -34.1501 -34.1501 -34.1343 -34.1342 -34.1342 -34.1342
   -34.0724 -34.0724 -34.0552 -34.0552 -34.0312 -34.0312 -28.2860 -28.2860
   -28.2859 -28.2859 -28.2785 -28.2785 -28.2783 -28.2783 -27.0459 -27.0459
   -27.0459 -27.0459 -27.0389 -27.0389 -27.0388 -27.0387 -27.0359 -27.0359
   -27.0356 -27.0356  -9.5560  -9.5559  -9.1941  -9.1941  -8.7260  -8.7260
    -7.0403  -7.0403  -6.5643  -6.5643  -2.8992  -2.8992  -1.8499  -1.8497
    -1.5716  -1.5713  -1.1020  -1.1018  -0.9893  -0.9892  -0.2959  -0.2958
     0.1429   0.1431   0.7327   0.7328   1.0086   1.0087

     occupation numbers 
     1.0000   1.0000   1.0000   1.0000   1.0000   1.0000   1.0000   1.0000
     1.0000   1.0000   1.0000   1.0000   1.0000   1.0000   1.0000   1.0000
     1.0000   1.0000   1.0000   1.0000   1.0000   1.0000   1.0000   1.0000
     1.0000   1.0000   1.0000   1.0000   1.0000   1.0000   1.0000   1.0000
     1.0000   1.0000   1.0000   1.0000   1.0000   1.0000   1.0000   1.0000
     1.0000   1.0000   1.0000   1.0000   1.0000   1.0000   1.0000   1.0000
     1.0000   1.0000   1.0000   1.0000   1.0000   1.0000   1.0000   1.0000
     1.0000   1.0000   1.0000   1.0000   1.0000   1.0000   1.0000   1.0000
     1.0000   1.0000   1.0000   1.0000   1.0000   1.0000   1.0000   1.0000
     1.0000   1.0000   1.0000   1.0000   1.0000   1.0000

          k = 0.0000 0.5147 0.0000 ( 14967 PWs)   bands (ev):

   -35.6364 -35.6364 -35.6364 -35.6364 -35.6029 -35.6029 -35.6029 -35.6029
   -35.5340 -35.5340 -35.5027 -35.5027 -34.1778 -34.1777 -34.1777 -34.1777
   -34.1501 -34.1501 -34.1501 -34.1501 -34.1342 -34.1342 -34.1342 -34.1342
   -34.0724 -34.0724 -34.0552 -34.0552 -34.0311 -34.0311 -28.2859 -28.2859
   -28.2858 -28.2858 -28.2785 -28.2785 -28.2784 -28.2783 -27.0458 -27.0458
   -27.0458 -27.0458 -27.0389 -27.0389 -27.0388 -27.0388 -27.0359 -27.0358
   -27.0356 -27.0356  -9.3061  -9.3061  -9.0349  -9.0349  -8.7674  -8.7674
    -7.2313  -7.2313  -6.7388  -6.7388  -3.0477  -3.0476  -1.8786  -1.8785
    -1.6774  -1.6772  -1.2315  -1.2314  -1.0602  -1.0602  -0.3434  -0.3433
     0.0946   0.0947   0.7289   0.7289   0.9000   0.9000

     occupation numbers 
     1.0000   1.0000   1.0000   1.0000   1.0000   1.0000   1.0000   1.0000
     1.0000   1.0000   1.0000   1.0000   1.0000   1.0000   1.0000   1.0000
     1.0000   1.0000   1.0000   1.0000   1.0000   1.0000   1.0000   1.0000
     1.0000   1.0000   1.0000   1.0000   1.0000   1.0000   1.0000   1.0000
     1.0000   1.0000   1.0000   1.0000   1.0000   1.0000   1.0000   1.0000
     1.0000   1.0000   1.0000   1.0000   1.0000   1.0000   1.0000   1.0000
     1.0000   1.0000   1.0000   1.0000   1.0000   1.0000   1.0000   1.0000
     1.0000   1.0000   1.0000   1.0000   1.0000   1.0000   1.0000   1.0000
     1.0000   1.0000   1.0000   1.0000   1.0000   1.0000   1.0000   1.0000
     1.0000   1.0000   1.0000   1.0000   1.0000   1.0000

          k = 0.0000 0.5719 0.0000 ( 14962 PWs)   bands (ev):

   -35.6364 -35.6364 -35.6364 -35.6364 -35.6029 -35.6029 -35.6029 -35.6029
   -35.5340 -35.5340 -35.5026 -35.5026 -34.1777 -34.1777 -34.1777 -34.1777
   -34.1501 -34.1501 -34.1501 -34.1501 -34.1342 -34.1342 -34.1342 -34.1342
   -34.0723 -34.0723 -34.0552 -34.0552 -34.0311 -34.0311 -28.2859 -28.2859
   -28.2858 -28.2858 -28.2785 -28.2785 -28.2784 -28.2784 -27.0457 -27.0457
   -27.0457 -27.0457 -27.0389 -27.0389 -27.0388 -27.0388 -27.0358 -27.0358
   -27.0356 -27.0356  -9.0733  -9.0733  -8.9385  -8.9385  -8.8841  -8.8841
    -7.3481  -7.3481  -6.8352  -6.8352  -3.1234  -3.1234  -1.8452  -1.8450
    -1.7677  -1.7675  -1.3142  -1.3141  -1.0931  -1.0931  -0.3519  -0.3519
     0.0581   0.0582   0.7207   0.7207   0.8560   0.8560

     occupation numbers 
     1.0000   1.0000   1.0000   1.0000   1.0000   1.0000   1.0000   1.0000
     1.0000   1.0000   1.0000   1.0000   1.0000   1.0000   1.0000   1.0000
     1.0000   1.0000   1.0000   1.0000   1.0000   1.0000   1.0000   1.0000
     1.0000   1.0000   1.0000   1.0000   1.0000   1.0000   1.0000   1.0000
     1.0000   1.0000   1.0000   1.0000   1.0000   1.0000   1.0000   1.0000
     1.0000   1.0000   1.0000   1.0000   1.0000   1.0000   1.0000   1.0000
     1.0000   1.0000   1.0000   1.0000   1.0000   1.0000   1.0000   1.0000
     1.0000   1.0000   1.0000   1.0000   1.0000   1.0000   1.0000   1.0000
     1.0000   1.0000   1.0000   1.0000   1.0000   1.0000   1.0000   1.0000
     1.0000   1.0000   1.0000   1.0000   1.0000   1.0000

          k = 0.0476 0.0275 0.0000 ( 14959 PWs)   bands (ev):

   -35.6368 -35.6368 -35.6368 -35.6368 -35.6031 -35.6031 -35.6030 -35.6030
   -35.5340 -35.5340 -35.5031 -35.5031 -34.1785 -34.1784 -34.1784 -34.1784
   -34.1501 -34.1501 -34.1501 -34.1501 -34.1346 -34.1346 -34.1346 -34.1346
   -34.0725 -34.0725 -34.0552 -34.0552 -34.0319 -34.0319 -28.2868 -28.2868
   -28.2866 -28.2866 -28.2783 -28.2783 -28.2782 -28.2782 -27.0473 -27.0473
   -27.0471 -27.0471 -27.0389 -27.0389 -27.0387 -27.0387 -27.0356 -27.0355
   -27.0355 -27.0355 -10.6915 -10.6915 -10.1538 -10.1538  -9.0891  -9.0891
    -6.3677  -6.3677  -5.0561  -5.0561  -0.6854  -0.6853  -0.4460  -0.4459
     0.0554   0.0559   0.1024   0.1028   0.3384   0.3389   0.5596   0.5605
     0.8279   0.8285   1.0138   1.0143   1.3451   1.3454

     occupation numbers 
     1.0000   1.0000   1.0000   1.0000   1.0000   1.0000   1.0000   1.0000
     1.0000   1.0000   1.0000   1.0000   1.0000   1.0000   1.0000   1.0000
     1.0000   1.0000   1.0000   1.0000   1.0000   1.0000   1.0000   1.0000
     1.0000   1.0000   1.0000   1.0000   1.0000   1.0000   1.0000   1.0000
     1.0000   1.0000   1.0000   1.0000   1.0000   1.0000   1.0000   1.0000
     1.0000   1.0000   1.0000   1.0000   1.0000   1.0000   1.0000   1.0000
     1.0000   1.0000   1.0000   1.0000   1.0000   1.0000   1.0000   1.0000
     1.0000   1.0000   1.0000   1.0000   1.0000   1.0000   1.0000   1.0000
     1.0000   1.0000   1.0000   1.0000   1.0000   1.0000   1.0000   1.0000
     1.0000   1.0000   1.0000   1.0000   1.0000   1.0000

          k = 0.0476 0.0847 0.0000 ( 14968 PWs)   bands (ev):

   -35.6368 -35.6368 -35.6368 -35.6368 -35.6031 -35.6031 -35.6030 -35.6030
   -35.5340 -35.5340 -35.5031 -35.5031 -34.1784 -34.1784 -34.1784 -34.1784
   -34.1501 -34.1501 -34.1501 -34.1501 -34.1346 -34.1346 -34.1345 -34.1345
   -34.0725 -34.0725 -34.0552 -34.0552 -34.0319 -34.0319 -28.2867 -28.2867
   -28.2866 -28.2866 -28.2783 -28.2783 -28.2782 -28.2782 -27.0472 -27.0472
   -27.0470 -27.0470 -27.0389 -27.0389 -27.0387 -27.0387 -27.0356 -27.0356
   -27.0355 -27.0355 -10.6529 -10.6529 -10.1187 -10.1187  -9.0683  -9.0683
    -6.3757  -6.3757  -5.1237  -5.1237  -0.7709  -0.7707  -0.6638  -0.6636
    -0.2107  -0.2101   0.0438   0.0443   0.2380   0.2384   0.4306   0.4312
     0.7904   0.7906   1.1260   1.1262   1.4732   1.4735

     occupation numbers 
     1.0000   1.0000   1.0000   1.0000   1.0000   1.0000   1.0000   1.0000
     1.0000   1.0000   1.0000   1.0000   1.0000   1.0000   1.0000   1.0000
     1.0000   1.0000   1.0000   1.0000   1.0000   1.0000   1.0000   1.0000
     1.0000   1.0000   1.0000   1.0000   1.0000   1.0000   1.0000   1.0000
     1.0000   1.0000   1.0000   1.0000   1.0000   1.0000   1.0000   1.0000
     1.0000   1.0000   1.0000   1.0000   1.0000   1.0000   1.0000   1.0000
     1.0000   1.0000   1.0000   1.0000   1.0000   1.0000   1.0000   1.0000
     1.0000   1.0000   1.0000   1.0000   1.0000   1.0000   1.0000   1.0000
     1.0000   1.0000   1.0000   1.0000   1.0000   1.0000   1.0000   1.0000
     1.0000   1.0000   1.0000   1.0000   1.0000   1.0000

          k = 0.0476 0.1419 0.0000 ( 14952 PWs)   bands (ev):

   -35.6368 -35.6368 -35.6368 -35.6367 -35.6030 -35.6030 -35.6030 -35.6030
   -35.5340 -35.5340 -35.5031 -35.5031 -34.1784 -34.1783 -34.1783 -34.1783
   -34.1501 -34.1501 -34.1501 -34.1501 -34.1345 -34.1345 -34.1345 -34.1345
   -34.0725 -34.0725 -34.0552 -34.0552 -34.0318 -34.0318 -28.2867 -28.2867
   -28.2865 -28.2865 -28.2783 -28.2783 -28.2782 -28.2782 -27.0471 -27.0470
   -27.0469 -27.0469 -27.0389 -27.0389 -27.0387 -27.0387 -27.0357 -27.0357
   -27.0355 -27.0355 -10.5754 -10.5754 -10.0482 -10.0482  -9.0275  -9.0275
    -6.3944  -6.3944  -5.2544  -5.2544  -1.0523  -1.0521  -0.8275  -0.8274
    -0.5793  -0.5789  -0.1720  -0.1717   0.1088   0.1091   0.2896   0.2899
     0.6942   0.6943   1.2803   1.2805   1.4752   1.4755

     occupation numbers 
     1.0000   1.0000   1.0000   1.0000   1.0000   1.0000   1.0000   1.0000
     1.0000   1.0000   1.0000   1.0000   1.0000   1.0000   1.0000   1.0000
     1.0000   1.0000   1.0000   1.0000   1.0000   1.0000   1.0000   1.0000
     1.0000   1.0000   1.0000   1.0000   1.0000   1.0000   1.0000   1.0000
     1.0000   1.0000   1.0000   1.0000   1.0000   1.0000   1.0000   1.0000
     1.0000   1.0000   1.0000   1.0000   1.0000   1.0000   1.0000   1.0000
     1.0000   1.0000   1.0000   1.0000   1.0000   1.0000   1.0000   1.0000
     1.0000   1.0000   1.0000   1.0000   1.0000   1.0000   1.0000   1.0000
     1.0000   1.0000   1.0000   1.0000   1.0000   1.0000   1.0000   1.0000
     1.0000   1.0000   1.0000   1.0000   1.0000   1.0000

          k = 0.0476 0.1991 0.0000 ( 14943 PWs)   bands (ev):

   -35.6367 -35.6367 -35.6367 -35.6367 -35.6030 -35.6030 -35.6030 -35.6030
   -35.5340 -35.5340 -35.5030 -35.5030 -34.1783 -34.1783 -34.1783 -34.1782
   -34.1501 -34.1501 -34.1501 -34.1501 -34.1345 -34.1345 -34.1345 -34.1344
   -34.0725 -34.0725 -34.0552 -34.0552 -34.0317 -34.0317 -28.2866 -28.2866
   -28.2864 -28.2864 -28.2784 -28.2784 -28.2782 -28.2782 -27.0469 -27.0469
   -27.0467 -27.0467 -27.0389 -27.0389 -27.0387 -27.0387 -27.0358 -27.0357
   -27.0355 -27.0355 -10.4601 -10.4601  -9.9441  -9.9441  -8.9701  -8.9701
    -6.4306  -6.4306  -5.4440  -5.4440  -1.4375  -1.4373  -1.0367  -1.0367
    -0.8523  -0.8522  -0.4216  -0.4213  -0.1236  -0.1234   0.1652   0.1654
     0.6690   0.6691   1.1180   1.1182   1.5442   1.5444

     occupation numbers 
     1.0000   1.0000   1.0000   1.0000   1.0000   1.0000   1.0000   1.0000
     1.0000   1.0000   1.0000   1.0000   1.0000   1.0000   1.0000   1.0000
     1.0000   1.0000   1.0000   1.0000   1.0000   1.0000   1.0000   1.0000
     1.0000   1.0000   1.0000   1.0000   1.0000   1.0000   1.0000   1.0000
     1.0000   1.0000   1.0000   1.0000   1.0000   1.0000   1.0000   1.0000
     1.0000   1.0000   1.0000   1.0000   1.0000   1.0000   1.0000   1.0000
     1.0000   1.0000   1.0000   1.0000   1.0000   1.0000   1.0000   1.0000
     1.0000   1.0000   1.0000   1.0000   1.0000   1.0000   1.0000   1.0000
     1.0000   1.0000   1.0000   1.0000   1.0000   1.0000   1.0000   1.0000
     1.0000   1.0000   1.0000   1.0000   1.0000   1.0000

          k = 0.0476 0.2562 0.0000 ( 14943 PWs)   bands (ev):

   -35.6367 -35.6366 -35.6366 -35.6366 -35.6030 -35.6030 -35.6030 -35.6030
   -35.5340 -35.5340 -35.5029 -35.5029 -34.1782 -34.1782 -34.1782 -34.1781
   -34.1501 -34.1501 -34.1501 -34.1501 -34.1345 -34.1344 -34.1344 -34.1344
   -34.0724 -34.0724 -34.0552 -34.0552 -34.0316 -34.0316 -28.2865 -28.2864
   -28.2863 -28.2863 -28.2784 -28.2784 -28.2782 -28.2782 -27.0466 -27.0466
   -27.0465 -27.0465 -27.0389 -27.0389 -27.0387 -27.0387 -27.0358 -27.0358
   -27.0356 -27.0355 -10.3087 -10.3087  -9.8092  -9.8092  -8.9012  -8.9012
    -6.4945  -6.4945  -5.6828  -5.6828  -1.8404  -1.8402  -1.3051  -1.3050
    -1.0168  -1.0165  -0.6716  -0.6712  -0.3737  -0.3735   0.0831   0.0833
     0.6045   0.6046   0.8850   0.8852   1.5604   1.5606

     occupation numbers 
     1.0000   1.0000   1.0000   1.0000   1.0000   1.0000   1.0000   1.0000
     1.0000   1.0000   1.0000   1.0000   1.0000   1.0000   1.0000   1.0000
     1.0000   1.0000   1.0000   1.0000   1.0000   1.0000   1.0000   1.0000
     1.0000   1.0000   1.0000   1.0000   1.0000   1.0000   1.0000   1.0000
     1.0000   1.0000   1.0000   1.0000   1.0000   1.0000   1.0000   1.0000
     1.0000   1.0000   1.0000   1.0000   1.0000   1.0000   1.0000   1.0000
     1.0000   1.0000   1.0000   1.0000   1.0000   1.0000   1.0000   1.0000
     1.0000   1.0000   1.0000   1.0000   1.0000   1.0000   1.0000   1.0000
     1.0000   1.0000   1.0000   1.0000   1.0000   1.0000   1.0000   1.0000
     1.0000   1.0000   1.0000   1.0000   1.0000   1.0000

          k = 0.0476 0.3134 0.0000 ( 14929 PWs)   bands (ev):

   -35.6366 -35.6366 -35.6366 -35.6366 -35.6030 -35.6030 -35.6030 -35.6030
   -35.5340 -35.5340 -35.5029 -35.5029 -34.1781 -34.1780 -34.1780 -34.1780
   -34.1501 -34.1501 -34.1501 -34.1501 -34.1344 -34.1344 -34.1343 -34.1343
   -34.0724 -34.0724 -34.0552 -34.0552 -34.0315 -34.0315 -28.2863 -28.2863
   -28.2862 -28.2862 -28.2785 -28.2784 -28.2782 -28.2782 -27.0464 -27.0464
   -27.0463 -27.0463 -27.0389 -27.0389 -27.0387 -27.0387 -27.0359 -27.0358
   -27.0356 -27.0356 -10.1238 -10.1238  -9.6480  -9.6480  -8.8290  -8.8290
    -6.5969  -6.5969  -5.9533  -5.9533  -2.2139  -2.2138  -1.5339  -1.5338
    -1.1818  -1.1815  -0.9043  -0.9039  -0.5570  -0.5568  -0.0120  -0.0120
     0.4426   0.4428   0.7720   0.7722   1.4663   1.4665

     occupation numbers 
     1.0000   1.0000   1.0000   1.0000   1.0000   1.0000   1.0000   1.0000
     1.0000   1.0000   1.0000   1.0000   1.0000   1.0000   1.0000   1.0000
     1.0000   1.0000   1.0000   1.0000   1.0000   1.0000   1.0000   1.0000
     1.0000   1.0000   1.0000   1.0000   1.0000   1.0000   1.0000   1.0000
     1.0000   1.0000   1.0000   1.0000   1.0000   1.0000   1.0000   1.0000
     1.0000   1.0000   1.0000   1.0000   1.0000   1.0000   1.0000   1.0000
     1.0000   1.0000   1.0000   1.0000   1.0000   1.0000   1.0000   1.0000
     1.0000   1.0000   1.0000   1.0000   1.0000   1.0000   1.0000   1.0000
     1.0000   1.0000   1.0000   1.0000   1.0000   1.0000   1.0000   1.0000
     1.0000   1.0000   1.0000   1.0000   1.0000   1.0000

          k = 0.0476 0.3706 0.0000 ( 14940 PWs)   bands (ev):

   -35.6365 -35.6365 -35.6365 -35.6365 -35.6030 -35.6030 -35.6029 -35.6029
   -35.5340 -35.5340 -35.5028 -35.5028 -34.1780 -34.1779 -34.1779 -34.1779
   -34.1501 -34.1501 -34.1501 -34.1501 -34.1343 -34.1343 -34.1343 -34.1343
   -34.0724 -34.0724 -34.0552 -34.0552 -34.0314 -34.0314 -28.2862 -28.2862
   -28.2861 -28.2860 -28.2785 -28.2785 -28.2783 -28.2782 -27.0462 -27.0462
   -27.0461 -27.0461 -27.0390 -27.0389 -27.0387 -27.0387 -27.0359 -27.0359
   -27.0356 -27.0356  -9.9097  -9.9097  -9.4677  -9.4677  -8.7651  -8.7651
    -6.7464  -6.7464  -6.2296  -6.2295  -2.5324  -2.5323  -1.7048  -1.7047
    -1.3662  -1.3659  -1.0895  -1.0892  -0.6796  -0.6795  -0.1535  -0.1533
     0.2961   0.2964   0.7350   0.7351   1.3057   1.3059

     occupation numbers 
     1.0000   1.0000   1.0000   1.0000   1.0000   1.0000   1.0000   1.0000
     1.0000   1.0000   1.0000   1.0000   1.0000   1.0000   1.0000   1.0000
     1.0000   1.0000   1.0000   1.0000   1.0000   1.0000   1.0000   1.0000
     1.0000   1.0000   1.0000   1.0000   1.0000   1.0000   1.0000   1.0000
     1.0000   1.0000   1.0000   1.0000   1.0000   1.0000   1.0000   1.0000
     1.0000   1.0000   1.0000   1.0000   1.0000   1.0000   1.0000   1.0000
     1.0000   1.0000   1.0000   1.0000   1.0000   1.0000   1.0000   1.0000
     1.0000   1.0000   1.0000   1.0000   1.0000   1.0000   1.0000   1.0000
     1.0000   1.0000   1.0000   1.0000   1.0000   1.0000   1.0000   1.0000
     1.0000   1.0000   1.0000   1.0000   1.0000   1.0000

          k = 0.0476 0.4278 0.0000 ( 14949 PWs)   bands (ev):

   -35.6365 -35.6365 -35.6365 -35.6364 -35.6030 -35.6030 -35.6029 -35.6029
   -35.5340 -35.5340 -35.5027 -35.5027 -34.1779 -34.1778 -34.1778 -34.1778
   -34.1501 -34.1501 -34.1501 -34.1501 -34.1343 -34.1343 -34.1342 -34.1342
   -34.0724 -34.0724 -34.0552 -34.0552 -34.0313 -34.0313 -28.2861 -28.2861
   -28.2860 -28.2859 -28.2785 -28.2785 -28.2783 -28.2783 -27.0460 -27.0460
   -27.0459 -27.0459 -27.0390 -27.0389 -27.0387 -27.0387 -27.0359 -27.0359
   -27.0356 -27.0356  -9.6729  -9.6729  -9.2799  -9.2799  -8.7259  -8.7259
    -6.9389  -6.9389  -6.4816  -6.4816  -2.7853  -2.7853  -1.8160  -1.8160
    -1.5356  -1.5354  -1.2325  -1.2323  -0.7791  -0.7790  -0.3033  -0.3031
     0.2147   0.2150   0.7208   0.7209   1.1339   1.1340

     occupation numbers 
     1.0000   1.0000   1.0000   1.0000   1.0000   1.0000   1.0000   1.0000
     1.0000   1.0000   1.0000   1.0000   1.0000   1.0000   1.0000   1.0000
     1.0000   1.0000   1.0000   1.0000   1.0000   1.0000   1.0000   1.0000
     1.0000   1.0000   1.0000   1.0000   1.0000   1.0000   1.0000   1.0000
     1.0000   1.0000   1.0000   1.0000   1.0000   1.0000   1.0000   1.0000
[...]
   -27.0458 -27.0458 -27.0393 -27.0393 -27.0391 -27.0391 -27.0355 -27.0355
   -27.0353 -27.0353  -9.0204  -9.0204  -9.0076  -9.0076  -8.9727  -8.9726
    -7.3990  -7.3990  -6.8666  -6.8666  -3.1112  -3.1112  -1.8432  -1.8427
    -1.7291  -1.7286  -1.3830  -1.3828  -0.9239  -0.9235  -0.3725  -0.3722
     0.2057   0.2060   0.7799   0.7799   1.0438   1.0438

     occupation numbers 
     1.0000   1.0000   1.0000   1.0000   1.0000   1.0000   1.0000   1.0000
     1.0000   1.0000   1.0000   1.0000   1.0000   1.0000   1.0000   1.0000
     1.0000   1.0000   1.0000   1.0000   1.0000   1.0000   1.0000   1.0000
     1.0000   1.0000   1.0000   1.0000   1.0000   1.0000   1.0000   1.0000
     1.0000   1.0000   1.0000   1.0000   1.0000   1.0000   1.0000   1.0000
     1.0000   1.0000   1.0000   1.0000   1.0000   1.0000   1.0000   1.0000
     1.0000   1.0000   1.0000   1.0000   1.0000   1.0000   1.0000   1.0000
     1.0000   1.0000   1.0000   1.0000   1.0000   1.0000   1.0000   1.0000
     1.0000   1.0000   1.0000   1.0000   1.0000   1.0000   1.0000   1.0000
     1.0000   1.0000   1.0000   1.0000   1.0000   1.0000

          k = 0.4762-0.2969 0.0000 ( 14926 PWs)   bands (ev):

   -35.6364 -35.6364 -35.6364 -35.6364 -35.6029 -35.6029 -35.6029 -35.6029
   -35.5339 -35.5339 -35.5027 -35.5027 -34.1778 -34.1778 -34.1777 -34.1777
   -34.1501 -34.1501 -34.1501 -34.1501 -34.1342 -34.1342 -34.1342 -34.1342
   -34.0723 -34.0723 -34.0553 -34.0553 -34.0312 -34.0312 -28.2861 -28.2861
   -28.2860 -28.2860 -28.2785 -28.2785 -28.2783 -28.2783 -27.0459 -27.0459
   -27.0459 -27.0458 -27.0393 -27.0393 -27.0391 -27.0391 -27.0355 -27.0355
   -27.0353 -27.0353  -9.1231  -9.1231  -8.9966  -8.9966  -8.9348  -8.9347
    -7.3815  -7.3815  -6.8326  -6.8326  -3.1150  -3.1150  -1.8187  -1.8186
    -1.7109  -1.7107  -1.2829  -1.2829  -0.9540  -0.9540  -0.2976  -0.2976
     0.1421   0.1422   0.7976   0.7976   1.0238   1.0238

     occupation numbers 
     1.0000   1.0000   1.0000   1.0000   1.0000   1.0000   1.0000   1.0000
     1.0000   1.0000   1.0000   1.0000   1.0000   1.0000   1.0000   1.0000
     1.0000   1.0000   1.0000   1.0000   1.0000   1.0000   1.0000   1.0000
     1.0000   1.0000   1.0000   1.0000   1.0000   1.0000   1.0000   1.0000
     1.0000   1.0000   1.0000   1.0000   1.0000   1.0000   1.0000   1.0000
     1.0000   1.0000   1.0000   1.0000   1.0000   1.0000   1.0000   1.0000
     1.0000   1.0000   1.0000   1.0000   1.0000   1.0000   1.0000   1.0000
     1.0000   1.0000   1.0000   1.0000   1.0000   1.0000   1.0000   1.0000
     1.0000   1.0000   1.0000   1.0000   1.0000   1.0000   1.0000   1.0000
     1.0000   1.0000   1.0000   1.0000   1.0000   1.0000

          k = 0.4762-0.2397 0.0000 ( 14934 PWs)   bands (ev):

   -35.6364 -35.6364 -35.6364 -35.6364 -35.6029 -35.6029 -35.6029 -35.6029
   -35.5339 -35.5339 -35.5027 -35.5027 -34.1778 -34.1778 -34.1778 -34.1777
   -34.1502 -34.1501 -34.1501 -34.1501 -34.1342 -34.1342 -34.1342 -34.1342
   -34.0723 -34.0723 -34.0553 -34.0553 -34.0312 -34.0312 -28.2861 -28.2861
   -28.2860 -28.2860 -28.2785 -28.2784 -28.2783 -28.2783 -27.0459 -27.0459
   -27.0458 -27.0458 -27.0393 -27.0393 -27.0391 -27.0391 -27.0355 -27.0355
   -27.0353 -27.0353  -9.2314  -9.2314  -9.0263  -9.0263  -8.8532  -8.8532
    -7.3376  -7.3376  -6.8205  -6.8205  -3.0725  -3.0725  -1.8764  -1.8763
    -1.6539  -1.6537  -1.3724  -1.3721  -0.8890  -0.8887  -0.3727  -0.3724
     0.2194   0.2197   0.7918   0.7919   1.0647   1.0648

     occupation numbers 
     1.0000   1.0000   1.0000   1.0000   1.0000   1.0000   1.0000   1.0000
     1.0000   1.0000   1.0000   1.0000   1.0000   1.0000   1.0000   1.0000
     1.0000   1.0000   1.0000   1.0000   1.0000   1.0000   1.0000   1.0000
     1.0000   1.0000   1.0000   1.0000   1.0000   1.0000   1.0000   1.0000
     1.0000   1.0000   1.0000   1.0000   1.0000   1.0000   1.0000   1.0000
     1.0000   1.0000   1.0000   1.0000   1.0000   1.0000   1.0000   1.0000
     1.0000   1.0000   1.0000   1.0000   1.0000   1.0000   1.0000   1.0000
     1.0000   1.0000   1.0000   1.0000   1.0000   1.0000   1.0000   1.0000
     1.0000   1.0000   1.0000   1.0000   1.0000   1.0000   1.0000   1.0000
     1.0000   1.0000   1.0000   1.0000   1.0000   1.0000

          k = 0.4762-0.1826 0.0000 ( 14949 PWs)   bands (ev):

   -35.6365 -35.6364 -35.6364 -35.6364 -35.6029 -35.6029 -35.6029 -35.6029
   -35.5339 -35.5339 -35.5027 -35.5027 -34.1778 -34.1778 -34.1778 -34.1777
   -34.1502 -34.1501 -34.1501 -34.1501 -34.1343 -34.1343 -34.1342 -34.1342
   -34.0723 -34.0723 -34.0553 -34.0553 -34.0312 -34.0312 -28.2862 -28.2862
   -28.2860 -28.2859 -28.2785 -28.2784 -28.2783 -28.2783 -27.0460 -27.0460
   -27.0458 -27.0458 -27.0394 -27.0393 -27.0391 -27.0390 -27.0355 -27.0355
   -27.0353 -27.0353  -9.3242  -9.3242  -9.0600  -9.0600  -8.7822  -8.7822
    -7.2726  -7.2726  -6.8313  -6.8313  -2.9879  -2.9879  -1.9108  -1.9105
    -1.7206  -1.7201  -1.4959  -1.4957  -0.7982  -0.7981  -0.5072  -0.5070
     0.3110   0.3114   0.7789   0.7790   1.2163   1.2164

     occupation numbers 
     1.0000   1.0000   1.0000   1.0000   1.0000   1.0000   1.0000   1.0000
     1.0000   1.0000   1.0000   1.0000   1.0000   1.0000   1.0000   1.0000
     1.0000   1.0000   1.0000   1.0000   1.0000   1.0000   1.0000   1.0000
     1.0000   1.0000   1.0000   1.0000   1.0000   1.0000   1.0000   1.0000
     1.0000   1.0000   1.0000   1.0000   1.0000   1.0000   1.0000   1.0000
     1.0000   1.0000   1.0000   1.0000   1.0000   1.0000   1.0000   1.0000
     1.0000   1.0000   1.0000   1.0000   1.0000   1.0000   1.0000   1.0000
     1.0000   1.0000   1.0000   1.0000   1.0000   1.0000   1.0000   1.0000
     1.0000   1.0000   1.0000   1.0000   1.0000   1.0000   1.0000   1.0000
     1.0000   1.0000   1.0000   1.0000   1.0000   1.0000

          k = 0.4762-0.1254 0.0000 ( 14940 PWs)   bands (ev):

   -35.6365 -35.6365 -35.6364 -35.6364 -35.6030 -35.6030 -35.6029 -35.6029
   -35.5339 -35.5339 -35.5027 -35.5027 -34.1778 -34.1778 -34.1778 -34.1778
   -34.1502 -34.1501 -34.1501 -34.1501 -34.1343 -34.1343 -34.1343 -34.1342
   -34.0723 -34.0723 -34.0553 -34.0553 -34.0313 -34.0313 -28.2863 -28.2862
   -28.2859 -28.2859 -28.2784 -28.2784 -28.2783 -28.2782 -27.0460 -27.0460
   -27.0457 -27.0457 -27.0394 -27.0394 -27.0390 -27.0390 -27.0356 -27.0355
   -27.0354 -27.0354  -9.3959  -9.3959  -9.0919  -9.0919  -8.7293  -8.7293
    -7.1952  -7.1952  -6.8639  -6.8639  -2.8659  -2.8659  -2.0488  -2.0486
    -1.7505  -1.7501  -1.5547  -1.5545  -0.8408  -0.8404  -0.5799  -0.5795
     0.3935   0.3938   0.8441   0.8442   1.3393   1.3394

     occupation numbers 
     1.0000   1.0000   1.0000   1.0000   1.0000   1.0000   1.0000   1.0000
     1.0000   1.0000   1.0000   1.0000   1.0000   1.0000   1.0000   1.0000
     1.0000   1.0000   1.0000   1.0000   1.0000   1.0000   1.0000   1.0000
     1.0000   1.0000   1.0000   1.0000   1.0000   1.0000   1.0000   1.0000
     1.0000   1.0000   1.0000   1.0000   1.0000   1.0000   1.0000   1.0000
     1.0000   1.0000   1.0000   1.0000   1.0000   1.0000   1.0000   1.0000
     1.0000   1.0000   1.0000   1.0000   1.0000   1.0000   1.0000   1.0000
     1.0000   1.0000   1.0000   1.0000   1.0000   1.0000   1.0000   1.0000
     1.0000   1.0000   1.0000   1.0000   1.0000   1.0000   1.0000   1.0000
     1.0000   1.0000   1.0000   1.0000   1.0000   1.0000

          k = 0.4762-0.0682 0.0000 ( 14912 PWs)   bands (ev):

   -35.6365 -35.6365 -35.6364 -35.6364 -35.6030 -35.6030 -35.6029 -35.6029
   -35.5339 -35.5339 -35.5028 -35.5028 -34.1779 -34.1778 -34.1778 -34.1778
   -34.1502 -34.1501 -34.1501 -34.1501 -34.1343 -34.1343 -34.1343 -34.1343
   -34.0723 -34.0723 -34.0553 -34.0553 -34.0313 -34.0313 -28.2863 -28.2863
   -28.2860 -28.2859 -28.2784 -28.2784 -28.2783 -28.2782 -27.0461 -27.0460
   -27.0457 -27.0457 -27.0394 -27.0394 -27.0390 -27.0390 -27.0355 -27.0355
   -27.0354 -27.0354  -9.4432  -9.4432  -9.1171  -9.1171  -8.6999  -8.6999
    -7.1217  -7.1217  -6.9101  -6.9101  -2.7086  -2.7085  -2.2823  -2.2823
    -1.6886  -1.6884  -1.5231  -1.5229  -1.0613  -1.0611  -0.5469  -0.5467
     0.4966   0.4968   0.9616   0.9618   1.3123   1.3124

     occupation numbers 
     1.0000   1.0000   1.0000   1.0000   1.0000   1.0000   1.0000   1.0000
     1.0000   1.0000   1.0000   1.0000   1.0000   1.0000   1.0000   1.0000
     1.0000   1.0000   1.0000   1.0000   1.0000   1.0000   1.0000   1.0000
     1.0000   1.0000   1.0000   1.0000   1.0000   1.0000   1.0000   1.0000
     1.0000   1.0000   1.0000   1.0000   1.0000   1.0000   1.0000   1.0000
     1.0000   1.0000   1.0000   1.0000   1.0000   1.0000   1.0000   1.0000
     1.0000   1.0000   1.0000   1.0000   1.0000   1.0000   1.0000   1.0000
     1.0000   1.0000   1.0000   1.0000   1.0000   1.0000   1.0000   1.0000
     1.0000   1.0000   1.0000   1.0000   1.0000   1.0000   1.0000   1.0000
     1.0000   1.0000   1.0000   1.0000   1.0000   1.0000

          k = 0.4762-0.0110 0.0000 ( 14896 PWs)   bands (ev):

   -35.6365 -35.6365 -35.6364 -35.6364 -35.6030 -35.6030 -35.6029 -35.6029
   -35.5339 -35.5339 -35.5028 -35.5028 -34.1779 -34.1779 -34.1778 -34.1778
   -34.1501 -34.1501 -34.1501 -34.1501 -34.1343 -34.1343 -34.1343 -34.1343
   -34.0723 -34.0723 -34.0552 -34.0552 -34.0313 -34.0313 -28.2864 -28.2863
   -28.2860 -28.2860 -28.2784 -28.2784 -28.2782 -28.2782 -27.0461 -27.0461
   -27.0458 -27.0458 -27.0394 -27.0394 -27.0390 -27.0390 -27.0355 -27.0355
   -27.0354 -27.0354  -9.4638  -9.4638  -9.1322  -9.1322  -8.6969  -8.6969
    -7.0944  -7.0944  -6.9327  -6.9327  -2.5648  -2.5647  -2.4521  -2.4520
    -1.6707  -1.6705  -1.4111  -1.4108  -1.2212  -1.2210  -0.5299  -0.5299
     0.5579   0.5581   1.0691   1.0693   1.2393   1.2394

     occupation numbers 
     1.0000   1.0000   1.0000   1.0000   1.0000   1.0000   1.0000   1.0000
     1.0000   1.0000   1.0000   1.0000   1.0000   1.0000   1.0000   1.0000
     1.0000   1.0000   1.0000   1.0000   1.0000   1.0000   1.0000   1.0000
     1.0000   1.0000   1.0000   1.0000   1.0000   1.0000   1.0000   1.0000
     1.0000   1.0000   1.0000   1.0000   1.0000   1.0000   1.0000   1.0000
     1.0000   1.0000   1.0000   1.0000   1.0000   1.0000   1.0000   1.0000
     1.0000   1.0000   1.0000   1.0000   1.0000   1.0000   1.0000   1.0000
     1.0000   1.0000   1.0000   1.0000   1.0000   1.0000   1.0000   1.0000
     1.0000   1.0000   1.0000   1.0000   1.0000   1.0000   1.0000   1.0000
     1.0000   1.0000   1.0000   1.0000   1.0000   1.0000

          k = 0.4762 0.0462 0.0000 ( 14898 PWs)   bands (ev):

   -35.6365 -35.6365 -35.6364 -35.6364 -35.6030 -35.6030 -35.6029 -35.6029
   -35.5339 -35.5339 -35.5028 -35.5028 -34.1779 -34.1779 -34.1778 -34.1778
   -34.1501 -34.1501 -34.1501 -34.1501 -34.1343 -34.1343 -34.1343 -34.1343
   -34.0723 -34.0723 -34.0552 -34.0552 -34.0313 -34.0313 -28.2864 -28.2864
   -28.2860 -28.2860 -28.2784 -28.2784 -28.2782 -28.2782 -27.0462 -27.0462
   -27.0459 -27.0458 -27.0394 -27.0394 -27.0390 -27.0390 -27.0355 -27.0355
   -27.0354 -27.0354  -9.4571  -9.4571  -9.1358  -9.1358  -8.7201  -8.7201
    -7.1478  -7.1478  -6.8984  -6.8984  -2.7150  -2.7150  -2.2625  -2.2625
    -1.6639  -1.6634  -1.5102  -1.5097  -1.0401  -1.0399  -0.5321  -0.5320
     0.5256   0.5258   0.9952   0.9953   1.3609   1.3610

     occupation numbers 
     1.0000   1.0000   1.0000   1.0000   1.0000   1.0000   1.0000   1.0000
     1.0000   1.0000   1.0000   1.0000   1.0000   1.0000   1.0000   1.0000
     1.0000   1.0000   1.0000   1.0000   1.0000   1.0000   1.0000   1.0000
     1.0000   1.0000   1.0000   1.0000   1.0000   1.0000   1.0000   1.0000
     1.0000   1.0000   1.0000   1.0000   1.0000   1.0000   1.0000   1.0000
     1.0000   1.0000   1.0000   1.0000   1.0000   1.0000   1.0000   1.0000
     1.0000   1.0000   1.0000   1.0000   1.0000   1.0000   1.0000   1.0000
     1.0000   1.0000   1.0000   1.0000   1.0000   1.0000   1.0000   1.0000
     1.0000   1.0000   1.0000   1.0000   1.0000   1.0000   1.0000   1.0000
     1.0000   1.0000   1.0000   1.0000   1.0000   1.0000

          k = 0.4762 0.1034 0.0000 ( 14894 PWs)   bands (ev):

   -35.6365 -35.6365 -35.6364 -35.6364 -35.6030 -35.6030 -35.6030 -35.6030
   -35.5339 -35.5339 -35.5028 -35.5028 -34.1779 -34.1779 -34.1778 -34.1778
   -34.1501 -34.1501 -34.1501 -34.1501 -34.1343 -34.1343 -34.1343 -34.1343
   -34.0723 -34.0723 -34.0552 -34.0552 -34.0314 -34.0314 -28.2864 -28.2864
   -28.2861 -28.2861 -28.2784 -28.2784 -28.2782 -28.2782 -27.0462 -27.0462
   -27.0460 -27.0460 -27.0394 -27.0393 -27.0390 -27.0390 -27.0355 -27.0355
   -27.0353 -27.0353  -9.4232  -9.4232  -9.1283  -9.1283  -8.7667  -8.7667
    -7.2293  -7.2293  -6.8564  -6.8564  -2.8674  -2.8674  -2.0399  -2.0398
    -1.7079  -1.7075  -1.4965  -1.4962  -0.8425  -0.8423  -0.5093  -0.5091
     0.4472   0.4475   0.8985   0.8986   1.4451   1.4451

     occupation numbers 
     1.0000   1.0000   1.0000   1.0000   1.0000   1.0000   1.0000   1.0000
     1.0000   1.0000   1.0000   1.0000   1.0000   1.0000   1.0000   1.0000
     1.0000   1.0000   1.0000   1.0000   1.0000   1.0000   1.0000   1.0000
     1.0000   1.0000   1.0000   1.0000   1.0000   1.0000   1.0000   1.0000
     1.0000   1.0000   1.0000   1.0000   1.0000   1.0000   1.0000   1.0000
     1.0000   1.0000   1.0000   1.0000   1.0000   1.0000   1.0000   1.0000
     1.0000   1.0000   1.0000   1.0000   1.0000   1.0000   1.0000   1.0000
     1.0000   1.0000   1.0000   1.0000   1.0000   1.0000   1.0000   1.0000
     1.0000   1.0000   1.0000   1.0000   1.0000   1.0000   1.0000   1.0000
     1.0000   1.0000   1.0000   1.0000   1.0000   1.0000

          k = 0.4762 0.1606 0.0000 ( 14897 PWs)   bands (ev):

   -35.6365 -35.6365 -35.6364 -35.6364 -35.6030 -35.6030 -35.6030 -35.6030
   -35.5339 -35.5339 -35.5028 -35.5028 -34.1779 -34.1779 -34.1778 -34.1778
   -34.1501 -34.1501 -34.1501 -34.1501 -34.1344 -34.1343 -34.1343 -34.1343
   -34.0722 -34.0722 -34.0552 -34.0552 -34.0314 -34.0314 -28.2864 -28.2864
   -28.2862 -28.2861 -28.2784 -28.2784 -28.2782 -28.2781 -27.0463 -27.0463
   -27.0461 -27.0461 -27.0393 -27.0393 -27.0390 -27.0389 -27.0355 -27.0355
   -27.0353 -27.0353  -9.3638  -9.3638  -9.1118  -9.1118  -8.8322  -8.8322
    -7.3084  -7.3084  -6.8302  -6.8302  -2.9865  -2.9865  -1.9212  -1.9211
    -1.6687  -1.6686  -1.4025  -1.4023  -0.7613  -0.7612  -0.4222  -0.4221
     0.3751   0.3754   0.8655   0.8656   1.3539   1.3540

     occupation numbers 
     1.0000   1.0000   1.0000   1.0000   1.0000   1.0000   1.0000   1.0000
     1.0000   1.0000   1.0000   1.0000   1.0000   1.0000   1.0000   1.0000
     1.0000   1.0000   1.0000   1.0000   1.0000   1.0000   1.0000   1.0000
     1.0000   1.0000   1.0000   1.0000   1.0000   1.0000   1.0000   1.0000
     1.0000   1.0000   1.0000   1.0000   1.0000   1.0000   1.0000   1.0000
     1.0000   1.0000   1.0000   1.0000   1.0000   1.0000   1.0000   1.0000
     1.0000   1.0000   1.0000   1.0000   1.0000   1.0000   1.0000   1.0000
     1.0000   1.0000   1.0000   1.0000   1.0000   1.0000   1.0000   1.0000
     1.0000   1.0000   1.0000   1.0000   1.0000   1.0000   1.0000   1.0000
     1.0000   1.0000   1.0000   1.0000   1.0000   1.0000

          k = 0.4762 0.2177 0.0000 ( 14916 PWs)   bands (ev):

   -35.6365 -35.6365 -35.6365 -35.6364 -35.6030 -35.6030 -35.6030 -35.6030
   -35.5339 -35.5339 -35.5028 -35.5028 -34.1779 -34.1779 -34.1779 -34.1778
   -34.1501 -34.1501 -34.1501 -34.1501 -34.1344 -34.1343 -34.1343 -34.1343
   -34.0722 -34.0722 -34.0552 -34.0552 -34.0314 -34.0314 -28.2864 -28.2863
   -28.2862 -28.2862 -28.2784 -28.2784 -28.2781 -28.2781 -27.0463 -27.0463
   -27.0462 -27.0462 -27.0393 -27.0393 -27.0390 -27.0389 -27.0355 -27.0355
   -27.0353 -27.0352  -9.2818  -9.2818  -9.0899  -9.0899  -8.9097  -8.9096
    -7.3724  -7.3724  -6.8238  -6.8238  -3.0691  -3.0691  -1.8799  -1.8798
    -1.6324  -1.6322  -1.2589  -1.2587  -0.7645  -0.7645  -0.3202  -0.3200
     0.2937   0.2940   0.9127   0.9128   1.1994   1.1995

     occupation numbers 
     1.0000   1.0000   1.0000   1.0000   1.0000   1.0000   1.0000   1.0000
     1.0000   1.0000   1.0000   1.0000   1.0000   1.0000   1.0000   1.0000
     1.0000   1.0000   1.0000   1.0000   1.0000   1.0000   1.0000   1.0000
     1.0000   1.0000   1.0000   1.0000   1.0000   1.0000   1.0000   1.0000
     1.0000   1.0000   1.0000   1.0000   1.0000   1.0000   1.0000   1.0000
     1.0000   1.0000   1.0000   1.0000   1.0000   1.0000   1.0000   1.0000
     1.0000   1.0000   1.0000   1.0000   1.0000   1.0000   1.0000   1.0000
     1.0000   1.0000   1.0000   1.0000   1.0000   1.0000   1.0000   1.0000
     1.0000   1.0000   1.0000   1.0000   1.0000   1.0000   1.0000   1.0000
     1.0000   1.0000   1.0000   1.0000   1.0000   1.0000

     highest occupied level (ev):     1.6554

!    total energy              =    -806.57069888 Ry
     estimated scf accuracy    <       0.00000002 Ry

     The total energy is the sum of the following terms:
     one-electron contribution =   -3375.28086611 Ry
     hartree contribution      =    1682.38529980 Ry
     xc contribution           =     -87.14320560 Ry
     ewald contribution        =     973.46807302 Ry

     convergence has been achieved in  14 iterations

     Writing all to output data dir tmp/Sb2Te3-uatsx-c2-soc-4.0.save/ :
     XML data file, charge density, pseudopotentials, collected wavefunctions

     init_run     :     37.56s CPU     20.41s WALL (       1 calls)
     electrons    :   2259.78s CPU   1202.02s WALL (       1 calls)

     Called by init_run:
     wfcinit      :     36.35s CPU     19.20s WALL (       1 calls)
     wfcinit:wfcr :     34.39s CPU     17.83s WALL (     221 calls)
     potinit      :      0.50s CPU      0.47s WALL (       1 calls)
     hinit0       :      0.60s CPU      0.62s WALL (       1 calls)

     Called by electrons:
     c_bands      :   2041.36s CPU   1090.62s WALL (      15 calls)
     sum_band     :    217.17s CPU    110.34s WALL (      15 calls)
     v_of_rho     :      0.66s CPU      0.45s WALL (      15 calls)
     v_h          :      0.05s CPU      0.03s WALL (      15 calls)
     v_xc         :      0.61s CPU      0.42s WALL (      15 calls)
     mix_rho      :      0.32s CPU      0.20s WALL (      15 calls)

     Called by c_bands:
     init_us_2    :     11.80s CPU      6.01s WALL (    6851 calls)
     cegterg      :   1967.83s CPU   1040.99s WALL (    3315 calls)

     Called by sum_band:
     sum_band:wei :      0.00s CPU      0.00s WALL (      15 calls)
     sum_band:loo :    216.97s CPU    110.23s WALL (      15 calls)
     sum_band:buf :      3.45s CPU      1.84s WALL (    3315 calls)
     sum_band:ini :      5.66s CPU      2.85s WALL (    3315 calls)

     Called by *egterg:
     cdiaghg      :    251.11s CPU    162.13s WALL (   20285 calls)
     cegterg:over :     83.49s CPU     44.14s WALL (   17191 calls)
     cegterg:upda :     51.54s CPU     23.18s WALL (   17191 calls)
     cegterg:last :     69.21s CPU     34.61s WALL (    8671 calls)
     h_psi        :   1489.40s CPU    761.34s WALL (   20727 calls)
     g_psi        :      5.26s CPU      4.04s WALL (   17191 calls)

     Called by h_psi:
     h_psi:calbec :     82.60s CPU     40.37s WALL (   20727 calls)
     vloc_psi     :   1314.86s CPU    668.50s WALL (   20727 calls)
     add_vuspsi   :     87.98s CPU     50.14s WALL (   20727 calls)

     General routines
     calbec       :     82.48s CPU     40.32s WALL (   20727 calls)
     fft          :      1.41s CPU      1.14s WALL (     349 calls)
     ffts         :      0.47s CPU      0.45s WALL (     120 calls)
     fftw         :   1122.44s CPU    565.69s WALL ( 3738472 calls)
     interpolate  :      0.60s CPU      0.51s WALL (      60 calls)

     Parallel routines

     PWSCF        :  38m30.78s CPU  21m49.43s WALL


   This run was terminated on:  17:42:13  14Aug2025            

=------------------------------------------------------------------------------=
   JOB DONE.
=------------------------------------------------------------------------------=
