
     Program PWSCF v.7.4.1 starts on 22Aug2025 at 15:48:10 

     This program is part of the open-source Quantum ESPRESSO suite
     for quantum simulation of materials; please cite
         "P. Giannozzi et al., J. Phys.:Condens. Matter 21 395502 (2009);
         "P. Giannozzi et al., J. Phys.:Condens. Matter 29 465901 (2017);
         "P. Giannozzi et al., J. Chem. Phys. 152 154105 (2020);
          URL http://www.quantum-espresso.org", 
     in publications or presentations arising from this work. More details at
     http://www.quantum-espresso.org/quote

     Parallel version (MPI & OpenMP), running on      48 processor cores
     Number of MPI processes:                24
     Threads/MPI process:                     2

     MPI processes distributed on     2 nodes
     92825 MiB available memory on the printing compute node when the environment starts

     Waiting for input...
     Reading input from standard input

     Current dimensions of program PWSCF are:
     Max number of different atomic species (ntypx) = 10
     Max number of k-points (npk) =  40000
     Max angular momentum in pseudopotentials (lmaxx) =  4
Error reading attribute index: expected integer, found *
Error reading attribute index: expected integer, found *

     IMPORTANT: XC functional enforced from input :
     Exchange-correlation= PBE
                           (   1   4   3   4   0   0   0)
     Any further DFT definition will be discarded
     Please, verify this is what you really want

     Message from routine setup:
     no reason to have ecutrho>4*ecutwfc

     R & G space division:  proc/nbgrp/npool/nimage =      24
     Subspace diagonalization in iterative solution of the eigenvalue problem:
     a serial algorithm will be used


     Parallelization info
     --------------------
     sticks:   dense  smooth     PW     G-vecs:    dense   smooth      PW
     Min         134      53     15                31668     8003    1273
     Max         135      54     16                31693     8032    1296
     Sum        3235    1285    379               760395   192371   30895

     Using Slab Decomposition



     bravais-lattice index     =            0
     lattice parameter (alat)  =       8.2271  a.u.
     unit-cell volume          =    2430.6623 (a.u.)^3
     number of atoms/cell      =            5
     number of atomic types    =            2
     number of electrons       =        78.00
     number of Kohn-Sham states=           78
     kinetic-energy cutoff     =      70.0000  Ry
     charge density cutoff     =     700.0000  Ry
     scf convergence threshold =      1.0E-07
     mixing beta               =       0.7000
     number of iterations used =            8  plain     mixing
     Exchange-correlation= PBE
                           (   1   4   3   4   0   0   0)
     Non magnetic calculation with spin-orbit


     celldm(1)=   8.227090  celldm(2)=   0.000000  celldm(3)=   0.000000
     celldm(4)=   0.000000  celldm(5)=   0.000000  celldm(6)=   0.000000

     crystal axes: (cart. coord. in units of alat)
               a(1) = (   1.000000   0.000000   0.000000 )  
               a(2) = (  -0.495050   0.857443   0.000000 )  
               a(3) = (   0.000000   0.000000   5.090739 )  

     reciprocal axes: (cart. coord. in units 2 pi/alat)
               b(1) = (  1.000000  0.577356 -0.000000 )  
               b(2) = (  0.000000  1.166259  0.000000 )  
               b(3) = (  0.000000 -0.000000  0.196435 )  


     PseudoPot. # 1 for Sb read from file:
     /zfs-home/202401017n1/pseudos/Sb_ONCV_PBE_FR-1.1.upf
     MD5 check sum: 7dc1726f2158e3c51e4807d42b9c5c65
     Pseudo is Norm-conserving, Zval = 15.0
     Generated using ONCVPSP code by D. R. Hamann
     Using radial grid of  602 points, 10 beta functions with: 
                l(1) =   0
                l(2) =   0
                l(3) =   1
                l(4) =   1
                l(5) =   1
                l(6) =   1
                l(7) =   2
                l(8) =   2
                l(9) =   2
               l(10) =   2

     PseudoPot. # 2 for Te read from file:
     /zfs-home/202401017n1/pseudos/Te_ONCV_PBE_FR-1.1.upf
     MD5 check sum: c6e17480449037a9a9d16e6377b5c7c4
     Pseudo is Norm-conserving, Zval = 16.0
     Generated using ONCVPSP code by D. R. Hamann
     Using radial grid of  602 points, 10 beta functions with: 
                l(1) =   0
                l(2) =   0
                l(3) =   1
                l(4) =   1
                l(5) =   1
                l(6) =   1
                l(7) =   2
                l(8) =   2
                l(9) =   2
               l(10) =   2

     atomic species   valence    mass     pseudopotential
     Sb               15.00   121.76000     Sb( 1.00)
     Te               16.00   127.60000     Te( 1.00)

     No symmetry found


                                    s                        frac. trans.

      isym =  1     identity                                     

 cryst.   s( 1) = (     1          0          0      )
                  (     0          1          0      )
                  (     0          0          1      )

 cart.    s( 1) = (  1.0000000  0.0000000  0.0000000 )
                  (  0.0000000  1.0000000  0.0000000 )
                  (  0.0000000  0.0000000  1.0000000 )


   Cartesian axes

     site n.     atom                  positions (alat units)
         1        Sb     tau(   1) = (   0.5788554   0.4207610   3.0040749  )
         2        Te     tau(   2) = (   0.5752577   0.4138624   1.6972962  )
         3        Sb     tau(   3) = (   0.0743102   0.1298379   2.0866212  )
         4        Te     tau(   4) = (   0.0782247   0.1361538   3.3933943  )
         5        Te     tau(   5) = (   0.0792404   0.7036244   2.5453648  )

     -------------------------------------------------
     Parameters for Dispersion (Grimme-D2) Correction:
     -------------------------------------------------
       atom      VdW radius       C_6     

        Sb         3.555       1333.532
        Te         3.575       1101.101

   Crystallographic axes

     site n.     atom                  positions (cryst. coord.)
         1        Sb     tau(   1) = (  0.8217842  0.4907162  0.5901058  )
         2        Te     tau(   2) = (  0.8142035  0.4826706  0.3334086  )
         3        Sb     tau(   3) = (  0.1492728  0.1514246  0.4098857  )
         4        Te     tau(   4) = (  0.1568340  0.1587906  0.6665818  )
         5        Te     tau(   5) = (  0.4854821  0.8206082  0.4999990  )

     number of k points=   221
                       cart. coord. in units 2pi/alat
        k(    1) = (   0.0000000   0.0000000   0.0000000), wk =   0.0022676
        k(    2) = (   0.0000000   0.0555361   0.0000000), wk =   0.0045351
        k(    3) = (   0.0000000   0.1110723   0.0000000), wk =   0.0045351
        k(    4) = (   0.0000000   0.1666084   0.0000000), wk =   0.0045351
        k(    5) = (   0.0000000   0.2221445   0.0000000), wk =   0.0045351
        k(    6) = (   0.0000000   0.2776807   0.0000000), wk =   0.0045351
        k(    7) = (   0.0000000   0.3332168   0.0000000), wk =   0.0045351
        k(    8) = (   0.0000000   0.3887529   0.0000000), wk =   0.0045351
        k(    9) = (   0.0000000   0.4442891   0.0000000), wk =   0.0045351
        k(   10) = (   0.0000000   0.4998252   0.0000000), wk =   0.0045351
        k(   11) = (   0.0000000   0.5553613   0.0000000), wk =   0.0045351
        k(   12) = (   0.0476190   0.0274931   0.0000000), wk =   0.0045351
        k(   13) = (   0.0476190   0.0830293   0.0000000), wk =   0.0045351
        k(   14) = (   0.0476190   0.1385654   0.0000000), wk =   0.0045351
        k(   15) = (   0.0476190   0.1941015   0.0000000), wk =   0.0045351
        k(   16) = (   0.0476190   0.2496377   0.0000000), wk =   0.0045351
        k(   17) = (   0.0476190   0.3051738   0.0000000), wk =   0.0045351
        k(   18) = (   0.0476190   0.3607099   0.0000000), wk =   0.0045351
        k(   19) = (   0.0476190   0.4162461   0.0000000), wk =   0.0045351
        k(   20) = (   0.0476190   0.4717822   0.0000000), wk =   0.0045351
        k(   21) = (   0.0476190   0.5273183   0.0000000), wk =   0.0045351
        k(   22) = (   0.0476190   0.5828545   0.0000000), wk =   0.0045351
        k(   23) = (   0.0476190  -0.5278682   0.0000000), wk =   0.0045351
        k(   24) = (   0.0476190  -0.4723321   0.0000000), wk =   0.0045351
        k(   25) = (   0.0476190  -0.4167959   0.0000000), wk =   0.0045351
        k(   26) = (   0.0476190  -0.3612598   0.0000000), wk =   0.0045351
        k(   27) = (   0.0476190  -0.3057237   0.0000000), wk =   0.0045351
        k(   28) = (   0.0476190  -0.2501875   0.0000000), wk =   0.0045351
        k(   29) = (   0.0476190  -0.1946514   0.0000000), wk =   0.0045351
        k(   30) = (   0.0476190  -0.1391153   0.0000000), wk =   0.0045351
        k(   31) = (   0.0476190  -0.0835791   0.0000000), wk =   0.0045351
        k(   32) = (   0.0476190  -0.0280430   0.0000000), wk =   0.0045351
        k(   33) = (   0.0952381   0.0549863   0.0000000), wk =   0.0045351
        k(   34) = (   0.0952381   0.1105224   0.0000000), wk =   0.0045351
        k(   35) = (   0.0952381   0.1660585   0.0000000), wk =   0.0045351
        k(   36) = (   0.0952381   0.2215947   0.0000000), wk =   0.0045351
        k(   37) = (   0.0952381   0.2771308   0.0000000), wk =   0.0045351
        k(   38) = (   0.0952381   0.3326669   0.0000000), wk =   0.0045351
        k(   39) = (   0.0952381   0.3882031   0.0000000), wk =   0.0045351
        k(   40) = (   0.0952381   0.4437392   0.0000000), wk =   0.0045351
        k(   41) = (   0.0952381   0.4992753   0.0000000), wk =   0.0045351
        k(   42) = (   0.0952381   0.5548115   0.0000000), wk =   0.0045351
        k(   43) = (   0.0952381   0.6103476   0.0000000), wk =   0.0045351
        k(   44) = (   0.0952381  -0.5003751   0.0000000), wk =   0.0045351
        k(   45) = (   0.0952381  -0.4448389   0.0000000), wk =   0.0045351
        k(   46) = (   0.0952381  -0.3893028   0.0000000), wk =   0.0045351
        k(   47) = (   0.0952381  -0.3337667   0.0000000), wk =   0.0045351
        k(   48) = (   0.0952381  -0.2782305   0.0000000), wk =   0.0045351
        k(   49) = (   0.0952381  -0.2226944   0.0000000), wk =   0.0045351
        k(   50) = (   0.0952381  -0.1671583   0.0000000), wk =   0.0045351
        k(   51) = (   0.0952381  -0.1116221   0.0000000), wk =   0.0045351
        k(   52) = (   0.0952381  -0.0560860   0.0000000), wk =   0.0045351
        k(   53) = (   0.0952381  -0.0005499   0.0000000), wk =   0.0045351
        k(   54) = (   0.1428571   0.0824794   0.0000000), wk =   0.0045351
        k(   55) = (   0.1428571   0.1380155   0.0000000), wk =   0.0045351
        k(   56) = (   0.1428571   0.1935517   0.0000000), wk =   0.0045351
        k(   57) = (   0.1428571   0.2490878   0.0000000), wk =   0.0045351
        k(   58) = (   0.1428571   0.3046239   0.0000000), wk =   0.0045351
        k(   59) = (   0.1428571   0.3601601   0.0000000), wk =   0.0045351
        k(   60) = (   0.1428571   0.4156962   0.0000000), wk =   0.0045351
        k(   61) = (   0.1428571   0.4712323   0.0000000), wk =   0.0045351
        k(   62) = (   0.1428571   0.5267685   0.0000000), wk =   0.0045351
        k(   63) = (   0.1428571   0.5823046   0.0000000), wk =   0.0045351
        k(   64) = (   0.1428571   0.6378408   0.0000000), wk =   0.0045351
        k(   65) = (   0.1428571  -0.4728819   0.0000000), wk =   0.0045351
        k(   66) = (   0.1428571  -0.4173458   0.0000000), wk =   0.0045351
        k(   67) = (   0.1428571  -0.3618097   0.0000000), wk =   0.0045351
        k(   68) = (   0.1428571  -0.3062735   0.0000000), wk =   0.0045351
        k(   69) = (   0.1428571  -0.2507374   0.0000000), wk =   0.0045351
        k(   70) = (   0.1428571  -0.1952013   0.0000000), wk =   0.0045351
        k(   71) = (   0.1428571  -0.1396651   0.0000000), wk =   0.0045351
        k(   72) = (   0.1428571  -0.0841290   0.0000000), wk =   0.0045351
        k(   73) = (   0.1428571  -0.0285929   0.0000000), wk =   0.0045351
        k(   74) = (   0.1428571   0.0269433   0.0000000), wk =   0.0045351
        k(   75) = (   0.1904762   0.1099725   0.0000000), wk =   0.0045351
        k(   76) = (   0.1904762   0.1655087   0.0000000), wk =   0.0045351
        k(   77) = (   0.1904762   0.2210448   0.0000000), wk =   0.0045351
        k(   78) = (   0.1904762   0.2765809   0.0000000), wk =   0.0045351
        k(   79) = (   0.1904762   0.3321171   0.0000000), wk =   0.0045351
        k(   80) = (   0.1904762   0.3876532   0.0000000), wk =   0.0045351
        k(   81) = (   0.1904762   0.4431894   0.0000000), wk =   0.0045351
        k(   82) = (   0.1904762   0.4987255   0.0000000), wk =   0.0045351
        k(   83) = (   0.1904762   0.5542616   0.0000000), wk =   0.0045351
        k(   84) = (   0.1904762   0.6097978   0.0000000), wk =   0.0045351
        k(   85) = (   0.1904762   0.6653339   0.0000000), wk =   0.0045351
        k(   86) = (   0.1904762  -0.4453888   0.0000000), wk =   0.0045351
        k(   87) = (   0.1904762  -0.3898527   0.0000000), wk =   0.0045351
        k(   88) = (   0.1904762  -0.3343165   0.0000000), wk =   0.0045351
        k(   89) = (   0.1904762  -0.2787804   0.0000000), wk =   0.0045351
        k(   90) = (   0.1904762  -0.2232443   0.0000000), wk =   0.0045351
        k(   91) = (   0.1904762  -0.1677081   0.0000000), wk =   0.0045351
        k(   92) = (   0.1904762  -0.1121720   0.0000000), wk =   0.0045351
        k(   93) = (   0.1904762  -0.0566359   0.0000000), wk =   0.0045351
        k(   94) = (   0.1904762  -0.0010997   0.0000000), wk =   0.0045351
        k(   95) = (   0.1904762   0.0544364   0.0000000), wk =   0.0045351
        k(   96) = (   0.2380952   0.1374657   0.0000000), wk =   0.0045351
        k(   97) = (   0.2380952   0.1930018   0.0000000), wk =   0.0045351
        k(   98) = (   0.2380952   0.2485379   0.0000000), wk =   0.0045351
        k(   99) = (   0.2380952   0.3040741   0.0000000), wk =   0.0045351
        k(  100) = (   0.2380952   0.3596102   0.0000000), wk =   0.0045351
        k(  101) = (   0.2380952   0.4151464   0.0000000), wk =   0.0045351
        k(  102) = (   0.2380952   0.4706825   0.0000000), wk =   0.0045351
        k(  103) = (   0.2380952   0.5262186   0.0000000), wk =   0.0045351
        k(  104) = (   0.2380952   0.5817548   0.0000000), wk =   0.0045351
        k(  105) = (   0.2380952   0.6372909   0.0000000), wk =   0.0045351
        k(  106) = (   0.2380952   0.6928270   0.0000000), wk =   0.0045351
        k(  107) = (   0.2380952  -0.4178957   0.0000000), wk =   0.0045351
        k(  108) = (   0.2380952  -0.3623595   0.0000000), wk =   0.0045351
        k(  109) = (   0.2380952  -0.3068234   0.0000000), wk =   0.0045351
        k(  110) = (   0.2380952  -0.2512873   0.0000000), wk =   0.0045351
        k(  111) = (   0.2380952  -0.1957511   0.0000000), wk =   0.0045351
        k(  112) = (   0.2380952  -0.1402150   0.0000000), wk =   0.0045351
        k(  113) = (   0.2380952  -0.0846789   0.0000000), wk =   0.0045351
        k(  114) = (   0.2380952  -0.0291427   0.0000000), wk =   0.0045351
        k(  115) = (   0.2380952   0.0263934   0.0000000), wk =   0.0045351
        k(  116) = (   0.2380952   0.0819295   0.0000000), wk =   0.0045351
        k(  117) = (   0.2857143   0.1649588   0.0000000), wk =   0.0045351
        k(  118) = (   0.2857143   0.2204949   0.0000000), wk =   0.0045351
        k(  119) = (   0.2857143   0.2760311   0.0000000), wk =   0.0045351
        k(  120) = (   0.2857143   0.3315672   0.0000000), wk =   0.0045351
        k(  121) = (   0.2857143   0.3871034   0.0000000), wk =   0.0045351
        k(  122) = (   0.2857143   0.4426395   0.0000000), wk =   0.0045351
        k(  123) = (   0.2857143   0.4981756   0.0000000), wk =   0.0045351
        k(  124) = (   0.2857143   0.5537118   0.0000000), wk =   0.0045351
        k(  125) = (   0.2857143   0.6092479   0.0000000), wk =   0.0045351
        k(  126) = (   0.2857143   0.6647840   0.0000000), wk =   0.0045351
        k(  127) = (   0.2857143   0.7203202   0.0000000), wk =   0.0045351
        k(  128) = (   0.2857143  -0.3904025   0.0000000), wk =   0.0045351
        k(  129) = (   0.2857143  -0.3348664   0.0000000), wk =   0.0045351
        k(  130) = (   0.2857143  -0.2793303   0.0000000), wk =   0.0045351
        k(  131) = (   0.2857143  -0.2237941   0.0000000), wk =   0.0045351
        k(  132) = (   0.2857143  -0.1682580   0.0000000), wk =   0.0045351
        k(  133) = (   0.2857143  -0.1127219   0.0000000), wk =   0.0045351
        k(  134) = (   0.2857143  -0.0571857   0.0000000), wk =   0.0045351
        k(  135) = (   0.2857143  -0.0016496   0.0000000), wk =   0.0045351
        k(  136) = (   0.2857143   0.0538865   0.0000000), wk =   0.0045351
        k(  137) = (   0.2857143   0.1094227   0.0000000), wk =   0.0045351
        k(  138) = (   0.3333333   0.1924520   0.0000000), wk =   0.0045351
        k(  139) = (   0.3333333   0.2479881   0.0000000), wk =   0.0045351
        k(  140) = (   0.3333333   0.3035242   0.0000000), wk =   0.0045351
        k(  141) = (   0.3333333   0.3590604   0.0000000), wk =   0.0045351
        k(  142) = (   0.3333333   0.4145965   0.0000000), wk =   0.0045351
        k(  143) = (   0.3333333   0.4701326   0.0000000), wk =   0.0045351
        k(  144) = (   0.3333333   0.5256688   0.0000000), wk =   0.0045351
        k(  145) = (   0.3333333   0.5812049   0.0000000), wk =   0.0045351
        k(  146) = (   0.3333333   0.6367410   0.0000000), wk =   0.0045351
        k(  147) = (   0.3333333   0.6922772   0.0000000), wk =   0.0045351
        k(  148) = (   0.3333333   0.7478133   0.0000000), wk =   0.0045351
        k(  149) = (   0.3333333  -0.3629094   0.0000000), wk =   0.0045351
        k(  150) = (   0.3333333  -0.3073733   0.0000000), wk =   0.0045351
        k(  151) = (   0.3333333  -0.2518371   0.0000000), wk =   0.0045351
        k(  152) = (   0.3333333  -0.1963010   0.0000000), wk =   0.0045351
        k(  153) = (   0.3333333  -0.1407649   0.0000000), wk =   0.0045351
        k(  154) = (   0.3333333  -0.0852287   0.0000000), wk =   0.0045351
        k(  155) = (   0.3333333  -0.0296926   0.0000000), wk =   0.0045351
        k(  156) = (   0.3333333   0.0258435   0.0000000), wk =   0.0045351
        k(  157) = (   0.3333333   0.0813797   0.0000000), wk =   0.0045351
        k(  158) = (   0.3333333   0.1369158   0.0000000), wk =   0.0045351
        k(  159) = (   0.3809524   0.2199451   0.0000000), wk =   0.0045351
        k(  160) = (   0.3809524   0.2754812   0.0000000), wk =   0.0045351
        k(  161) = (   0.3809524   0.3310174   0.0000000), wk =   0.0045351
        k(  162) = (   0.3809524   0.3865535   0.0000000), wk =   0.0045351
        k(  163) = (   0.3809524   0.4420896   0.0000000), wk =   0.0045351
        k(  164) = (   0.3809524   0.4976258   0.0000000), wk =   0.0045351
        k(  165) = (   0.3809524   0.5531619   0.0000000), wk =   0.0045351
        k(  166) = (   0.3809524   0.6086980   0.0000000), wk =   0.0045351
        k(  167) = (   0.3809524   0.6642342   0.0000000), wk =   0.0045351
        k(  168) = (   0.3809524   0.7197703   0.0000000), wk =   0.0045351
        k(  169) = (   0.3809524   0.7753064   0.0000000), wk =   0.0045351
        k(  170) = (   0.3809524  -0.3354163   0.0000000), wk =   0.0045351
        k(  171) = (   0.3809524  -0.2798801   0.0000000), wk =   0.0045351
        k(  172) = (   0.3809524  -0.2243440   0.0000000), wk =   0.0045351
        k(  173) = (   0.3809524  -0.1688079   0.0000000), wk =   0.0045351
        k(  174) = (   0.3809524  -0.1132717   0.0000000), wk =   0.0045351
        k(  175) = (   0.3809524  -0.0577356   0.0000000), wk =   0.0045351
        k(  176) = (   0.3809524  -0.0021995   0.0000000), wk =   0.0045351
        k(  177) = (   0.3809524   0.0533367   0.0000000), wk =   0.0045351
        k(  178) = (   0.3809524   0.1088728   0.0000000), wk =   0.0045351
        k(  179) = (   0.3809524   0.1644090   0.0000000), wk =   0.0045351
        k(  180) = (   0.4285714   0.2474382   0.0000000), wk =   0.0045351
        k(  181) = (   0.4285714   0.3029744   0.0000000), wk =   0.0045351
        k(  182) = (   0.4285714   0.3585105   0.0000000), wk =   0.0045351
        k(  183) = (   0.4285714   0.4140466   0.0000000), wk =   0.0045351
        k(  184) = (   0.4285714   0.4695828   0.0000000), wk =   0.0045351
        k(  185) = (   0.4285714   0.5251189   0.0000000), wk =   0.0045351
        k(  186) = (   0.4285714   0.5806550   0.0000000), wk =   0.0045351
        k(  187) = (   0.4285714   0.6361912   0.0000000), wk =   0.0045351
        k(  188) = (   0.4285714   0.6917273   0.0000000), wk =   0.0045351
        k(  189) = (   0.4285714   0.7472634   0.0000000), wk =   0.0045351
        k(  190) = (   0.4285714   0.8027996   0.0000000), wk =   0.0045351
        k(  191) = (   0.4285714  -0.3079231   0.0000000), wk =   0.0045351
        k(  192) = (   0.4285714  -0.2523870   0.0000000), wk =   0.0045351
        k(  193) = (   0.4285714  -0.1968509   0.0000000), wk =   0.0045351
        k(  194) = (   0.4285714  -0.1413147   0.0000000), wk =   0.0045351
        k(  195) = (   0.4285714  -0.0857786   0.0000000), wk =   0.0045351
        k(  196) = (   0.4285714  -0.0302424   0.0000000), wk =   0.0045351
        k(  197) = (   0.4285714   0.0252937   0.0000000), wk =   0.0045351
        k(  198) = (   0.4285714   0.0808298   0.0000000), wk =   0.0045351
        k(  199) = (   0.4285714   0.1363660   0.0000000), wk =   0.0045351
        k(  200) = (   0.4285714   0.1919021   0.0000000), wk =   0.0045351
        k(  201) = (   0.4761905   0.2749314   0.0000000), wk =   0.0045351
        k(  202) = (   0.4761905   0.3304675   0.0000000), wk =   0.0045351
        k(  203) = (   0.4761905   0.3860036   0.0000000), wk =   0.0045351
        k(  204) = (   0.4761905   0.4415398   0.0000000), wk =   0.0045351
        k(  205) = (   0.4761905   0.4970759   0.0000000), wk =   0.0045351
        k(  206) = (   0.4761905   0.5526120   0.0000000), wk =   0.0045351
        k(  207) = (   0.4761905   0.6081482   0.0000000), wk =   0.0045351
        k(  208) = (   0.4761905   0.6636843   0.0000000), wk =   0.0045351
        k(  209) = (   0.4761905   0.7192204   0.0000000), wk =   0.0045351
        k(  210) = (   0.4761905   0.7747566   0.0000000), wk =   0.0045351
        k(  211) = (   0.4761905   0.8302927   0.0000000), wk =   0.0045351
        k(  212) = (   0.4761905  -0.2804300   0.0000000), wk =   0.0045351
        k(  213) = (   0.4761905  -0.2248939   0.0000000), wk =   0.0045351
        k(  214) = (   0.4761905  -0.1693577   0.0000000), wk =   0.0045351
        k(  215) = (   0.4761905  -0.1138216   0.0000000), wk =   0.0045351
        k(  216) = (   0.4761905  -0.0582854   0.0000000), wk =   0.0045351
        k(  217) = (   0.4761905  -0.0027493   0.0000000), wk =   0.0045351
        k(  218) = (   0.4761905   0.0527868   0.0000000), wk =   0.0045351
        k(  219) = (   0.4761905   0.1083230   0.0000000), wk =   0.0045351
        k(  220) = (   0.4761905   0.1638591   0.0000000), wk =   0.0045351
        k(  221) = (   0.4761905   0.2193952   0.0000000), wk =   0.0045351

                       cryst. coord.
        k(    1) = (   0.0000000   0.0000000   0.0000000), wk =   0.0022676
        k(    2) = (   0.0000000   0.0476190   0.0000000), wk =   0.0045351
        k(    3) = (   0.0000000   0.0952381   0.0000000), wk =   0.0045351
        k(    4) = (   0.0000000   0.1428571   0.0000000), wk =   0.0045351
        k(    5) = (   0.0000000   0.1904762   0.0000000), wk =   0.0045351
        k(    6) = (   0.0000000   0.2380952   0.0000000), wk =   0.0045351
        k(    7) = (   0.0000000   0.2857143   0.0000000), wk =   0.0045351
        k(    8) = (   0.0000000   0.3333333   0.0000000), wk =   0.0045351
        k(    9) = (   0.0000000   0.3809524   0.0000000), wk =   0.0045351
        k(   10) = (   0.0000000   0.4285714   0.0000000), wk =   0.0045351
        k(   11) = (   0.0000000   0.4761905   0.0000000), wk =   0.0045351
        k(   12) = (   0.0476190   0.0000000   0.0000000), wk =   0.0045351
        k(   13) = (   0.0476190   0.0476190   0.0000000), wk =   0.0045351
        k(   14) = (   0.0476190   0.0952381   0.0000000), wk =   0.0045351
        k(   15) = (   0.0476190   0.1428571   0.0000000), wk =   0.0045351
        k(   16) = (   0.0476190   0.1904762   0.0000000), wk =   0.0045351
        k(   17) = (   0.0476190   0.2380952   0.0000000), wk =   0.0045351
        k(   18) = (   0.0476190   0.2857143   0.0000000), wk =   0.0045351
        k(   19) = (   0.0476190   0.3333333   0.0000000), wk =   0.0045351
        k(   20) = (   0.0476190   0.3809524   0.0000000), wk =   0.0045351
        k(   21) = (   0.0476190   0.4285714   0.0000000), wk =   0.0045351
        k(   22) = (   0.0476190   0.4761905   0.0000000), wk =   0.0045351
        k(   23) = (   0.0476190  -0.4761905   0.0000000), wk =   0.0045351
        k(   24) = (   0.0476190  -0.4285714   0.0000000), wk =   0.0045351
        k(   25) = (   0.0476190  -0.3809524   0.0000000), wk =   0.0045351
        k(   26) = (   0.0476190  -0.3333333   0.0000000), wk =   0.0045351
        k(   27) = (   0.0476190  -0.2857143   0.0000000), wk =   0.0045351
        k(   28) = (   0.0476190  -0.2380952   0.0000000), wk =   0.0045351
        k(   29) = (   0.0476190  -0.1904762   0.0000000), wk =   0.0045351
        k(   30) = (   0.0476190  -0.1428571   0.0000000), wk =   0.0045351
        k(   31) = (   0.0476190  -0.0952381   0.0000000), wk =   0.0045351
        k(   32) = (   0.0476190  -0.0476190   0.0000000), wk =   0.0045351
        k(   33) = (   0.0952381   0.0000000   0.0000000), wk =   0.0045351
        k(   34) = (   0.0952381   0.0476190   0.0000000), wk =   0.0045351
        k(   35) = (   0.0952381   0.0952381   0.0000000), wk =   0.0045351
        k(   36) = (   0.0952381   0.1428571   0.0000000), wk =   0.0045351
        k(   37) = (   0.0952381   0.1904762   0.0000000), wk =   0.0045351
        k(   38) = (   0.0952381   0.2380952   0.0000000), wk =   0.0045351
        k(   39) = (   0.0952381   0.2857143   0.0000000), wk =   0.0045351
        k(   40) = (   0.0952381   0.3333333   0.0000000), wk =   0.0045351
        k(   41) = (   0.0952381   0.3809524   0.0000000), wk =   0.0045351
        k(   42) = (   0.0952381   0.4285714   0.0000000), wk =   0.0045351
        k(   43) = (   0.0952381   0.4761905   0.0000000), wk =   0.0045351
        k(   44) = (   0.0952381  -0.4761905   0.0000000), wk =   0.0045351
        k(   45) = (   0.0952381  -0.4285714   0.0000000), wk =   0.0045351
        k(   46) = (   0.0952381  -0.3809524   0.0000000), wk =   0.0045351
        k(   47) = (   0.0952381  -0.3333333   0.0000000), wk =   0.0045351
        k(   48) = (   0.0952381  -0.2857143   0.0000000), wk =   0.0045351
        k(   49) = (   0.0952381  -0.2380952   0.0000000), wk =   0.0045351
        k(   50) = (   0.0952381  -0.1904762   0.0000000), wk =   0.0045351
        k(   51) = (   0.0952381  -0.1428571   0.0000000), wk =   0.0045351
        k(   52) = (   0.0952381  -0.0952381   0.0000000), wk =   0.0045351
        k(   53) = (   0.0952381  -0.0476190   0.0000000), wk =   0.0045351
        k(   54) = (   0.1428571  -0.0000000   0.0000000), wk =   0.0045351
        k(   55) = (   0.1428571   0.0476190   0.0000000), wk =   0.0045351
        k(   56) = (   0.1428571   0.0952381   0.0000000), wk =   0.0045351
        k(   57) = (   0.1428571   0.1428571   0.0000000), wk =   0.0045351
        k(   58) = (   0.1428571   0.1904762   0.0000000), wk =   0.0045351
        k(   59) = (   0.1428571   0.2380952   0.0000000), wk =   0.0045351
        k(   60) = (   0.1428571   0.2857143   0.0000000), wk =   0.0045351
        k(   61) = (   0.1428571   0.3333333   0.0000000), wk =   0.0045351
        k(   62) = (   0.1428571   0.3809524   0.0000000), wk =   0.0045351
        k(   63) = (   0.1428571   0.4285714   0.0000000), wk =   0.0045351
        k(   64) = (   0.1428571   0.4761905   0.0000000), wk =   0.0045351
        k(   65) = (   0.1428571  -0.4761905   0.0000000), wk =   0.0045351
        k(   66) = (   0.1428571  -0.4285714   0.0000000), wk =   0.0045351
        k(   67) = (   0.1428571  -0.3809524   0.0000000), wk =   0.0045351
        k(   68) = (   0.1428571  -0.3333333   0.0000000), wk =   0.0045351
        k(   69) = (   0.1428571  -0.2857143   0.0000000), wk =   0.0045351
        k(   70) = (   0.1428571  -0.2380952   0.0000000), wk =   0.0045351
        k(   71) = (   0.1428571  -0.1904762   0.0000000), wk =   0.0045351
        k(   72) = (   0.1428571  -0.1428571   0.0000000), wk =   0.0045351
        k(   73) = (   0.1428571  -0.0952381   0.0000000), wk =   0.0045351
        k(   74) = (   0.1428571  -0.0476190   0.0000000), wk =   0.0045351
        k(   75) = (   0.1904762   0.0000000   0.0000000), wk =   0.0045351
        k(   76) = (   0.1904762   0.0476190   0.0000000), wk =   0.0045351
        k(   77) = (   0.1904762   0.0952381   0.0000000), wk =   0.0045351
        k(   78) = (   0.1904762   0.1428571   0.0000000), wk =   0.0045351
        k(   79) = (   0.1904762   0.1904762   0.0000000), wk =   0.0045351
        k(   80) = (   0.1904762   0.2380952   0.0000000), wk =   0.0045351
        k(   81) = (   0.1904762   0.2857143   0.0000000), wk =   0.0045351
        k(   82) = (   0.1904762   0.3333333   0.0000000), wk =   0.0045351
        k(   83) = (   0.1904762   0.3809524   0.0000000), wk =   0.0045351
        k(   84) = (   0.1904762   0.4285714   0.0000000), wk =   0.0045351
        k(   85) = (   0.1904762   0.4761905   0.0000000), wk =   0.0045351
        k(   86) = (   0.1904762  -0.4761905   0.0000000), wk =   0.0045351
        k(   87) = (   0.1904762  -0.4285714   0.0000000), wk =   0.0045351
        k(   88) = (   0.1904762  -0.3809524   0.0000000), wk =   0.0045351
        k(   89) = (   0.1904762  -0.3333333   0.0000000), wk =   0.0045351
        k(   90) = (   0.1904762  -0.2857143   0.0000000), wk =   0.0045351
        k(   91) = (   0.1904762  -0.2380952   0.0000000), wk =   0.0045351
        k(   92) = (   0.1904762  -0.1904762   0.0000000), wk =   0.0045351
        k(   93) = (   0.1904762  -0.1428571   0.0000000), wk =   0.0045351
        k(   94) = (   0.1904762  -0.0952381   0.0000000), wk =   0.0045351
        k(   95) = (   0.1904762  -0.0476190   0.0000000), wk =   0.0045351
        k(   96) = (   0.2380952   0.0000000   0.0000000), wk =   0.0045351
        k(   97) = (   0.2380952   0.0476190   0.0000000), wk =   0.0045351
        k(   98) = (   0.2380952   0.0952381   0.0000000), wk =   0.0045351
        k(   99) = (   0.2380952   0.1428571   0.0000000), wk =   0.0045351
        k(  100) = (   0.2380952   0.1904762   0.0000000), wk =   0.0045351
        k(  101) = (   0.2380952   0.2380952   0.0000000), wk =   0.0045351
        k(  102) = (   0.2380952   0.2857143   0.0000000), wk =   0.0045351
        k(  103) = (   0.2380952   0.3333333   0.0000000), wk =   0.0045351
        k(  104) = (   0.2380952   0.3809524   0.0000000), wk =   0.0045351
        k(  105) = (   0.2380952   0.4285714   0.0000000), wk =   0.0045351
        k(  106) = (   0.2380952   0.4761905   0.0000000), wk =   0.0045351
        k(  107) = (   0.2380952  -0.4761905   0.0000000), wk =   0.0045351
        k(  108) = (   0.2380952  -0.4285714   0.0000000), wk =   0.0045351
        k(  109) = (   0.2380952  -0.3809524   0.0000000), wk =   0.0045351
        k(  110) = (   0.2380952  -0.3333333   0.0000000), wk =   0.0045351
        k(  111) = (   0.2380952  -0.2857143   0.0000000), wk =   0.0045351
        k(  112) = (   0.2380952  -0.2380952   0.0000000), wk =   0.0045351
        k(  113) = (   0.2380952  -0.1904762   0.0000000), wk =   0.0045351
        k(  114) = (   0.2380952  -0.1428571   0.0000000), wk =   0.0045351
        k(  115) = (   0.2380952  -0.0952381   0.0000000), wk =   0.0045351
        k(  116) = (   0.2380952  -0.0476190   0.0000000), wk =   0.0045351
        k(  117) = (   0.2857143  -0.0000000   0.0000000), wk =   0.0045351
        k(  118) = (   0.2857143   0.0476190   0.0000000), wk =   0.0045351
        k(  119) = (   0.2857143   0.0952381   0.0000000), wk =   0.0045351
        k(  120) = (   0.2857143   0.1428571   0.0000000), wk =   0.0045351
        k(  121) = (   0.2857143   0.1904762   0.0000000), wk =   0.0045351
        k(  122) = (   0.2857143   0.2380952   0.0000000), wk =   0.0045351
        k(  123) = (   0.2857143   0.2857143   0.0000000), wk =   0.0045351
        k(  124) = (   0.2857143   0.3333333   0.0000000), wk =   0.0045351
        k(  125) = (   0.2857143   0.3809524   0.0000000), wk =   0.0045351
        k(  126) = (   0.2857143   0.4285714   0.0000000), wk =   0.0045351
        k(  127) = (   0.2857143   0.4761905   0.0000000), wk =   0.0045351
        k(  128) = (   0.2857143  -0.4761905   0.0000000), wk =   0.0045351
        k(  129) = (   0.2857143  -0.4285714   0.0000000), wk =   0.0045351
        k(  130) = (   0.2857143  -0.3809524   0.0000000), wk =   0.0045351
        k(  131) = (   0.2857143  -0.3333333   0.0000000), wk =   0.0045351
        k(  132) = (   0.2857143  -0.2857143   0.0000000), wk =   0.0045351
        k(  133) = (   0.2857143  -0.2380952   0.0000000), wk =   0.0045351
        k(  134) = (   0.2857143  -0.1904762   0.0000000), wk =   0.0045351
        k(  135) = (   0.2857143  -0.1428571   0.0000000), wk =   0.0045351
        k(  136) = (   0.2857143  -0.0952381   0.0000000), wk =   0.0045351
        k(  137) = (   0.2857143  -0.0476190   0.0000000), wk =   0.0045351
        k(  138) = (   0.3333333   0.0000000   0.0000000), wk =   0.0045351
        k(  139) = (   0.3333333   0.0476190   0.0000000), wk =   0.0045351
        k(  140) = (   0.3333333   0.0952381   0.0000000), wk =   0.0045351
        k(  141) = (   0.3333333   0.1428571   0.0000000), wk =   0.0045351
        k(  142) = (   0.3333333   0.1904762   0.0000000), wk =   0.0045351
        k(  143) = (   0.3333333   0.2380952   0.0000000), wk =   0.0045351
        k(  144) = (   0.3333333   0.2857143   0.0000000), wk =   0.0045351
        k(  145) = (   0.3333333   0.3333333   0.0000000), wk =   0.0045351
        k(  146) = (   0.3333333   0.3809524   0.0000000), wk =   0.0045351
        k(  147) = (   0.3333333   0.4285714   0.0000000), wk =   0.0045351
        k(  148) = (   0.3333333   0.4761905   0.0000000), wk =   0.0045351
        k(  149) = (   0.3333333  -0.4761905   0.0000000), wk =   0.0045351
        k(  150) = (   0.3333333  -0.4285714   0.0000000), wk =   0.0045351
        k(  151) = (   0.3333333  -0.3809524   0.0000000), wk =   0.0045351
        k(  152) = (   0.3333333  -0.3333333   0.0000000), wk =   0.0045351
        k(  153) = (   0.3333333  -0.2857143   0.0000000), wk =   0.0045351
        k(  154) = (   0.3333333  -0.2380952   0.0000000), wk =   0.0045351
        k(  155) = (   0.3333333  -0.1904762   0.0000000), wk =   0.0045351
        k(  156) = (   0.3333333  -0.1428571   0.0000000), wk =   0.0045351
        k(  157) = (   0.3333333  -0.0952381   0.0000000), wk =   0.0045351
        k(  158) = (   0.3333333  -0.0476190   0.0000000), wk =   0.0045351
        k(  159) = (   0.3809524   0.0000000   0.0000000), wk =   0.0045351
        k(  160) = (   0.3809524   0.0476190   0.0000000), wk =   0.0045351
        k(  161) = (   0.3809524   0.0952381   0.0000000), wk =   0.0045351
        k(  162) = (   0.3809524   0.1428571   0.0000000), wk =   0.0045351
        k(  163) = (   0.3809524   0.1904762   0.0000000), wk =   0.0045351
        k(  164) = (   0.3809524   0.2380952   0.0000000), wk =   0.0045351
        k(  165) = (   0.3809524   0.2857143   0.0000000), wk =   0.0045351
        k(  166) = (   0.3809524   0.3333333   0.0000000), wk =   0.0045351
        k(  167) = (   0.3809524   0.3809524   0.0000000), wk =   0.0045351
        k(  168) = (   0.3809524   0.4285714   0.0000000), wk =   0.0045351
        k(  169) = (   0.3809524   0.4761905   0.0000000), wk =   0.0045351
        k(  170) = (   0.3809524  -0.4761905   0.0000000), wk =   0.0045351
        k(  171) = (   0.3809524  -0.4285714   0.0000000), wk =   0.0045351
        k(  172) = (   0.3809524  -0.3809524   0.0000000), wk =   0.0045351
        k(  173) = (   0.3809524  -0.3333333   0.0000000), wk =   0.0045351
        k(  174) = (   0.3809524  -0.2857143   0.0000000), wk =   0.0045351
        k(  175) = (   0.3809524  -0.2380952   0.0000000), wk =   0.0045351
        k(  176) = (   0.3809524  -0.1904762   0.0000000), wk =   0.0045351
        k(  177) = (   0.3809524  -0.1428571   0.0000000), wk =   0.0045351
        k(  178) = (   0.3809524  -0.0952381   0.0000000), wk =   0.0045351
        k(  179) = (   0.3809524  -0.0476190   0.0000000), wk =   0.0045351
        k(  180) = (   0.4285714  -0.0000000   0.0000000), wk =   0.0045351
        k(  181) = (   0.4285714   0.0476190   0.0000000), wk =   0.0045351
        k(  182) = (   0.4285714   0.0952381   0.0000000), wk =   0.0045351
        k(  183) = (   0.4285714   0.1428571   0.0000000), wk =   0.0045351
        k(  184) = (   0.4285714   0.1904762   0.0000000), wk =   0.0045351
        k(  185) = (   0.4285714   0.2380952   0.0000000), wk =   0.0045351
        k(  186) = (   0.4285714   0.2857143   0.0000000), wk =   0.0045351
        k(  187) = (   0.4285714   0.3333333   0.0000000), wk =   0.0045351
        k(  188) = (   0.4285714   0.3809524   0.0000000), wk =   0.0045351
        k(  189) = (   0.4285714   0.4285714   0.0000000), wk =   0.0045351
        k(  190) = (   0.4285714   0.4761905   0.0000000), wk =   0.0045351
        k(  191) = (   0.4285714  -0.4761905   0.0000000), wk =   0.0045351
        k(  192) = (   0.4285714  -0.4285714   0.0000000), wk =   0.0045351
        k(  193) = (   0.4285714  -0.3809524   0.0000000), wk =   0.0045351
        k(  194) = (   0.4285714  -0.3333333   0.0000000), wk =   0.0045351
        k(  195) = (   0.4285714  -0.2857143   0.0000000), wk =   0.0045351
        k(  196) = (   0.4285714  -0.2380952   0.0000000), wk =   0.0045351
        k(  197) = (   0.4285714  -0.1904762   0.0000000), wk =   0.0045351
        k(  198) = (   0.4285714  -0.1428571   0.0000000), wk =   0.0045351
        k(  199) = (   0.4285714  -0.0952381   0.0000000), wk =   0.0045351
        k(  200) = (   0.4285714  -0.0476190   0.0000000), wk =   0.0045351
        k(  201) = (   0.4761905   0.0000000   0.0000000), wk =   0.0045351
        k(  202) = (   0.4761905   0.0476190   0.0000000), wk =   0.0045351
        k(  203) = (   0.4761905   0.0952381   0.0000000), wk =   0.0045351
        k(  204) = (   0.4761905   0.1428571   0.0000000), wk =   0.0045351
        k(  205) = (   0.4761905   0.1904762   0.0000000), wk =   0.0045351
        k(  206) = (   0.4761905   0.2380952   0.0000000), wk =   0.0045351
        k(  207) = (   0.4761905   0.2857143   0.0000000), wk =   0.0045351
        k(  208) = (   0.4761905   0.3333333   0.0000000), wk =   0.0045351
        k(  209) = (   0.4761905   0.3809524   0.0000000), wk =   0.0045351
        k(  210) = (   0.4761905   0.4285714   0.0000000), wk =   0.0045351
        k(  211) = (   0.4761905   0.4761905   0.0000000), wk =   0.0045351
        k(  212) = (   0.4761905  -0.4761905   0.0000000), wk =   0.0045351
        k(  213) = (   0.4761905  -0.4285714   0.0000000), wk =   0.0045351
        k(  214) = (   0.4761905  -0.3809524   0.0000000), wk =   0.0045351
        k(  215) = (   0.4761905  -0.3333333   0.0000000), wk =   0.0045351
        k(  216) = (   0.4761905  -0.2857143   0.0000000), wk =   0.0045351
        k(  217) = (   0.4761905  -0.2380952   0.0000000), wk =   0.0045351
        k(  218) = (   0.4761905  -0.1904762   0.0000000), wk =   0.0045351
        k(  219) = (   0.4761905  -0.1428571   0.0000000), wk =   0.0045351
        k(  220) = (   0.4761905  -0.0952381   0.0000000), wk =   0.0045351
        k(  221) = (   0.4761905  -0.0476190   0.0000000), wk =   0.0045351

     Dense  grid:   760395 G-vectors     FFT dimensions: (  72,  72, 360)

     Smooth grid:   192371 G-vectors     FFT dimensions: (  45,  45, 225)

     Dynamical RAM for                 wfc:       2.38 MB

     Dynamical RAM for     wfc (w. buffer):     528.97 MB

     Dynamical RAM for           str. fact:       0.97 MB

     Dynamical RAM for           local pot:       0.00 MB

     Dynamical RAM for          nlocal pot:       2.60 MB

     Dynamical RAM for                qrad:      11.12 MB

     Dynamical RAM for          rho,v,vnew:      12.92 MB

     Dynamical RAM for               rhoin:       4.31 MB

     Dynamical RAM for            rho*nmix:      30.93 MB

     Dynamical RAM for           G-vectors:       1.87 MB

     Dynamical RAM for          h,s,v(r/c):       1.11 MB

     Dynamical RAM for          <psi|beta>:       0.40 MB

     Dynamical RAM for                 psi:       4.77 MB

     Dynamical RAM for                hpsi:       4.77 MB

     Dynamical RAM for      wfcinit/wfcrot:       3.71 MB

     Estimated static dynamical RAM per process >     568.94 MB

     Estimated max dynamical RAM per process >     610.92 MB

     Estimated total dynamical RAM >      14.32 GB

     Initial potential from superposition of free atoms

     starting charge      77.7613, renormalised to      78.0000

     negative rho (up, down):  2.659E-04 0.000E+00
     Starting wfcs are random

     total cpu time spent up to now is       31.4 secs

     Self-consistent Calculation

     iteration #  1     ecut=    70.00 Ry     beta= 0.70
     Davidson diagonalization with overlap

---- Real-time Memory Report at c_bands before calling an iterative solver
           756 MiB given to the printing process from OS
             0 MiB allocation reported by mallinfo(arena+hblkhd)
         85871 MiB available memory on the node where the printing process lives
------------------
     ethr =  1.00E-02,  avg # of iterations = 12.5

     Threshold (ethr) on eigenvalues was too large:
     Diagonalizing with lowered threshold

     Davidson diagonalization with overlap

---- Real-time Memory Report at c_bands before calling an iterative solver
           774 MiB given to the printing process from OS
             0 MiB allocation reported by mallinfo(arena+hblkhd)
         85725 MiB available memory on the node where the printing process lives
------------------
     ethr =  1.15E-04,  avg # of iterations =  6.0

     negative rho (up, down):  3.313E-06 0.000E+00

     total cpu time spent up to now is      514.7 secs

     total energy              =    -806.64231670 Ry
     estimated scf accuracy    <       0.07757705 Ry

     iteration #  2     ecut=    70.00 Ry     beta= 0.70
     Davidson diagonalization with overlap

---- Real-time Memory Report at c_bands before calling an iterative solver
           779 MiB given to the printing process from OS
             0 MiB allocation reported by mallinfo(arena+hblkhd)
         85707 MiB available memory on the node where the printing process lives
------------------
     ethr =  9.95E-05,  avg # of iterations =  5.0

     negative rho (up, down):  2.153E-05 0.000E+00

     total cpu time spent up to now is      642.9 secs

     total energy              =    -806.60488050 Ry
     estimated scf accuracy    <       0.36599971 Ry

     iteration #  3     ecut=    70.00 Ry     beta= 0.70
     Davidson diagonalization with overlap

---- Real-time Memory Report at c_bands before calling an iterative solver
           782 MiB given to the printing process from OS
             0 MiB allocation reported by mallinfo(arena+hblkhd)
         85682 MiB available memory on the node where the printing process lives
------------------
     ethr =  9.95E-05,  avg # of iterations =  5.2

     negative rho (up, down):  1.881E-05 0.000E+00

     total cpu time spent up to now is      761.2 secs

     total energy              =    -806.65046740 Ry
     estimated scf accuracy    <       0.23267398 Ry

     iteration #  4     ecut=    70.00 Ry     beta= 0.70
     Davidson diagonalization with overlap

---- Real-time Memory Report at c_bands before calling an iterative solver
           783 MiB given to the printing process from OS
             0 MiB allocation reported by mallinfo(arena+hblkhd)
         85666 MiB available memory on the node where the printing process lives
------------------
     ethr =  9.95E-05,  avg # of iterations =  3.4

     negative rho (up, down):  2.012E-06 0.000E+00

     total cpu time spent up to now is      863.9 secs

     total energy              =    -806.67508349 Ry
     estimated scf accuracy    <       0.00258084 Ry

     iteration #  5     ecut=    70.00 Ry     beta= 0.70
     Davidson diagonalization with overlap

---- Real-time Memory Report at c_bands before calling an iterative solver
           784 MiB given to the printing process from OS
             0 MiB allocation reported by mallinfo(arena+hblkhd)
         85648 MiB available memory on the node where the printing process lives
------------------
     ethr =  3.31E-06,  avg # of iterations =  5.4

     negative rho (up, down):  1.842E-06 0.000E+00

     total cpu time spent up to now is      980.8 secs

     total energy              =    -806.67569294 Ry
     estimated scf accuracy    <       0.00492655 Ry

     iteration #  6     ecut=    70.00 Ry     beta= 0.70
     Davidson diagonalization with overlap

---- Real-time Memory Report at c_bands before calling an iterative solver
           785 MiB given to the printing process from OS
             0 MiB allocation reported by mallinfo(arena+hblkhd)
         85637 MiB available memory on the node where the printing process lives
------------------
     ethr =  3.31E-06,  avg # of iterations =  5.6

     negative rho (up, down):  2.376E-08 0.000E+00

     total cpu time spent up to now is     1083.2 secs

     total energy              =    -806.67558616 Ry
     estimated scf accuracy    <       0.00604436 Ry

     iteration #  7     ecut=    70.00 Ry     beta= 0.70
     Davidson diagonalization with overlap

---- Real-time Memory Report at c_bands before calling an iterative solver
           786 MiB given to the printing process from OS
             0 MiB allocation reported by mallinfo(arena+hblkhd)
         85623 MiB available memory on the node where the printing process lives
------------------
     ethr =  3.31E-06,  avg # of iterations =  4.5

     total cpu time spent up to now is     1182.1 secs

     total energy              =    -806.67594737 Ry
     estimated scf accuracy    <       0.00015895 Ry

     iteration #  8     ecut=    70.00 Ry     beta= 0.70
     Davidson diagonalization with overlap

---- Real-time Memory Report at c_bands before calling an iterative solver
           787 MiB given to the printing process from OS
             0 MiB allocation reported by mallinfo(arena+hblkhd)
         85612 MiB available memory on the node where the printing process lives
------------------
     ethr =  2.04E-07,  avg # of iterations =  6.0

     total cpu time spent up to now is     1291.2 secs

     total energy              =    -806.67597576 Ry
     estimated scf accuracy    <       0.00010092 Ry

     iteration #  9     ecut=    70.00 Ry     beta= 0.70
     Davidson diagonalization with overlap

---- Real-time Memory Report at c_bands before calling an iterative solver
           788 MiB given to the printing process from OS
             0 MiB allocation reported by mallinfo(arena+hblkhd)
         85597 MiB available memory on the node where the printing process lives
------------------
     ethr =  1.29E-07,  avg # of iterations =  2.0

     total cpu time spent up to now is     1377.4 secs

     total energy              =    -806.67597387 Ry
     estimated scf accuracy    <       0.00003630 Ry

     iteration # 10     ecut=    70.00 Ry     beta= 0.70
     Davidson diagonalization with overlap

---- Real-time Memory Report at c_bands before calling an iterative solver
           789 MiB given to the printing process from OS
             0 MiB allocation reported by mallinfo(arena+hblkhd)
         85584 MiB available memory on the node where the printing process lives
------------------
     ethr =  4.65E-08,  avg # of iterations =  5.0

     total cpu time spent up to now is     1478.6 secs

     total energy              =    -806.67597848 Ry
     estimated scf accuracy    <       0.00000196 Ry

     iteration # 11     ecut=    70.00 Ry     beta= 0.70
     Davidson diagonalization with overlap

---- Real-time Memory Report at c_bands before calling an iterative solver
           791 MiB given to the printing process from OS
             0 MiB allocation reported by mallinfo(arena+hblkhd)
         85571 MiB available memory on the node where the printing process lives
------------------
     ethr =  2.51E-09,  avg # of iterations =  4.3

     total cpu time spent up to now is     1575.2 secs

     total energy              =    -806.67597827 Ry
     estimated scf accuracy    <       0.00000260 Ry

     iteration # 12     ecut=    70.00 Ry     beta= 0.70
     Davidson diagonalization with overlap

---- Real-time Memory Report at c_bands before calling an iterative solver
           791 MiB given to the printing process from OS
             0 MiB allocation reported by mallinfo(arena+hblkhd)
         85561 MiB available memory on the node where the printing process lives
------------------
     ethr =  2.51E-09,  avg # of iterations =  4.4

     total cpu time spent up to now is     1671.0 secs

     End of self-consistent calculation

          k = 0.0000 0.0000 0.0000 ( 23927 PWs)   bands (ev):

   -35.4319 -35.4319 -35.4316 -35.4316 -35.4058 -35.4058 -35.4055 -35.4055
   -35.3184 -35.3184 -35.2829 -35.2829 -33.9722 -33.9722 -33.9718 -33.9718
   -33.9500 -33.9500 -33.9496 -33.9496 -33.9383 -33.9383 -33.9379 -33.9379
   -33.8558 -33.8558 -33.8404 -33.8404 -33.8098 -33.8098 -28.0554 -28.0554
   -28.0551 -28.0551 -28.0466 -28.0466 -28.0464 -28.0464 -26.8163 -26.8163
   -26.8161 -26.8161 -26.8063 -26.8063 -26.8061 -26.8061 -26.8051 -26.8051
   -26.8049 -26.8049 -10.5863 -10.5863 -10.0608 -10.0608  -8.9757  -8.9757
    -6.2164  -6.2164  -4.8001  -4.8001  -0.4436  -0.4436   0.0778   0.0778
     0.3213   0.3213   0.5921   0.5921   0.6813   0.6813   0.7914   0.7914
     1.0060   1.0060   1.3921   1.3921   1.5318   1.5318

     occupation numbers 
     1.0000   1.0000   1.0000   1.0000   1.0000   1.0000   1.0000   1.0000
     1.0000   1.0000   1.0000   1.0000   1.0000   1.0000   1.0000   1.0000
     1.0000   1.0000   1.0000   1.0000   1.0000   1.0000   1.0000   1.0000
     1.0000   1.0000   1.0000   1.0000   1.0000   1.0000   1.0000   1.0000
     1.0000   1.0000   1.0000   1.0000   1.0000   1.0000   1.0000   1.0000
     1.0000   1.0000   1.0000   1.0000   1.0000   1.0000   1.0000   1.0000
     1.0000   1.0000   1.0000   1.0000   1.0000   1.0000   1.0000   1.0000
     1.0000   1.0000   1.0000   1.0000   1.0000   1.0000   1.0000   1.0000
     1.0000   1.0000   1.0000   1.0000   1.0000   1.0000   1.0000   1.0000
     1.0000   1.0000   1.0000   1.0000   1.0000   1.0000

          k = 0.0000 0.0555 0.0000 ( 23921 PWs)   bands (ev):

   -35.4319 -35.4319 -35.4316 -35.4316 -35.4059 -35.4058 -35.4055 -35.4055
   -35.3184 -35.3184 -35.2829 -35.2829 -33.9721 -33.9721 -33.9718 -33.9718
   -33.9500 -33.9500 -33.9496 -33.9496 -33.9383 -33.9382 -33.9379 -33.9379
   -33.8558 -33.8558 -33.8404 -33.8404 -33.8098 -33.8098 -28.0554 -28.0554
   -28.0551 -28.0551 -28.0466 -28.0466 -28.0465 -28.0464 -26.8163 -26.8163
   -26.8160 -26.8160 -26.8063 -26.8063 -26.8062 -26.8061 -26.8051 -26.8050
   -26.8049 -26.8048 -10.5663 -10.5663 -10.0425 -10.0425  -8.9641  -8.9641
    -6.2179  -6.2179  -4.8318  -4.8317  -0.4712  -0.4711  -0.1084  -0.1078
     0.2942   0.2954   0.4009   0.4027   0.5183   0.5197   0.8205   0.8237
     1.0933   1.0946   1.3109   1.3119   1.6847   1.6857

     occupation numbers 
     1.0000   1.0000   1.0000   1.0000   1.0000   1.0000   1.0000   1.0000
     1.0000   1.0000   1.0000   1.0000   1.0000   1.0000   1.0000   1.0000
     1.0000   1.0000   1.0000   1.0000   1.0000   1.0000   1.0000   1.0000
     1.0000   1.0000   1.0000   1.0000   1.0000   1.0000   1.0000   1.0000
     1.0000   1.0000   1.0000   1.0000   1.0000   1.0000   1.0000   1.0000
     1.0000   1.0000   1.0000   1.0000   1.0000   1.0000   1.0000   1.0000
     1.0000   1.0000   1.0000   1.0000   1.0000   1.0000   1.0000   1.0000
     1.0000   1.0000   1.0000   1.0000   1.0000   1.0000   1.0000   1.0000
     1.0000   1.0000   1.0000   1.0000   1.0000   1.0000   1.0000   1.0000
     1.0000   1.0000   1.0000   1.0000   1.0000   1.0000

          k = 0.0000 0.1111 0.0000 ( 23917 PWs)   bands (ev):

   -35.4319 -35.4319 -35.4315 -35.4315 -35.4058 -35.4058 -35.4055 -35.4055
   -35.3184 -35.3184 -35.2829 -35.2829 -33.9721 -33.9721 -33.9717 -33.9717
   -33.9500 -33.9500 -33.9496 -33.9496 -33.9382 -33.9382 -33.9379 -33.9379
   -33.8558 -33.8558 -33.8404 -33.8404 -33.8097 -33.8097 -28.0553 -28.0553
   -28.0551 -28.0551 -28.0467 -28.0466 -28.0465 -28.0464 -26.8162 -26.8161
   -26.8159 -26.8159 -26.8064 -26.8063 -26.8062 -26.8062 -26.8051 -26.8050
   -26.8049 -26.8048 -10.5068 -10.5068  -9.9877  -9.9877  -8.9301  -8.9301
    -6.2244  -6.2243  -4.9269  -4.9269  -0.6106  -0.6104  -0.4409  -0.4404
     0.0030   0.0050   0.1787   0.1794   0.3692   0.3701   0.6296   0.6305
     1.0764   1.0776   1.4985   1.4991   1.7879   1.7890

     occupation numbers 
     1.0000   1.0000   1.0000   1.0000   1.0000   1.0000   1.0000   1.0000
     1.0000   1.0000   1.0000   1.0000   1.0000   1.0000   1.0000   1.0000
     1.0000   1.0000   1.0000   1.0000   1.0000   1.0000   1.0000   1.0000
     1.0000   1.0000   1.0000   1.0000   1.0000   1.0000   1.0000   1.0000
     1.0000   1.0000   1.0000   1.0000   1.0000   1.0000   1.0000   1.0000
     1.0000   1.0000   1.0000   1.0000   1.0000   1.0000   1.0000   1.0000
     1.0000   1.0000   1.0000   1.0000   1.0000   1.0000   1.0000   1.0000
     1.0000   1.0000   1.0000   1.0000   1.0000   1.0000   1.0000   1.0000
     1.0000   1.0000   1.0000   1.0000   1.0000   1.0000   1.0000   1.0000
     1.0000   1.0000   1.0000   1.0000   1.0000   1.0000

          k = 0.0000 0.1666 0.0000 ( 23954 PWs)   bands (ev):

   -35.4318 -35.4318 -35.4315 -35.4315 -35.4058 -35.4058 -35.4055 -35.4054
   -35.3183 -35.3183 -35.2828 -35.2828 -33.9720 -33.9720 -33.9717 -33.9716
   -33.9500 -33.9500 -33.9496 -33.9496 -33.9382 -33.9382 -33.9379 -33.9378
   -33.8558 -33.8558 -33.8404 -33.8404 -33.8097 -33.8097 -28.0552 -28.0552
   -28.0550 -28.0550 -28.0467 -28.0466 -28.0465 -28.0464 -26.8159 -26.8159
   -26.8157 -26.8157 -26.8065 -26.8064 -26.8063 -26.8063 -26.8051 -26.8050
   -26.8048 -26.8047 -10.4084 -10.4084  -9.8977  -9.8977  -8.8762  -8.8762
    -6.2421  -6.2421  -5.0851  -5.0850  -1.0228  -1.0223  -0.6245  -0.6241
    -0.3555  -0.3539  -0.0226  -0.0221   0.1332   0.1337   0.4569   0.4580
     1.0758   1.0770   1.5096   1.5106   1.7443   1.7455

     occupation numbers 
     1.0000   1.0000   1.0000   1.0000   1.0000   1.0000   1.0000   1.0000
     1.0000   1.0000   1.0000   1.0000   1.0000   1.0000   1.0000   1.0000
     1.0000   1.0000   1.0000   1.0000   1.0000   1.0000   1.0000   1.0000
     1.0000   1.0000   1.0000   1.0000   1.0000   1.0000   1.0000   1.0000
     1.0000   1.0000   1.0000   1.0000   1.0000   1.0000   1.0000   1.0000
     1.0000   1.0000   1.0000   1.0000   1.0000   1.0000   1.0000   1.0000
     1.0000   1.0000   1.0000   1.0000   1.0000   1.0000   1.0000   1.0000
     1.0000   1.0000   1.0000   1.0000   1.0000   1.0000   1.0000   1.0000
     1.0000   1.0000   1.0000   1.0000   1.0000   1.0000   1.0000   1.0000
     1.0000   1.0000   1.0000   1.0000   1.0000   1.0000

          k = 0.0000 0.2221 0.0000 ( 23954 PWs)   bands (ev):

   -35.4318 -35.4318 -35.4314 -35.4314 -35.4058 -35.4058 -35.4055 -35.4054
   -35.3183 -35.3183 -35.2828 -35.2828 -33.9719 -33.9719 -33.9715 -33.9715
   -33.9500 -33.9500 -33.9497 -33.9496 -33.9382 -33.9381 -33.9378 -33.9378
   -33.8557 -33.8557 -33.8404 -33.8404 -33.8095 -33.8095 -28.0551 -28.0551
   -28.0549 -28.0549 -28.0467 -28.0466 -28.0465 -28.0464 -26.8157 -26.8157
   -26.8155 -26.8155 -26.8066 -26.8065 -26.8065 -26.8064 -26.8050 -26.8049
   -26.8048 -26.8046 -10.2725 -10.2725  -9.7747  -9.7747  -8.8069  -8.8068
    -6.2814  -6.2814  -5.3009  -5.3009  -1.4820  -1.4815  -0.7800  -0.7792
    -0.7246  -0.7237  -0.2629  -0.2625  -0.0579  -0.0572   0.3704   0.3717
     0.9632   0.9651   1.2454   1.2470   1.8534   1.8543

     occupation numbers 
     1.0000   1.0000   1.0000   1.0000   1.0000   1.0000   1.0000   1.0000
     1.0000   1.0000   1.0000   1.0000   1.0000   1.0000   1.0000   1.0000
     1.0000   1.0000   1.0000   1.0000   1.0000   1.0000   1.0000   1.0000
     1.0000   1.0000   1.0000   1.0000   1.0000   1.0000   1.0000   1.0000
     1.0000   1.0000   1.0000   1.0000   1.0000   1.0000   1.0000   1.0000
     1.0000   1.0000   1.0000   1.0000   1.0000   1.0000   1.0000   1.0000
     1.0000   1.0000   1.0000   1.0000   1.0000   1.0000   1.0000   1.0000
     1.0000   1.0000   1.0000   1.0000   1.0000   1.0000   1.0000   1.0000
     1.0000   1.0000   1.0000   1.0000   1.0000   1.0000   1.0000   1.0000
     1.0000   1.0000   1.0000   1.0000   1.0000   1.0000

          k = 0.0000 0.2777 0.0000 ( 23991 PWs)   bands (ev):

   -35.4317 -35.4317 -35.4313 -35.4313 -35.4058 -35.4058 -35.4054 -35.4054
   -35.3183 -35.3183 -35.2827 -35.2827 -33.9718 -33.9718 -33.9714 -33.9714
   -33.9501 -33.9500 -33.9497 -33.9496 -33.9381 -33.9380 -33.9378 -33.9377
   -33.8557 -33.8557 -33.8405 -33.8405 -33.8094 -33.8094 -28.0549 -28.0549
   -28.0547 -28.0547 -28.0468 -28.0467 -28.0466 -28.0464 -26.8154 -26.8154
   -26.8152 -26.8152 -26.8067 -26.8067 -26.8066 -26.8066 -26.8050 -26.8049
   -26.8047 -26.8046 -10.1011 -10.1011  -9.6224  -9.6224  -8.7291  -8.7291
    -6.3555  -6.3554  -5.5609  -5.5609  -1.9010  -1.9005  -1.0857  -1.0847
    -0.9132  -0.9123  -0.4880  -0.4876  -0.2214  -0.2208   0.3290   0.3303
     0.6780   0.6791   1.1393   1.1402   1.8163   1.8171

     occupation numbers 
     1.0000   1.0000   1.0000   1.0000   1.0000   1.0000   1.0000   1.0000
     1.0000   1.0000   1.0000   1.0000   1.0000   1.0000   1.0000   1.0000
     1.0000   1.0000   1.0000   1.0000   1.0000   1.0000   1.0000   1.0000
     1.0000   1.0000   1.0000   1.0000   1.0000   1.0000   1.0000   1.0000
     1.0000   1.0000   1.0000   1.0000   1.0000   1.0000   1.0000   1.0000
     1.0000   1.0000   1.0000   1.0000   1.0000   1.0000   1.0000   1.0000
     1.0000   1.0000   1.0000   1.0000   1.0000   1.0000   1.0000   1.0000
     1.0000   1.0000   1.0000   1.0000   1.0000   1.0000   1.0000   1.0000
     1.0000   1.0000   1.0000   1.0000   1.0000   1.0000   1.0000   1.0000
     1.0000   1.0000   1.0000   1.0000   1.0000   1.0000

          k = 0.0000 0.3332 0.0000 ( 24036 PWs)   bands (ev):

   -35.4316 -35.4316 -35.4313 -35.4312 -35.4058 -35.4057 -35.4054 -35.4054
   -35.3183 -35.3183 -35.2826 -35.2826 -33.9716 -33.9716 -33.9713 -33.9713
   -33.9501 -33.9500 -33.9497 -33.9497 -33.9380 -33.9380 -33.9377 -33.9376
   -33.8556 -33.8556 -33.8405 -33.8405 -33.8093 -33.8093 -28.0548 -28.0548
   -28.0546 -28.0546 -28.0468 -28.0467 -28.0466 -28.0465 -26.8152 -26.8152
   -26.8150 -26.8150 -26.8069 -26.8068 -26.8067 -26.8067 -26.8049 -26.8048
   -26.8046 -26.8045  -9.8977  -9.8977  -9.4466  -9.4466  -8.6535  -8.6534
    -6.4774  -6.4773  -5.8413  -5.8412  -2.2567  -2.2563  -1.3886  -1.3879
    -1.0372  -1.0360  -0.6664  -0.6658  -0.3831  -0.3827   0.2427   0.2435
     0.4567   0.4570   1.0795   1.0800   1.6630   1.6638

     occupation numbers 
     1.0000   1.0000   1.0000   1.0000   1.0000   1.0000   1.0000   1.0000
     1.0000   1.0000   1.0000   1.0000   1.0000   1.0000   1.0000   1.0000
     1.0000   1.0000   1.0000   1.0000   1.0000   1.0000   1.0000   1.0000
     1.0000   1.0000   1.0000   1.0000   1.0000   1.0000   1.0000   1.0000
     1.0000   1.0000   1.0000   1.0000   1.0000   1.0000   1.0000   1.0000
     1.0000   1.0000   1.0000   1.0000   1.0000   1.0000   1.0000   1.0000
     1.0000   1.0000   1.0000   1.0000   1.0000   1.0000   1.0000   1.0000
     1.0000   1.0000   1.0000   1.0000   1.0000   1.0000   1.0000   1.0000
     1.0000   1.0000   1.0000   1.0000   1.0000   1.0000   1.0000   1.0000
     1.0000   1.0000   1.0000   1.0000   1.0000   1.0000

          k = 0.0000 0.3888 0.0000 ( 24053 PWs)   bands (ev):

   -35.4315 -35.4315 -35.4312 -35.4312 -35.4058 -35.4057 -35.4054 -35.4054
   -35.3183 -35.3183 -35.2825 -35.2825 -33.9715 -33.9715 -33.9712 -33.9712
   -33.9501 -33.9500 -33.9497 -33.9497 -33.9380 -33.9379 -33.9376 -33.9376
   -33.8556 -33.8556 -33.8405 -33.8405 -33.8092 -33.8092 -28.0547 -28.0546
   -28.0545 -28.0545 -28.0468 -28.0468 -28.0466 -28.0465 -26.8150 -26.8149
   -26.8148 -26.8148 -26.8070 -26.8070 -26.8069 -26.8068 -26.8047 -26.8047
   -26.8044 -26.8044  -9.6674  -9.6674  -9.2566  -9.2566  -8.5950  -8.5949
    -6.6516  -6.6516  -6.1117  -6.1117  -2.5429  -2.5426  -1.6106  -1.6100
    -1.1586  -1.1574  -0.8030  -0.8023  -0.5348  -0.5343   0.0541   0.0548
     0.4049   0.4057   1.0346   1.0352   1.4772   1.4778

     occupation numbers 
     1.0000   1.0000   1.0000   1.0000   1.0000   1.0000   1.0000   1.0000
     1.0000   1.0000   1.0000   1.0000   1.0000   1.0000   1.0000   1.0000
     1.0000   1.0000   1.0000   1.0000   1.0000   1.0000   1.0000   1.0000
     1.0000   1.0000   1.0000   1.0000   1.0000   1.0000   1.0000   1.0000
     1.0000   1.0000   1.0000   1.0000   1.0000   1.0000   1.0000   1.0000
     1.0000   1.0000   1.0000   1.0000   1.0000   1.0000   1.0000   1.0000
     1.0000   1.0000   1.0000   1.0000   1.0000   1.0000   1.0000   1.0000
     1.0000   1.0000   1.0000   1.0000   1.0000   1.0000   1.0000   1.0000
     1.0000   1.0000   1.0000   1.0000   1.0000   1.0000   1.0000   1.0000
     1.0000   1.0000   1.0000   1.0000   1.0000   1.0000

          k = 0.0000 0.4443 0.0000 ( 24058 PWs)   bands (ev):

   -35.4315 -35.4315 -35.4311 -35.4311 -35.4057 -35.4057 -35.4054 -35.4054
   -35.3183 -35.3183 -35.2825 -35.2825 -33.9714 -33.9714 -33.9711 -33.9711
   -33.9501 -33.9500 -33.9497 -33.9497 -33.9379 -33.9379 -33.9376 -33.9376
   -33.8556 -33.8556 -33.8405 -33.8405 -33.8091 -33.8091 -28.0546 -28.0545
   -28.0544 -28.0544 -28.0469 -28.0468 -28.0466 -28.0465 -26.8148 -26.8148
   -26.8146 -26.8146 -26.8071 -26.8071 -26.8070 -26.8069 -26.8046 -26.8046
   -26.8043 -26.8043  -9.4186  -9.4186  -9.0679  -9.0679  -8.5743  -8.5742
    -6.8592  -6.8592  -6.3449  -6.3449  -2.7612  -2.7609  -1.7336  -1.7331
    -1.2864  -1.2853  -0.9260  -0.9253  -0.6519  -0.6514  -0.0812  -0.0805
     0.3743   0.3752   1.0054   1.0060   1.3189   1.3193

     occupation numbers 
     1.0000   1.0000   1.0000   1.0000   1.0000   1.0000   1.0000   1.0000
     1.0000   1.0000   1.0000   1.0000   1.0000   1.0000   1.0000   1.0000
     1.0000   1.0000   1.0000   1.0000   1.0000   1.0000   1.0000   1.0000
     1.0000   1.0000   1.0000   1.0000   1.0000   1.0000   1.0000   1.0000
     1.0000   1.0000   1.0000   1.0000   1.0000   1.0000   1.0000   1.0000
     1.0000   1.0000   1.0000   1.0000   1.0000   1.0000   1.0000   1.0000
     1.0000   1.0000   1.0000   1.0000   1.0000   1.0000   1.0000   1.0000
     1.0000   1.0000   1.0000   1.0000   1.0000   1.0000   1.0000   1.0000
     1.0000   1.0000   1.0000   1.0000   1.0000   1.0000   1.0000   1.0000
     1.0000   1.0000   1.0000   1.0000   1.0000   1.0000

          k = 0.0000 0.4998 0.0000 ( 24049 PWs)   bands (ev):

   -35.4314 -35.4314 -35.4311 -35.4311 -35.4057 -35.4057 -35.4054 -35.4053
   -35.3183 -35.3183 -35.2824 -35.2824 -33.9714 -33.9713 -33.9710 -33.9710
   -33.9501 -33.9501 -33.9497 -33.9497 -33.9379 -33.9378 -33.9376 -33.9375
   -33.8555 -33.8555 -33.8405 -33.8405 -33.8090 -33.8090 -28.0545 -28.0545
   -28.0543 -28.0543 -28.0469 -28.0468 -28.0466 -28.0466 -26.8147 -26.8146
   -26.8145 -26.8145 -26.8072 -26.8072 -26.8070 -26.8070 -26.8046 -26.8045
   -26.8042 -26.8042  -9.1648  -9.1647  -8.9060  -8.9060  -8.6154  -8.6153
    -7.0515  -7.0514  -6.5207  -6.5207  -2.9114  -2.9113  -1.7566  -1.7561
    -1.4243  -1.4234  -1.0378  -1.0374  -0.7192  -0.7189  -0.1363  -0.1358
     0.3286   0.3293   0.9849   0.9854   1.2209   1.2211

     occupation numbers 
     1.0000   1.0000   1.0000   1.0000   1.0000   1.0000   1.0000   1.0000
     1.0000   1.0000   1.0000   1.0000   1.0000   1.0000   1.0000   1.0000
     1.0000   1.0000   1.0000   1.0000   1.0000   1.0000   1.0000   1.0000
     1.0000   1.0000   1.0000   1.0000   1.0000   1.0000   1.0000   1.0000
     1.0000   1.0000   1.0000   1.0000   1.0000   1.0000   1.0000   1.0000
     1.0000   1.0000   1.0000   1.0000   1.0000   1.0000   1.0000   1.0000
     1.0000   1.0000   1.0000   1.0000   1.0000   1.0000   1.0000   1.0000
     1.0000   1.0000   1.0000   1.0000   1.0000   1.0000   1.0000   1.0000
     1.0000   1.0000   1.0000   1.0000   1.0000   1.0000   1.0000   1.0000
     1.0000   1.0000   1.0000   1.0000   1.0000   1.0000

          k = 0.0000 0.5554 0.0000 ( 24057 PWs)   bands (ev):

   -35.4314 -35.4314 -35.4311 -35.4311 -35.4057 -35.4057 -35.4054 -35.4053
   -35.3183 -35.3183 -35.2824 -35.2824 -33.9713 -33.9713 -33.9710 -33.9710
   -33.9501 -33.9501 -33.9497 -33.9497 -33.9378 -33.9378 -33.9375 -33.9375
   -33.8555 -33.8555 -33.8405 -33.8405 -33.8090 -33.8090 -28.0544 -28.0544
   -28.0543 -28.0543 -28.0469 -28.0468 -28.0466 -28.0466 -26.8146 -26.8146
   -26.8144 -26.8144 -26.8072 -26.8072 -26.8070 -26.8070 -26.8045 -26.8045
   -26.8042 -26.8042  -8.9274  -8.9274  -8.8080  -8.8080  -8.7348  -8.7347
    -7.1688  -7.1688  -6.6178  -6.6178  -2.9890  -2.9890  -1.6980  -1.6975
    -1.5633  -1.5626  -1.1025  -1.1024  -0.7486  -0.7485  -0.1444  -0.1442
     0.2891   0.2894   0.9694   0.9696   1.1831   1.1831

     occupation numbers 
     1.0000   1.0000   1.0000   1.0000   1.0000   1.0000   1.0000   1.0000
     1.0000   1.0000   1.0000   1.0000   1.0000   1.0000   1.0000   1.0000
     1.0000   1.0000   1.0000   1.0000   1.0000   1.0000   1.0000   1.0000
     1.0000   1.0000   1.0000   1.0000   1.0000   1.0000   1.0000   1.0000
     1.0000   1.0000   1.0000   1.0000   1.0000   1.0000   1.0000   1.0000
     1.0000   1.0000   1.0000   1.0000   1.0000   1.0000   1.0000   1.0000
     1.0000   1.0000   1.0000   1.0000   1.0000   1.0000   1.0000   1.0000
     1.0000   1.0000   1.0000   1.0000   1.0000   1.0000   1.0000   1.0000
     1.0000   1.0000   1.0000   1.0000   1.0000   1.0000   1.0000   1.0000
     1.0000   1.0000   1.0000   1.0000   1.0000   1.0000

          k = 0.0476 0.0275 0.0000 ( 23917 PWs)   bands (ev):

   -35.4319 -35.4319 -35.4316 -35.4316 -35.4059 -35.4058 -35.4055 -35.4055
   -35.3184 -35.3184 -35.2829 -35.2829 -33.9721 -33.9721 -33.9718 -33.9718
   -33.9500 -33.9500 -33.9496 -33.9496 -33.9383 -33.9382 -33.9379 -33.9379
   -33.8558 -33.8558 -33.8404 -33.8404 -33.8098 -33.8098 -28.0554 -28.0554
   -28.0551 -28.0551 -28.0466 -28.0466 -28.0464 -28.0464 -26.8163 -26.8163
   -26.8160 -26.8160 -26.8063 -26.8063 -26.8062 -26.8061 -26.8051 -26.8050
   -26.8049 -26.8049 -10.5667 -10.5667 -10.0429 -10.0429  -8.9644  -8.9644
    -6.2184  -6.2184  -4.8330  -4.8330  -0.4737  -0.4736  -0.1277  -0.1272
     0.3007   0.3020   0.3856   0.3892   0.5447   0.5468   0.8333   0.8383
     1.0960   1.0986   1.3142   1.3165   1.6806   1.6820

     occupation numbers 
     1.0000   1.0000   1.0000   1.0000   1.0000   1.0000   1.0000   1.0000
     1.0000   1.0000   1.0000   1.0000   1.0000   1.0000   1.0000   1.0000
     1.0000   1.0000   1.0000   1.0000   1.0000   1.0000   1.0000   1.0000
     1.0000   1.0000   1.0000   1.0000   1.0000   1.0000   1.0000   1.0000
     1.0000   1.0000   1.0000   1.0000   1.0000   1.0000   1.0000   1.0000
     1.0000   1.0000   1.0000   1.0000   1.0000   1.0000   1.0000   1.0000
     1.0000   1.0000   1.0000   1.0000   1.0000   1.0000   1.0000   1.0000
     1.0000   1.0000   1.0000   1.0000   1.0000   1.0000   1.0000   1.0000
     1.0000   1.0000   1.0000   1.0000   1.0000   1.0000   1.0000   1.0000
     1.0000   1.0000   1.0000   1.0000   1.0000   1.0000

          k = 0.0476 0.0830 0.0000 ( 23941 PWs)   bands (ev):

   -35.4319 -35.4319 -35.4315 -35.4315 -35.4058 -35.4058 -35.4055 -35.4055
   -35.3184 -35.3184 -35.2829 -35.2829 -33.9721 -33.9721 -33.9718 -33.9718
   -33.9500 -33.9500 -33.9496 -33.9496 -33.9382 -33.9382 -33.9379 -33.9379
   -33.8558 -33.8558 -33.8404 -33.8404 -33.8098 -33.8098 -28.0553 -28.0553
   -28.0551 -28.0551 -28.0466 -28.0466 -28.0465 -28.0464 -26.8162 -26.8162
   -26.8159 -26.8159 -26.8064 -26.8063 -26.8062 -26.8062 -26.8051 -26.8050
   -26.8049 -26.8048 -10.5272 -10.5272 -10.0065 -10.0065  -8.9418  -8.9418
    -6.2226  -6.2226  -4.8970  -4.8970  -0.5500  -0.5497  -0.3689  -0.3682
     0.0371   0.0394   0.2734   0.2750   0.4412   0.4428   0.7177   0.7198
     1.0769   1.0776   1.4249   1.4258   1.7910   1.7920

     occupation numbers 
     1.0000   1.0000   1.0000   1.0000   1.0000   1.0000   1.0000   1.0000
     1.0000   1.0000   1.0000   1.0000   1.0000   1.0000   1.0000   1.0000
     1.0000   1.0000   1.0000   1.0000   1.0000   1.0000   1.0000   1.0000
     1.0000   1.0000   1.0000   1.0000   1.0000   1.0000   1.0000   1.0000
     1.0000   1.0000   1.0000   1.0000   1.0000   1.0000   1.0000   1.0000
     1.0000   1.0000   1.0000   1.0000   1.0000   1.0000   1.0000   1.0000
     1.0000   1.0000   1.0000   1.0000   1.0000   1.0000   1.0000   1.0000
     1.0000   1.0000   1.0000   1.0000   1.0000   1.0000   1.0000   1.0000
     1.0000   1.0000   1.0000   1.0000   1.0000   1.0000   1.0000   1.0000
     1.0000   1.0000   1.0000   1.0000   1.0000   1.0000

          k = 0.0476 0.1386 0.0000 ( 23981 PWs)   bands (ev):

   -35.4319 -35.4318 -35.4315 -35.4315 -35.4058 -35.4058 -35.4055 -35.4055
   -35.3183 -35.3183 -35.2828 -35.2828 -33.9720 -33.9720 -33.9717 -33.9717
   -33.9500 -33.9500 -33.9496 -33.9496 -33.9382 -33.9382 -33.9379 -33.9378
   -33.8558 -33.8558 -33.8404 -33.8404 -33.8097 -33.8097 -28.0553 -28.0552
   -28.0550 -28.0550 -28.0467 -28.0466 -28.0465 -28.0464 -26.8160 -26.8160
   -26.8158 -26.8158 -26.8065 -26.8064 -26.8063 -26.8062 -26.8051 -26.8050
   -26.8048 -26.8048 -10.4484 -10.4484  -9.9343  -9.9343  -8.8980  -8.8980
    -6.2349  -6.2349  -5.0243  -5.0242  -0.8362  -0.8356  -0.5797  -0.5794
    -0.3146  -0.3131   0.0372   0.0387   0.3202   0.3214   0.5443   0.5453
     0.9998   1.0008   1.6162   1.6175   1.7402   1.7418

     occupation numbers 
     1.0000   1.0000   1.0000   1.0000   1.0000   1.0000   1.0000   1.0000
     1.0000   1.0000   1.0000   1.0000   1.0000   1.0000   1.0000   1.0000
     1.0000   1.0000   1.0000   1.0000   1.0000   1.0000   1.0000   1.0000
     1.0000   1.0000   1.0000   1.0000   1.0000   1.0000   1.0000   1.0000
     1.0000   1.0000   1.0000   1.0000   1.0000   1.0000   1.0000   1.0000
     1.0000   1.0000   1.0000   1.0000   1.0000   1.0000   1.0000   1.0000
     1.0000   1.0000   1.0000   1.0000   1.0000   1.0000   1.0000   1.0000
     1.0000   1.0000   1.0000   1.0000   1.0000   1.0000   1.0000   1.0000
     1.0000   1.0000   1.0000   1.0000   1.0000   1.0000   1.0000   1.0000
     1.0000   1.0000   1.0000   1.0000   1.0000   1.0000

          k = 0.0476 0.1941 0.0000 ( 23957 PWs)   bands (ev):

   -35.4318 -35.4318 -35.4314 -35.4314 -35.4058 -35.4058 -35.4055 -35.4054
   -35.3183 -35.3183 -35.2828 -35.2828 -33.9719 -33.9719 -33.9716 -33.9716
   -33.9500 -33.9500 -33.9496 -33.9496 -33.9382 -33.9381 -33.9378 -33.9378
   -33.8557 -33.8557 -33.8404 -33.8404 -33.8096 -33.8096 -28.0551 -28.0551
   -28.0549 -28.0549 -28.0467 -28.0466 -28.0465 -28.0464 -26.8158 -26.8158
   -26.8156 -26.8156 -26.8066 -26.8065 -26.8064 -26.8063 -26.8050 -26.8049
   -26.8048 -26.8047 -10.3314 -10.3314  -9.8280  -9.8280  -8.8364  -8.8364
    -6.2631  -6.2631  -5.2121  -5.2121  -1.2649  -1.2643  -0.7566  -0.7565
    -0.6425  -0.6418  -0.1861  -0.1846   0.1132   0.1148   0.3724   0.3737
     0.9749   0.9759   1.4289   1.4298   1.8255   1.8263

     occupation numbers 
     1.0000   1.0000   1.0000   1.0000   1.0000   1.0000   1.0000   1.0000
     1.0000   1.0000   1.0000   1.0000   1.0000   1.0000   1.0000   1.0000
     1.0000   1.0000   1.0000   1.0000   1.0000   1.0000   1.0000   1.0000
     1.0000   1.0000   1.0000   1.0000   1.0000   1.0000   1.0000   1.0000
     1.0000   1.0000   1.0000   1.0000   1.0000   1.0000   1.0000   1.0000
     1.0000   1.0000   1.0000   1.0000   1.0000   1.0000   1.0000   1.0000
     1.0000   1.0000   1.0000   1.0000   1.0000   1.0000   1.0000   1.0000
     1.0000   1.0000   1.0000   1.0000   1.0000   1.0000   1.0000   1.0000
     1.0000   1.0000   1.0000   1.0000   1.0000   1.0000   1.0000   1.0000
     1.0000   1.0000   1.0000   1.0000   1.0000   1.0000

          k = 0.0476 0.2496 0.0000 ( 23980 PWs)   bands (ev):

   -35.4317 -35.4317 -35.4314 -35.4314 -35.4058 -35.4058 -35.4055 -35.4054
   -35.3183 -35.3183 -35.2827 -35.2827 -33.9718 -33.9718 -33.9715 -33.9715
   -33.9500 -33.9500 -33.9497 -33.9496 -33.9381 -33.9381 -33.9378 -33.9377
   -33.8557 -33.8557 -33.8405 -33.8405 -33.8095 -33.8095 -28.0550 -28.0550
   -28.0548 -28.0548 -28.0468 -28.0467 -28.0465 -28.0464 -26.8156 -26.8155
   -26.8154 -26.8153 -26.8067 -26.8066 -26.8066 -26.8065 -26.8050 -26.8049
   -26.8047 -26.8046 -10.1778 -10.1778  -9.6903  -9.6903  -8.7625  -8.7625
    -6.3190  -6.3189  -5.4516  -5.4516  -1.6929  -1.6924  -1.0373  -1.0368
    -0.8356  -0.8347  -0.4142  -0.4124  -0.1277  -0.1264   0.2877   0.2885
     0.8852   0.8857   1.1869   1.1875   1.8485   1.8493

     occupation numbers 
     1.0000   1.0000   1.0000   1.0000   1.0000   1.0000   1.0000   1.0000
     1.0000   1.0000   1.0000   1.0000   1.0000   1.0000   1.0000   1.0000
     1.0000   1.0000   1.0000   1.0000   1.0000   1.0000   1.0000   1.0000
     1.0000   1.0000   1.0000   1.0000   1.0000   1.0000   1.0000   1.0000
     1.0000   1.0000   1.0000   1.0000   1.0000   1.0000   1.0000   1.0000
     1.0000   1.0000   1.0000   1.0000   1.0000   1.0000   1.0000   1.0000
     1.0000   1.0000   1.0000   1.0000   1.0000   1.0000   1.0000   1.0000
     1.0000   1.0000   1.0000   1.0000   1.0000   1.0000   1.0000   1.0000
     1.0000   1.0000   1.0000   1.0000   1.0000   1.0000   1.0000   1.0000
     1.0000   1.0000   1.0000   1.0000   1.0000   1.0000

          k = 0.0476 0.3052 0.0000 ( 24017 PWs)   bands (ev):

   -35.4317 -35.4316 -35.4313 -35.4313 -35.4058 -35.4057 -35.4054 -35.4054
   -35.3183 -35.3183 -35.2826 -35.2826 -33.9717 -33.9717 -33.9713 -33.9713
   -33.9501 -33.9500 -33.9497 -33.9496 -33.9381 -33.9380 -33.9377 -33.9377
   -33.8557 -33.8557 -33.8405 -33.8405 -33.8093 -33.8093 -28.0549 -28.0548
   -28.0547 -28.0546 -28.0468 -28.0467 -28.0466 -28.0465 -26.8153 -26.8153
   -26.8151 -26.8151 -26.8069 -26.8068 -26.8067 -26.8066 -26.8049 -26.8048
   -26.8046 -26.8045  -9.9904  -9.9904  -9.5259  -9.5259  -8.6850  -8.6849
    -6.4155  -6.4155  -5.7244  -5.7244  -2.0759  -2.0755  -1.3187  -1.3182
    -0.9757  -0.9744  -0.6456  -0.6437  -0.3167  -0.3157   0.2174   0.2179
     0.6872   0.6882   1.0676   1.0681   1.7591   1.7599

     occupation numbers 
     1.0000   1.0000   1.0000   1.0000   1.0000   1.0000   1.0000   1.0000
     1.0000   1.0000   1.0000   1.0000   1.0000   1.0000   1.0000   1.0000
     1.0000   1.0000   1.0000   1.0000   1.0000   1.0000   1.0000   1.0000
     1.0000   1.0000   1.0000   1.0000   1.0000   1.0000   1.0000   1.0000
     1.0000   1.0000   1.0000   1.0000   1.0000   1.0000   1.0000   1.0000
     1.0000   1.0000   1.0000   1.0000   1.0000   1.0000   1.0000   1.0000
     1.0000   1.0000   1.0000   1.0000   1.0000   1.0000   1.0000   1.0000
     1.0000   1.0000   1.0000   1.0000   1.0000   1.0000   1.0000   1.0000
     1.0000   1.0000   1.0000   1.0000   1.0000   1.0000   1.0000   1.0000
     1.0000   1.0000   1.0000   1.0000   1.0000   1.0000

          k = 0.0476 0.3607 0.0000 ( 24051 PWs)   bands (ev):

   -35.4316 -35.4316 -35.4312 -35.4312 -35.4058 -35.4057 -35.4054 -35.4054
   -35.3183 -35.3183 -35.2826 -35.2826 -33.9716 -33.9716 -33.9712 -33.9712
   -33.9501 -33.9500 -33.9497 -33.9496 -33.9380 -33.9379 -33.9377 -33.9376
   -33.8556 -33.8556 -33.8405 -33.8405 -33.8092 -33.8092 -28.0548 -28.0547
   -28.0546 -28.0545 -28.0468 -28.0467 -28.0466 -28.0465 -26.8151 -26.8150
   -26.8149 -26.8148 -26.8070 -26.8069 -26.8068 -26.8067 -26.8048 -26.8047
   -26.8045 -26.8044  -9.7733  -9.7732  -9.3422  -9.3422  -8.6160  -8.6160
    -6.5629  -6.5628  -6.0033  -6.0033  -2.3960  -2.3957  -1.5423  -1.5418
    -1.1176  -1.1162  -0.8390  -0.8373  -0.4515  -0.4509   0.0963   0.0975
     0.5194   0.5213   1.0172   1.0178   1.6036   1.6044

     occupation numbers 
     1.0000   1.0000   1.0000   1.0000   1.0000   1.0000   1.0000   1.0000
     1.0000   1.0000   1.0000   1.0000   1.0000   1.0000   1.0000   1.0000
     1.0000   1.0000   1.0000   1.0000   1.0000   1.0000   1.0000   1.0000
     1.0000   1.0000   1.0000   1.0000   1.0000   1.0000   1.0000   1.0000
     1.0000   1.0000   1.0000   1.0000   1.0000   1.0000   1.0000   1.0000
     1.0000   1.0000   1.0000   1.0000   1.0000   1.0000   1.0000   1.0000
     1.0000   1.0000   1.0000   1.0000   1.0000   1.0000   1.0000   1.0000
     1.0000   1.0000   1.0000   1.0000   1.0000   1.0000   1.0000   1.0000
     1.0000   1.0000   1.0000   1.0000   1.0000   1.0000   1.0000   1.0000
     1.0000   1.0000   1.0000   1.0000   1.0000   1.0000

          k = 0.0476 0.4162 0.0000 ( 24066 PWs)   bands (ev):

   -35.4315 -35.4315 -35.4312 -35.4311 -35.4058 -35.4057 -35.4054 -35.4054
   -35.3183 -35.3183 -35.2825 -35.2825 -33.9715 -33.9714 -33.9711 -33.9711
   -33.9501 -33.9500 -33.9497 -33.9496 -33.9379 -33.9379 -33.9376 -33.9376
   -33.8556 -33.8556 -33.8405 -33.8405 -33.8091 -33.8091 -28.0547 -28.0545
   -28.0545 -28.0544 -28.0469 -28.0468 -28.0466 -28.0465 -26.8149 -26.8148
   -26.8147 -26.8146 -26.8071 -26.8070 -26.8069 -26.8068 -26.8047 -26.8046
   -26.8044 -26.8043  -9.5330  -9.5330  -9.1510  -9.1510  -8.5733  -8.5732
    -6.7566  -6.7566  -6.2577  -6.2577  -2.6484  -2.6481  -1.6891  -1.6888
    -1.2664  -1.2653  -0.9839  -0.9827  -0.5498  -0.5491  -0.0601  -0.0587
     0.4356   0.4377   0.9929   0.9934   1.4376   1.4382

     occupation numbers 
     1.0000   1.0000   1.0000   1.0000   1.0000   1.0000   1.0000   1.0000
     1.0000   1.0000   1.0000   1.0000   1.0000   1.0000   1.0000   1.0000
     1.0000   1.0000   1.0000   1.0000   1.0000   1.0000   1.0000   1.0000
     1.0000   1.0000   1.0000   1.0000   1.0000   1.0000   1.0000   1.0000
     1.0000   1.0000   1.0000   1.0000   1.0000   1.0000   1.0000   1.0000
     1.0000   1.0000   1.0000   1.0000   1.0000   1.0000   1.0000   1.0000
     1.0000   1.0000   1.0000   1.0000   1.0000   1.0000   1.0000   1.0000
     1.0000   1.0000   1.0000   1.0000   1.0000   1.0000   1.0000   1.0000
     1.0000   1.0000   1.0000   1.0000   1.0000   1.0000   1.0000   1.0000
     1.0000   1.0000   1.0000   1.0000   1.0000   1.0000

          k = 0.0476 0.4718 0.0000 ( 24041 PWs)   bands (ev):

   -35.4315 -35.4314 -35.4311 -35.4311 -35.4057 -35.4057 -35.4054 -35.4054
   -35.3183 -35.3183 -35.2825 -35.2825 -33.9714 -33.9714 -33.9710 -33.9710
   -33.9501 -33.9500 -33.9497 -33.9496 -33.9379 -33.9379 -33.9376 -33.9375
   -33.8555 -33.8555 -33.8405 -33.8405 -33.8090 -33.8090 -28.0546 -28.0545
   -28.0544 -28.0543 -28.0469 -28.0468 -28.0466 -28.0466 -26.8148 -26.8146
   -26.8146 -26.8145 -26.8072 -26.8071 -26.8070 -26.8069 -26.8046 -26.8046
   -26.8043 -26.8042  -9.2804  -9.2803  -8.9723  -8.9723  -8.5794  -8.5793
[...]
   -26.8042 -26.8041  -8.8385  -8.8383  -8.8196  -8.8195  -8.8000  -8.7999
    -7.1963  -7.1963  -6.6539  -6.6539  -2.9838  -2.9838  -1.6945  -1.6918
    -1.6074  -1.6044  -1.1737  -1.1733  -0.6952  -0.6940  -0.2056  -0.2042
     0.3642   0.3654   0.9804   0.9807   1.2459   1.2461

     occupation numbers 
     1.0000   1.0000   1.0000   1.0000   1.0000   1.0000   1.0000   1.0000
     1.0000   1.0000   1.0000   1.0000   1.0000   1.0000   1.0000   1.0000
     1.0000   1.0000   1.0000   1.0000   1.0000   1.0000   1.0000   1.0000
     1.0000   1.0000   1.0000   1.0000   1.0000   1.0000   1.0000   1.0000
     1.0000   1.0000   1.0000   1.0000   1.0000   1.0000   1.0000   1.0000
     1.0000   1.0000   1.0000   1.0000   1.0000   1.0000   1.0000   1.0000
     1.0000   1.0000   1.0000   1.0000   1.0000   1.0000   1.0000   1.0000
     1.0000   1.0000   1.0000   1.0000   1.0000   1.0000   1.0000   1.0000
     1.0000   1.0000   1.0000   1.0000   1.0000   1.0000   1.0000   1.0000
     1.0000   1.0000   1.0000   1.0000   1.0000   1.0000

          k = 0.4762-0.2804 0.0000 ( 24069 PWs)   bands (ev):

   -35.4314 -35.4314 -35.4311 -35.4311 -35.4057 -35.4057 -35.4054 -35.4054
   -35.3183 -35.3183 -35.2824 -35.2824 -33.9713 -33.9713 -33.9710 -33.9710
   -33.9500 -33.9500 -33.9497 -33.9497 -33.9379 -33.9379 -33.9375 -33.9375
   -33.8555 -33.8555 -33.8405 -33.8405 -33.8090 -33.8090 -28.0545 -28.0545
   -28.0543 -28.0543 -28.0468 -28.0468 -28.0466 -28.0466 -26.8147 -26.8147
   -26.8145 -26.8145 -26.8073 -26.8073 -26.8071 -26.8071 -26.8045 -26.8045
   -26.8042 -26.8041  -8.9419  -8.9419  -8.8247  -8.8247  -8.7488  -8.7488
    -7.1786  -7.1785  -6.6197  -6.6197  -2.9876  -2.9876  -1.6969  -1.6963
    -1.5624  -1.5616  -1.0732  -1.0731  -0.7114  -0.7113  -0.1305  -0.1303
     0.3085   0.3088   0.9965   0.9967   1.2244   1.2245

     occupation numbers 
     1.0000   1.0000   1.0000   1.0000   1.0000   1.0000   1.0000   1.0000
     1.0000   1.0000   1.0000   1.0000   1.0000   1.0000   1.0000   1.0000
     1.0000   1.0000   1.0000   1.0000   1.0000   1.0000   1.0000   1.0000
     1.0000   1.0000   1.0000   1.0000   1.0000   1.0000   1.0000   1.0000
     1.0000   1.0000   1.0000   1.0000   1.0000   1.0000   1.0000   1.0000
     1.0000   1.0000   1.0000   1.0000   1.0000   1.0000   1.0000   1.0000
     1.0000   1.0000   1.0000   1.0000   1.0000   1.0000   1.0000   1.0000
     1.0000   1.0000   1.0000   1.0000   1.0000   1.0000   1.0000   1.0000
     1.0000   1.0000   1.0000   1.0000   1.0000   1.0000   1.0000   1.0000
     1.0000   1.0000   1.0000   1.0000   1.0000   1.0000

          k = 0.4762-0.2249 0.0000 ( 24057 PWs)   bands (ev):

   -35.4314 -35.4314 -35.4311 -35.4311 -35.4057 -35.4057 -35.4054 -35.4054
   -35.3183 -35.3183 -35.2825 -35.2825 -33.9713 -33.9713 -33.9710 -33.9710
   -33.9501 -33.9500 -33.9497 -33.9496 -33.9379 -33.9379 -33.9375 -33.9375
   -33.8555 -33.8555 -33.8405 -33.8405 -33.8090 -33.8090 -28.0546 -28.0545
   -28.0544 -28.0543 -28.0469 -28.0468 -28.0466 -28.0466 -26.8147 -26.8146
   -26.8146 -26.8144 -26.8073 -26.8072 -26.8071 -26.8070 -26.8045 -26.8045
   -26.8042 -26.8042  -9.0470  -9.0469  -8.8535  -8.8535  -8.6697  -8.6697
    -7.1346  -7.1346  -6.6049  -6.6048  -2.9449  -2.9448  -1.7431  -1.7425
    -1.5170  -1.5165  -1.1512  -1.1505  -0.6689  -0.6678  -0.1995  -0.1981
     0.3768   0.3784   0.9905   0.9909   1.2668   1.2672

     occupation numbers 
     1.0000   1.0000   1.0000   1.0000   1.0000   1.0000   1.0000   1.0000
     1.0000   1.0000   1.0000   1.0000   1.0000   1.0000   1.0000   1.0000
     1.0000   1.0000   1.0000   1.0000   1.0000   1.0000   1.0000   1.0000
     1.0000   1.0000   1.0000   1.0000   1.0000   1.0000   1.0000   1.0000
     1.0000   1.0000   1.0000   1.0000   1.0000   1.0000   1.0000   1.0000
     1.0000   1.0000   1.0000   1.0000   1.0000   1.0000   1.0000   1.0000
     1.0000   1.0000   1.0000   1.0000   1.0000   1.0000   1.0000   1.0000
     1.0000   1.0000   1.0000   1.0000   1.0000   1.0000   1.0000   1.0000
     1.0000   1.0000   1.0000   1.0000   1.0000   1.0000   1.0000   1.0000
     1.0000   1.0000   1.0000   1.0000   1.0000   1.0000

          k = 0.4762-0.1694 0.0000 ( 24036 PWs)   bands (ev):

   -35.4315 -35.4314 -35.4311 -35.4311 -35.4057 -35.4057 -35.4054 -35.4054
   -35.3183 -35.3183 -35.2825 -35.2825 -33.9714 -33.9713 -33.9710 -33.9710
   -33.9501 -33.9500 -33.9497 -33.9496 -33.9379 -33.9379 -33.9376 -33.9375
   -33.8555 -33.8555 -33.8405 -33.8405 -33.8090 -33.8090 -28.0546 -28.0545
   -28.0543 -28.0542 -28.0469 -28.0468 -28.0466 -28.0465 -26.8148 -26.8146
   -26.8145 -26.8144 -26.8074 -26.8073 -26.8071 -26.8069 -26.8045 -26.8045
   -26.8042 -26.8042  -9.1356  -9.1356  -8.8839  -8.8839  -8.5990  -8.5989
    -7.0694  -7.0693  -6.6107  -6.6107  -2.8595  -2.8593  -1.7702  -1.7691
    -1.5776  -1.5761  -1.2780  -1.2773  -0.6407  -0.6406  -0.3005  -0.2993
     0.4569   0.4590   0.9616   0.9621   1.4251   1.4257

     occupation numbers 
     1.0000   1.0000   1.0000   1.0000   1.0000   1.0000   1.0000   1.0000
     1.0000   1.0000   1.0000   1.0000   1.0000   1.0000   1.0000   1.0000
     1.0000   1.0000   1.0000   1.0000   1.0000   1.0000   1.0000   1.0000
     1.0000   1.0000   1.0000   1.0000   1.0000   1.0000   1.0000   1.0000
     1.0000   1.0000   1.0000   1.0000   1.0000   1.0000   1.0000   1.0000
     1.0000   1.0000   1.0000   1.0000   1.0000   1.0000   1.0000   1.0000
     1.0000   1.0000   1.0000   1.0000   1.0000   1.0000   1.0000   1.0000
     1.0000   1.0000   1.0000   1.0000   1.0000   1.0000   1.0000   1.0000
     1.0000   1.0000   1.0000   1.0000   1.0000   1.0000   1.0000   1.0000
     1.0000   1.0000   1.0000   1.0000   1.0000   1.0000

          k = 0.4762-0.1138 0.0000 ( 24042 PWs)   bands (ev):

   -35.4315 -35.4314 -35.4311 -35.4311 -35.4057 -35.4057 -35.4054 -35.4054
   -35.3183 -35.3183 -35.2825 -35.2825 -33.9714 -33.9713 -33.9710 -33.9710
   -33.9501 -33.9500 -33.9497 -33.9496 -33.9379 -33.9379 -33.9376 -33.9375
   -33.8555 -33.8555 -33.8405 -33.8405 -33.8090 -33.8090 -28.0547 -28.0546
   -28.0543 -28.0542 -28.0469 -28.0468 -28.0466 -28.0465 -26.8148 -26.8146
   -26.8144 -26.8143 -26.8075 -26.8073 -26.8070 -26.8069 -26.8046 -26.8045
   -26.8043 -26.8042  -9.2028  -9.2027  -8.9109  -8.9108  -8.5439  -8.5438
    -6.9918  -6.9917  -6.6369  -6.6369  -2.7362  -2.7360  -1.9003  -1.8996
    -1.5920  -1.5907  -1.3639  -1.3630  -0.7266  -0.7253  -0.3586  -0.3573
     0.5308   0.5327   1.0097   1.0104   1.5400   1.5406

     occupation numbers 
     1.0000   1.0000   1.0000   1.0000   1.0000   1.0000   1.0000   1.0000
     1.0000   1.0000   1.0000   1.0000   1.0000   1.0000   1.0000   1.0000
     1.0000   1.0000   1.0000   1.0000   1.0000   1.0000   1.0000   1.0000
     1.0000   1.0000   1.0000   1.0000   1.0000   1.0000   1.0000   1.0000
     1.0000   1.0000   1.0000   1.0000   1.0000   1.0000   1.0000   1.0000
     1.0000   1.0000   1.0000   1.0000   1.0000   1.0000   1.0000   1.0000
     1.0000   1.0000   1.0000   1.0000   1.0000   1.0000   1.0000   1.0000
     1.0000   1.0000   1.0000   1.0000   1.0000   1.0000   1.0000   1.0000
     1.0000   1.0000   1.0000   1.0000   1.0000   1.0000   1.0000   1.0000
     1.0000   1.0000   1.0000   1.0000   1.0000   1.0000

          k = 0.4762-0.0583 0.0000 ( 24056 PWs)   bands (ev):

   -35.4315 -35.4314 -35.4311 -35.4310 -35.4057 -35.4057 -35.4054 -35.4054
   -35.3183 -35.3183 -35.2825 -35.2825 -33.9714 -33.9713 -33.9710 -33.9710
   -33.9501 -33.9500 -33.9497 -33.9496 -33.9379 -33.9379 -33.9376 -33.9375
   -33.8555 -33.8555 -33.8405 -33.8405 -33.8090 -33.8090 -28.0547 -28.0546
   -28.0543 -28.0541 -28.0469 -28.0468 -28.0466 -28.0465 -26.8148 -26.8146
   -26.8143 -26.8142 -26.8075 -26.8074 -26.8070 -26.8069 -26.8046 -26.8045
   -26.8044 -26.8042  -9.2450  -9.2450  -8.9299  -8.9299  -8.5099  -8.5098
    -6.9178  -6.9177  -6.6766  -6.6766  -2.5779  -2.5777  -2.1324  -2.1322
    -1.4944  -1.4934  -1.3867  -1.3855  -0.9337  -0.9324  -0.3595  -0.3589
     0.6246   0.6260   1.1115   1.1125   1.4967   1.4971

     occupation numbers 
     1.0000   1.0000   1.0000   1.0000   1.0000   1.0000   1.0000   1.0000
     1.0000   1.0000   1.0000   1.0000   1.0000   1.0000   1.0000   1.0000
     1.0000   1.0000   1.0000   1.0000   1.0000   1.0000   1.0000   1.0000
     1.0000   1.0000   1.0000   1.0000   1.0000   1.0000   1.0000   1.0000
     1.0000   1.0000   1.0000   1.0000   1.0000   1.0000   1.0000   1.0000
     1.0000   1.0000   1.0000   1.0000   1.0000   1.0000   1.0000   1.0000
     1.0000   1.0000   1.0000   1.0000   1.0000   1.0000   1.0000   1.0000
     1.0000   1.0000   1.0000   1.0000   1.0000   1.0000   1.0000   1.0000
     1.0000   1.0000   1.0000   1.0000   1.0000   1.0000   1.0000   1.0000
     1.0000   1.0000   1.0000   1.0000   1.0000   1.0000

          k = 0.4762-0.0027 0.0000 ( 24061 PWs)   bands (ev):

   -35.4315 -35.4314 -35.4311 -35.4310 -35.4057 -35.4057 -35.4054 -35.4054
   -35.3183 -35.3183 -35.2825 -35.2825 -33.9714 -33.9713 -33.9711 -33.9710
   -33.9501 -33.9500 -33.9497 -33.9496 -33.9379 -33.9379 -33.9376 -33.9375
   -33.8555 -33.8555 -33.8405 -33.8405 -33.8090 -33.8090 -28.0548 -28.0546
   -28.0543 -28.0541 -28.0469 -28.0468 -28.0466 -28.0465 -26.8148 -26.8147
   -26.8143 -26.8142 -26.8075 -26.8074 -26.8070 -26.8069 -26.8046 -26.8045
   -26.8044 -26.8043  -9.2605  -9.2605  -8.9382  -8.9381  -8.5000  -8.4999
    -6.8837  -6.8837  -6.7001  -6.7000  -2.4320  -2.4316  -2.3090  -2.3087
    -1.4764  -1.4758  -1.2846  -1.2834  -1.1020  -1.1009  -0.3533  -0.3531
     0.6757   0.6767   1.1896   1.1906   1.4207   1.4214

     occupation numbers 
     1.0000   1.0000   1.0000   1.0000   1.0000   1.0000   1.0000   1.0000
     1.0000   1.0000   1.0000   1.0000   1.0000   1.0000   1.0000   1.0000
     1.0000   1.0000   1.0000   1.0000   1.0000   1.0000   1.0000   1.0000
     1.0000   1.0000   1.0000   1.0000   1.0000   1.0000   1.0000   1.0000
     1.0000   1.0000   1.0000   1.0000   1.0000   1.0000   1.0000   1.0000
     1.0000   1.0000   1.0000   1.0000   1.0000   1.0000   1.0000   1.0000
     1.0000   1.0000   1.0000   1.0000   1.0000   1.0000   1.0000   1.0000
     1.0000   1.0000   1.0000   1.0000   1.0000   1.0000   1.0000   1.0000
     1.0000   1.0000   1.0000   1.0000   1.0000   1.0000   1.0000   1.0000
     1.0000   1.0000   1.0000   1.0000   1.0000   1.0000

          k = 0.4762 0.0528 0.0000 ( 24049 PWs)   bands (ev):

   -35.4315 -35.4314 -35.4311 -35.4310 -35.4057 -35.4057 -35.4054 -35.4054
   -35.3183 -35.3183 -35.2825 -35.2825 -33.9714 -33.9713 -33.9711 -33.9710
   -33.9501 -33.9500 -33.9497 -33.9496 -33.9379 -33.9379 -33.9376 -33.9376
   -33.8555 -33.8555 -33.8405 -33.8405 -33.8091 -33.8091 -28.0548 -28.0546
   -28.0543 -28.0542 -28.0469 -28.0468 -28.0466 -28.0465 -26.8148 -26.8147
   -26.8144 -26.8142 -26.8075 -26.8074 -26.8070 -26.8069 -26.8046 -26.8045
   -26.8044 -26.8042  -9.2486  -9.2486  -8.9345  -8.9345  -8.5150  -8.5149
    -6.9248  -6.9248  -6.6742  -6.6742  -2.5798  -2.5796  -2.1270  -2.1268
    -1.4916  -1.4895  -1.3815  -1.3791  -0.9287  -0.9278  -0.3541  -0.3537
     0.6313   0.6321   1.1195   1.1199   1.5105   1.5109

     occupation numbers 
     1.0000   1.0000   1.0000   1.0000   1.0000   1.0000   1.0000   1.0000
     1.0000   1.0000   1.0000   1.0000   1.0000   1.0000   1.0000   1.0000
     1.0000   1.0000   1.0000   1.0000   1.0000   1.0000   1.0000   1.0000
     1.0000   1.0000   1.0000   1.0000   1.0000   1.0000   1.0000   1.0000
     1.0000   1.0000   1.0000   1.0000   1.0000   1.0000   1.0000   1.0000
     1.0000   1.0000   1.0000   1.0000   1.0000   1.0000   1.0000   1.0000
     1.0000   1.0000   1.0000   1.0000   1.0000   1.0000   1.0000   1.0000
     1.0000   1.0000   1.0000   1.0000   1.0000   1.0000   1.0000   1.0000
     1.0000   1.0000   1.0000   1.0000   1.0000   1.0000   1.0000   1.0000
     1.0000   1.0000   1.0000   1.0000   1.0000   1.0000

          k = 0.4762 0.1083 0.0000 ( 24049 PWs)   bands (ev):

   -35.4315 -35.4314 -35.4311 -35.4311 -35.4057 -35.4057 -35.4054 -35.4054
   -35.3183 -35.3183 -35.2825 -35.2825 -33.9714 -33.9713 -33.9710 -33.9710
   -33.9501 -33.9500 -33.9497 -33.9496 -33.9379 -33.9379 -33.9376 -33.9376
   -33.8555 -33.8555 -33.8405 -33.8405 -33.8091 -33.8091 -28.0547 -28.0546
   -28.0543 -28.0542 -28.0469 -28.0468 -28.0466 -28.0465 -26.8148 -26.8147
   -26.8145 -26.8143 -26.8075 -26.8073 -26.8070 -26.8069 -26.8046 -26.8045
   -26.8043 -26.8042  -9.2098  -9.2098  -8.9198  -8.9198  -8.5535  -8.5534
    -7.0015  -7.0014  -6.6357  -6.6357  -2.7366  -2.7365  -1.8977  -1.8975
    -1.5845  -1.5835  -1.3465  -1.3453  -0.7262  -0.7256  -0.3393  -0.3389
     0.5434   0.5446   1.0230   1.0236   1.5688   1.5691

     occupation numbers 
     1.0000   1.0000   1.0000   1.0000   1.0000   1.0000   1.0000   1.0000
     1.0000   1.0000   1.0000   1.0000   1.0000   1.0000   1.0000   1.0000
     1.0000   1.0000   1.0000   1.0000   1.0000   1.0000   1.0000   1.0000
     1.0000   1.0000   1.0000   1.0000   1.0000   1.0000   1.0000   1.0000
     1.0000   1.0000   1.0000   1.0000   1.0000   1.0000   1.0000   1.0000
     1.0000   1.0000   1.0000   1.0000   1.0000   1.0000   1.0000   1.0000
     1.0000   1.0000   1.0000   1.0000   1.0000   1.0000   1.0000   1.0000
     1.0000   1.0000   1.0000   1.0000   1.0000   1.0000   1.0000   1.0000
     1.0000   1.0000   1.0000   1.0000   1.0000   1.0000   1.0000   1.0000
     1.0000   1.0000   1.0000   1.0000   1.0000   1.0000

          k = 0.4762 0.1639 0.0000 ( 24063 PWs)   bands (ev):

   -35.4315 -35.4314 -35.4311 -35.4311 -35.4057 -35.4057 -35.4054 -35.4054
   -35.3183 -35.3183 -35.2825 -35.2825 -33.9714 -33.9713 -33.9710 -33.9710
   -33.9501 -33.9500 -33.9497 -33.9496 -33.9379 -33.9379 -33.9376 -33.9376
   -33.8555 -33.8555 -33.8405 -33.8405 -33.8091 -33.8091 -28.0547 -28.0546
   -28.0544 -28.0543 -28.0469 -28.0468 -28.0466 -28.0465 -26.8148 -26.8147
   -26.8146 -26.8144 -26.8074 -26.8073 -26.8071 -26.8069 -26.8045 -26.8045
   -26.8042 -26.8042  -9.1459  -9.1458  -8.8967  -8.8967  -8.6118  -8.6118
    -7.0799  -7.0798  -6.6113  -6.6113  -2.8591  -2.8590  -1.7740  -1.7735
    -1.5658  -1.5651  -1.2524  -1.2517  -0.6314  -0.6310  -0.2767  -0.2761
     0.4717   0.4732   0.9831   0.9837   1.4627   1.4630

     occupation numbers 
     1.0000   1.0000   1.0000   1.0000   1.0000   1.0000   1.0000   1.0000
     1.0000   1.0000   1.0000   1.0000   1.0000   1.0000   1.0000   1.0000
     1.0000   1.0000   1.0000   1.0000   1.0000   1.0000   1.0000   1.0000
     1.0000   1.0000   1.0000   1.0000   1.0000   1.0000   1.0000   1.0000
     1.0000   1.0000   1.0000   1.0000   1.0000   1.0000   1.0000   1.0000
     1.0000   1.0000   1.0000   1.0000   1.0000   1.0000   1.0000   1.0000
     1.0000   1.0000   1.0000   1.0000   1.0000   1.0000   1.0000   1.0000
     1.0000   1.0000   1.0000   1.0000   1.0000   1.0000   1.0000   1.0000
     1.0000   1.0000   1.0000   1.0000   1.0000   1.0000   1.0000   1.0000
     1.0000   1.0000   1.0000   1.0000   1.0000   1.0000

          k = 0.4762 0.2194 0.0000 ( 24056 PWs)   bands (ev):

   -35.4315 -35.4314 -35.4311 -35.4311 -35.4057 -35.4057 -35.4054 -35.4054
   -35.3183 -35.3183 -35.2825 -35.2825 -33.9714 -33.9713 -33.9710 -33.9710
   -33.9500 -33.9500 -33.9497 -33.9496 -33.9379 -33.9379 -33.9376 -33.9376
   -33.8555 -33.8555 -33.8405 -33.8405 -33.8090 -33.8090 -28.0546 -28.0545
   -28.0544 -28.0543 -28.0468 -28.0468 -28.0466 -28.0465 -26.8148 -26.8147
   -26.8147 -26.8145 -26.8073 -26.8073 -26.8071 -26.8070 -26.8045 -26.8044
   -26.8042 -26.8041  -9.0599  -9.0599  -8.8691  -8.8691  -8.6842  -8.6842
    -7.1451  -7.1451  -6.6068  -6.6068  -2.9438  -2.9438  -1.7448  -1.7442
    -1.5153  -1.5142  -1.1192  -1.1187  -0.6371  -0.6368  -0.1840  -0.1833
     0.3934   0.3949   1.0201   1.0207   1.3051   1.3054

     occupation numbers 
     1.0000   1.0000   1.0000   1.0000   1.0000   1.0000   1.0000   1.0000
     1.0000   1.0000   1.0000   1.0000   1.0000   1.0000   1.0000   1.0000
     1.0000   1.0000   1.0000   1.0000   1.0000   1.0000   1.0000   1.0000
     1.0000   1.0000   1.0000   1.0000   1.0000   1.0000   1.0000   1.0000
     1.0000   1.0000   1.0000   1.0000   1.0000   1.0000   1.0000   1.0000
     1.0000   1.0000   1.0000   1.0000   1.0000   1.0000   1.0000   1.0000
     1.0000   1.0000   1.0000   1.0000   1.0000   1.0000   1.0000   1.0000
     1.0000   1.0000   1.0000   1.0000   1.0000   1.0000   1.0000   1.0000
     1.0000   1.0000   1.0000   1.0000   1.0000   1.0000   1.0000   1.0000
     1.0000   1.0000   1.0000   1.0000   1.0000   1.0000

     highest occupied level (ev):     1.8770

!    total energy              =    -806.67597839 Ry
     estimated scf accuracy    <       0.00000006 Ry

     The total energy is the sum of the following terms:
     one-electron contribution =   -3396.48164384 Ry
     hartree contribution      =    1693.60801774 Ry
     xc contribution           =     -87.18395166 Ry
     ewald contribution        =     983.48093266 Ry
     Dispersion Correction     =      -0.09933330 Ry

     convergence has been achieved in  12 iterations

     Writing all to output data dir tmp/Sb2Te3-uatsx-c5-soc-1.0.save/ :
     XML data file, charge density, pseudopotentials, collected wavefunctions

     init_run     :     57.77s CPU     31.34s WALL (       1 calls)
     electrons    :   3113.14s CPU   1639.96s WALL (       1 calls)

     Called by init_run:
     wfcinit      :     56.49s CPU     30.06s WALL (       1 calls)
     wfcinit:wfcr :     53.61s CPU     27.89s WALL (     221 calls)
     potinit      :      0.26s CPU      0.23s WALL (       1 calls)
     hinit0       :      0.84s CPU      0.86s WALL (       1 calls)

     Called by electrons:
     c_bands      :   2793.59s CPU   1477.58s WALL (      13 calls)
     sum_band     :    317.74s CPU    160.85s WALL (      13 calls)
     v_of_rho     :      0.94s CPU      0.65s WALL (      13 calls)
     v_h          :      0.08s CPU      0.05s WALL (      13 calls)
     v_xc         :      0.86s CPU      0.60s WALL (      13 calls)
     mix_rho      :      0.48s CPU      0.31s WALL (      13 calls)
     energy_londo :      0.02s CPU      0.01s WALL (       1 calls)

     Called by c_bands:
     init_us_2    :     12.79s CPU      7.82s WALL (    5967 calls)
     cegterg      :   2697.03s CPU   1424.16s WALL (    2873 calls)

     Called by sum_band:
     sum_band:wei :      0.00s CPU      0.00s WALL (      13 calls)
     sum_band:loo :    317.46s CPU    160.69s WALL (      13 calls)
     sum_band:buf :      4.47s CPU      2.27s WALL (    2873 calls)
     sum_band:ini :      7.43s CPU      3.76s WALL (    2873 calls)

     Called by *egterg:
     cdiaghg      :    219.47s CPU    140.79s WALL (   17963 calls)
     cegterg:over :    131.71s CPU     69.64s WALL (   15311 calls)
     cegterg:upda :     63.92s CPU     29.84s WALL (   15311 calls)
     cegterg:last :     96.12s CPU     48.36s WALL (    7756 calls)
     h_psi        :   2125.33s CPU   1093.04s WALL (   18405 calls)
     g_psi        :      7.48s CPU      5.22s WALL (   15311 calls)

     Called by h_psi:
     h_psi:calbec :    125.04s CPU     63.69s WALL (   18405 calls)
     vloc_psi     :   1905.13s CPU    971.34s WALL (   18405 calls)
     add_vuspsi   :     89.22s CPU     54.60s WALL (   18405 calls)

     General routines
     calbec       :    124.94s CPU     63.64s WALL (   18405 calls)
     fft          :      2.04s CPU      1.64s WALL (     301 calls)
     ffts         :      0.24s CPU      0.20s WALL (     104 calls)
     fftw         :   1671.92s CPU    847.97s WALL ( 3284740 calls)
     interpolate  :      0.42s CPU      0.30s WALL (      52 calls)

     Parallel routines

     PWSCF        :  53m13.37s CPU  29m45.53s WALL


   This run was terminated on:  16:17:56  22Aug2025            

=------------------------------------------------------------------------------=
   JOB DONE.
=------------------------------------------------------------------------------=
