
     Program PWSCF v.7.4.1 starts on 14Aug2025 at 21:40:14 

     This program is part of the open-source Quantum ESPRESSO suite
     for quantum simulation of materials; please cite
         "P. Giannozzi et al., J. Phys.:Condens. Matter 21 395502 (2009);
         "P. Giannozzi et al., J. Phys.:Condens. Matter 29 465901 (2017);
         "P. Giannozzi et al., J. Chem. Phys. 152 154105 (2020);
          URL http://www.quantum-espresso.org", 
     in publications or presentations arising from this work. More details at
     http://www.quantum-espresso.org/quote

     Parallel version (MPI & OpenMP), running on      48 processor cores
     Number of MPI processes:                24
     Threads/MPI process:                     2

     MPI processes distributed on     2 nodes
     104661 MiB available memory on the printing compute node when the environment starts

     Waiting for input...
     Reading input from standard input

     Current dimensions of program PWSCF are:
     Max number of different atomic species (ntypx) = 10
     Max number of k-points (npk) =  40000
     Max angular momentum in pseudopotentials (lmaxx) =  4
Error reading attribute index: expected integer, found *
Error reading attribute index: expected integer, found *

     IMPORTANT: XC functional enforced from input :
     Exchange-correlation= PBE
                           (   1   4   3   4   0   0   0)
     Any further DFT definition will be discarded
     Please, verify this is what you really want

     Message from routine setup:
     no reason to have ecutrho>4*ecutwfc

     R & G space division:  proc/nbgrp/npool/nimage =      24
     Subspace diagonalization in iterative solution of the eigenvalue problem:
     a serial algorithm will be used


     Parallelization info
     --------------------
     sticks:   dense  smooth     PW     G-vecs:    dense   smooth      PW
     Min          97      39     11                19297     4885     811
     Max          98      40     12                19315     4897     822
     Sum        2329     937    287               463351   117389   19649

     Using Slab Decomposition



     bravais-lattice index     =            0
     lattice parameter (alat)  =       8.3085  a.u.
     unit-cell volume          =    2454.7283 (a.u.)^3
     number of atoms/cell      =            5
     number of atomic types    =            2
     number of electrons       =        78.00
     number of Kohn-Sham states=           78
     kinetic-energy cutoff     =      50.0000  Ry
     charge density cutoff     =     500.0000  Ry
     scf convergence threshold =      1.0E-07
     mixing beta               =       0.7000
     number of iterations used =            8  plain     mixing
     Exchange-correlation= PBE
                           (   1   4   3   4   0   0   0)
     Non magnetic calculation with spin-orbit


     celldm(1)=   8.308546  celldm(2)=   0.000000  celldm(3)=   0.000000
     celldm(4)=   0.000000  celldm(5)=   0.000000  celldm(6)=   0.000000

     crystal axes: (cart. coord. in units of alat)
               a(1) = (   1.000000   0.000000   0.000000 )  
               a(2) = (  -0.490196   0.849036   0.000000 )  
               a(3) = (   0.000000   0.000000   5.040830 )  

     reciprocal axes: (cart. coord. in units 2 pi/alat)
               b(1) = (  1.000000  0.577356 -0.000000 )  
               b(2) = (  0.000000  1.177806  0.000000 )  
               b(3) = (  0.000000 -0.000000  0.198380 )  


     PseudoPot. # 1 for Sb read from file:
     /zfs-home/202401017n1/pseudos/Sb_ONCV_PBE_FR-1.1.upf
     MD5 check sum: 7dc1726f2158e3c51e4807d42b9c5c65
     Pseudo is Norm-conserving, Zval = 15.0
     Generated using ONCVPSP code by D. R. Hamann
     Using radial grid of  602 points, 10 beta functions with: 
                l(1) =   0
                l(2) =   0
                l(3) =   1
                l(4) =   1
                l(5) =   1
                l(6) =   1
                l(7) =   2
                l(8) =   2
                l(9) =   2
               l(10) =   2

     PseudoPot. # 2 for Te read from file:
     /zfs-home/202401017n1/pseudos/Te_ONCV_PBE_FR-1.1.upf
     MD5 check sum: c6e17480449037a9a9d16e6377b5c7c4
     Pseudo is Norm-conserving, Zval = 16.0
     Generated using ONCVPSP code by D. R. Hamann
     Using radial grid of  602 points, 10 beta functions with: 
                l(1) =   0
                l(2) =   0
                l(3) =   1
                l(4) =   1
                l(5) =   1
                l(6) =   1
                l(7) =   2
                l(8) =   2
                l(9) =   2
               l(10) =   2

     atomic species   valence    mass     pseudopotential
     Sb               15.00   121.76000     Sb( 1.00)
     Te               16.00   127.60000     Te( 1.00)

     No symmetry found


                                    s                        frac. trans.

      isym =  1     identity                                     

 cryst.   s( 1) = (     1          0          0      )
                  (     0          1          0      )
                  (     0          0          1      )

 cart.    s( 1) = (  1.0000000  0.0000000  0.0000000 )
                  (  0.0000000  1.0000000  0.0000000 )
                  (  0.0000000  0.0000000  1.0000000 )


   Cartesian axes

     site n.     atom                  positions (alat units)
         1        Sb     tau(   1) = (   0.5829733   0.4189608   2.9724649  )
         2        Te     tau(   2) = (   0.5752175   0.4057666   1.6850437  )
         3        Sb     tau(   3) = (   0.0736071   0.1257310   2.0683360  )
         4        Te     tau(   4) = (   0.0811854   0.1390911   3.3558017  )
         5        Te     tau(   5) = (   0.0831178   0.6970014   2.5203330  )

     -------------------------------------------------
     Parameters for Dispersion (Grimme-D2) Correction:
     -------------------------------------------------
       atom      VdW radius       C_6     

        Sb         3.555       1333.532
        Te         3.575       1101.101

   Crystallographic axes

     site n.     atom                  positions (cryst. coord.)
         1        Sb     tau(   1) = (  0.8248627  0.4934545  0.5896776  )
         2        Te     tau(   2) = (  0.8094892  0.4779143  0.3342790  )
         3        Sb     tau(   3) = (  0.1461986  0.1480867  0.4103165  )
         4        Te     tau(   4) = (  0.1614904  0.1638223  0.6657240  )
         5        Te     tau(   5) = (  0.4855356  0.8209324  0.4999837  )

     number of k points=   221
                       cart. coord. in units 2pi/alat
        k(    1) = (   0.0000000   0.0000000   0.0000000), wk =   0.0022676
        k(    2) = (   0.0000000   0.0560860   0.0000000), wk =   0.0045351
        k(    3) = (   0.0000000   0.1121720   0.0000000), wk =   0.0045351
        k(    4) = (   0.0000000   0.1682580   0.0000000), wk =   0.0045351
        k(    5) = (   0.0000000   0.2243440   0.0000000), wk =   0.0045351
        k(    6) = (   0.0000000   0.2804300   0.0000000), wk =   0.0045351
        k(    7) = (   0.0000000   0.3365160   0.0000000), wk =   0.0045351
        k(    8) = (   0.0000000   0.3926020   0.0000000), wk =   0.0045351
        k(    9) = (   0.0000000   0.4486880   0.0000000), wk =   0.0045351
        k(   10) = (   0.0000000   0.5047740   0.0000000), wk =   0.0045351
        k(   11) = (   0.0000000   0.5608600   0.0000000), wk =   0.0045351
        k(   12) = (   0.0476190   0.0274931   0.0000000), wk =   0.0045351
        k(   13) = (   0.0476190   0.0835791   0.0000000), wk =   0.0045351
        k(   14) = (   0.0476190   0.1396651   0.0000000), wk =   0.0045351
        k(   15) = (   0.0476190   0.1957511   0.0000000), wk =   0.0045351
        k(   16) = (   0.0476190   0.2518371   0.0000000), wk =   0.0045351
        k(   17) = (   0.0476190   0.3079231   0.0000000), wk =   0.0045351
        k(   18) = (   0.0476190   0.3640091   0.0000000), wk =   0.0045351
        k(   19) = (   0.0476190   0.4200951   0.0000000), wk =   0.0045351
        k(   20) = (   0.0476190   0.4761811   0.0000000), wk =   0.0045351
        k(   21) = (   0.0476190   0.5322671   0.0000000), wk =   0.0045351
        k(   22) = (   0.0476190   0.5883531   0.0000000), wk =   0.0045351
        k(   23) = (   0.0476190  -0.5333668   0.0000000), wk =   0.0045351
        k(   24) = (   0.0476190  -0.4772808   0.0000000), wk =   0.0045351
        k(   25) = (   0.0476190  -0.4211948   0.0000000), wk =   0.0045351
        k(   26) = (   0.0476190  -0.3651088   0.0000000), wk =   0.0045351
        k(   27) = (   0.0476190  -0.3090228   0.0000000), wk =   0.0045351
        k(   28) = (   0.0476190  -0.2529369   0.0000000), wk =   0.0045351
        k(   29) = (   0.0476190  -0.1968509   0.0000000), wk =   0.0045351
        k(   30) = (   0.0476190  -0.1407649   0.0000000), wk =   0.0045351
        k(   31) = (   0.0476190  -0.0846789   0.0000000), wk =   0.0045351
        k(   32) = (   0.0476190  -0.0285929   0.0000000), wk =   0.0045351
        k(   33) = (   0.0952381   0.0549863   0.0000000), wk =   0.0045351
        k(   34) = (   0.0952381   0.1110723   0.0000000), wk =   0.0045351
        k(   35) = (   0.0952381   0.1671583   0.0000000), wk =   0.0045351
        k(   36) = (   0.0952381   0.2232443   0.0000000), wk =   0.0045351
        k(   37) = (   0.0952381   0.2793303   0.0000000), wk =   0.0045351
        k(   38) = (   0.0952381   0.3354163   0.0000000), wk =   0.0045351
        k(   39) = (   0.0952381   0.3915023   0.0000000), wk =   0.0045351
        k(   40) = (   0.0952381   0.4475883   0.0000000), wk =   0.0045351
        k(   41) = (   0.0952381   0.5036742   0.0000000), wk =   0.0045351
        k(   42) = (   0.0952381   0.5597602   0.0000000), wk =   0.0045351
        k(   43) = (   0.0952381   0.6158462   0.0000000), wk =   0.0045351
        k(   44) = (   0.0952381  -0.5058737   0.0000000), wk =   0.0045351
        k(   45) = (   0.0952381  -0.4497877   0.0000000), wk =   0.0045351
        k(   46) = (   0.0952381  -0.3937017   0.0000000), wk =   0.0045351
        k(   47) = (   0.0952381  -0.3376157   0.0000000), wk =   0.0045351
        k(   48) = (   0.0952381  -0.2815297   0.0000000), wk =   0.0045351
        k(   49) = (   0.0952381  -0.2254437   0.0000000), wk =   0.0045351
        k(   50) = (   0.0952381  -0.1693577   0.0000000), wk =   0.0045351
        k(   51) = (   0.0952381  -0.1132717   0.0000000), wk =   0.0045351
        k(   52) = (   0.0952381  -0.0571857   0.0000000), wk =   0.0045351
        k(   53) = (   0.0952381  -0.0010997   0.0000000), wk =   0.0045351
        k(   54) = (   0.1428571   0.0824794   0.0000000), wk =   0.0045351
        k(   55) = (   0.1428571   0.1385654   0.0000000), wk =   0.0045351
        k(   56) = (   0.1428571   0.1946514   0.0000000), wk =   0.0045351
        k(   57) = (   0.1428571   0.2507374   0.0000000), wk =   0.0045351
        k(   58) = (   0.1428571   0.3068234   0.0000000), wk =   0.0045351
        k(   59) = (   0.1428571   0.3629094   0.0000000), wk =   0.0045351
        k(   60) = (   0.1428571   0.4189954   0.0000000), wk =   0.0045351
        k(   61) = (   0.1428571   0.4750814   0.0000000), wk =   0.0045351
        k(   62) = (   0.1428571   0.5311674   0.0000000), wk =   0.0045351
        k(   63) = (   0.1428571   0.5872534   0.0000000), wk =   0.0045351
        k(   64) = (   0.1428571   0.6433394   0.0000000), wk =   0.0045351
        k(   65) = (   0.1428571  -0.4783806   0.0000000), wk =   0.0045351
        k(   66) = (   0.1428571  -0.4222946   0.0000000), wk =   0.0045351
        k(   67) = (   0.1428571  -0.3662086   0.0000000), wk =   0.0045351
        k(   68) = (   0.1428571  -0.3101226   0.0000000), wk =   0.0045351
        k(   69) = (   0.1428571  -0.2540366   0.0000000), wk =   0.0045351
        k(   70) = (   0.1428571  -0.1979506   0.0000000), wk =   0.0045351
        k(   71) = (   0.1428571  -0.1418646   0.0000000), wk =   0.0045351
        k(   72) = (   0.1428571  -0.0857786   0.0000000), wk =   0.0045351
        k(   73) = (   0.1428571  -0.0296926   0.0000000), wk =   0.0045351
        k(   74) = (   0.1428571   0.0263934   0.0000000), wk =   0.0045351
        k(   75) = (   0.1904762   0.1099725   0.0000000), wk =   0.0045351
        k(   76) = (   0.1904762   0.1660585   0.0000000), wk =   0.0045351
        k(   77) = (   0.1904762   0.2221445   0.0000000), wk =   0.0045351
        k(   78) = (   0.1904762   0.2782305   0.0000000), wk =   0.0045351
        k(   79) = (   0.1904762   0.3343165   0.0000000), wk =   0.0045351
        k(   80) = (   0.1904762   0.3904025   0.0000000), wk =   0.0045351
        k(   81) = (   0.1904762   0.4464885   0.0000000), wk =   0.0045351
        k(   82) = (   0.1904762   0.5025745   0.0000000), wk =   0.0045351
        k(   83) = (   0.1904762   0.5586605   0.0000000), wk =   0.0045351
        k(   84) = (   0.1904762   0.6147465   0.0000000), wk =   0.0045351
        k(   85) = (   0.1904762   0.6708325   0.0000000), wk =   0.0045351
        k(   86) = (   0.1904762  -0.4508874   0.0000000), wk =   0.0045351
        k(   87) = (   0.1904762  -0.3948014   0.0000000), wk =   0.0045351
        k(   88) = (   0.1904762  -0.3387154   0.0000000), wk =   0.0045351
        k(   89) = (   0.1904762  -0.2826294   0.0000000), wk =   0.0045351
        k(   90) = (   0.1904762  -0.2265434   0.0000000), wk =   0.0045351
        k(   91) = (   0.1904762  -0.1704574   0.0000000), wk =   0.0045351
        k(   92) = (   0.1904762  -0.1143714   0.0000000), wk =   0.0045351
        k(   93) = (   0.1904762  -0.0582854   0.0000000), wk =   0.0045351
        k(   94) = (   0.1904762  -0.0021995   0.0000000), wk =   0.0045351
        k(   95) = (   0.1904762   0.0538865   0.0000000), wk =   0.0045351
        k(   96) = (   0.2380952   0.1374657   0.0000000), wk =   0.0045351
        k(   97) = (   0.2380952   0.1935517   0.0000000), wk =   0.0045351
        k(   98) = (   0.2380952   0.2496377   0.0000000), wk =   0.0045351
        k(   99) = (   0.2380952   0.3057237   0.0000000), wk =   0.0045351
        k(  100) = (   0.2380952   0.3618097   0.0000000), wk =   0.0045351
        k(  101) = (   0.2380952   0.4178957   0.0000000), wk =   0.0045351
        k(  102) = (   0.2380952   0.4739817   0.0000000), wk =   0.0045351
        k(  103) = (   0.2380952   0.5300677   0.0000000), wk =   0.0045351
        k(  104) = (   0.2380952   0.5861537   0.0000000), wk =   0.0045351
        k(  105) = (   0.2380952   0.6422397   0.0000000), wk =   0.0045351
        k(  106) = (   0.2380952   0.6983257   0.0000000), wk =   0.0045351
        k(  107) = (   0.2380952  -0.4233943   0.0000000), wk =   0.0045351
        k(  108) = (   0.2380952  -0.3673083   0.0000000), wk =   0.0045351
        k(  109) = (   0.2380952  -0.3112223   0.0000000), wk =   0.0045351
        k(  110) = (   0.2380952  -0.2551363   0.0000000), wk =   0.0045351
        k(  111) = (   0.2380952  -0.1990503   0.0000000), wk =   0.0045351
        k(  112) = (   0.2380952  -0.1429643   0.0000000), wk =   0.0045351
        k(  113) = (   0.2380952  -0.0868783   0.0000000), wk =   0.0045351
        k(  114) = (   0.2380952  -0.0307923   0.0000000), wk =   0.0045351
        k(  115) = (   0.2380952   0.0252937   0.0000000), wk =   0.0045351
        k(  116) = (   0.2380952   0.0813797   0.0000000), wk =   0.0045351
        k(  117) = (   0.2857143   0.1649588   0.0000000), wk =   0.0045351
        k(  118) = (   0.2857143   0.2210448   0.0000000), wk =   0.0045351
        k(  119) = (   0.2857143   0.2771308   0.0000000), wk =   0.0045351
        k(  120) = (   0.2857143   0.3332168   0.0000000), wk =   0.0045351
        k(  121) = (   0.2857143   0.3893028   0.0000000), wk =   0.0045351
        k(  122) = (   0.2857143   0.4453888   0.0000000), wk =   0.0045351
        k(  123) = (   0.2857143   0.5014748   0.0000000), wk =   0.0045351
        k(  124) = (   0.2857143   0.5575608   0.0000000), wk =   0.0045351
        k(  125) = (   0.2857143   0.6136468   0.0000000), wk =   0.0045351
        k(  126) = (   0.2857143   0.6697328   0.0000000), wk =   0.0045351
        k(  127) = (   0.2857143   0.7258188   0.0000000), wk =   0.0045351
        k(  128) = (   0.2857143  -0.3959012   0.0000000), wk =   0.0045351
        k(  129) = (   0.2857143  -0.3398152   0.0000000), wk =   0.0045351
        k(  130) = (   0.2857143  -0.2837292   0.0000000), wk =   0.0045351
        k(  131) = (   0.2857143  -0.2276432   0.0000000), wk =   0.0045351
        k(  132) = (   0.2857143  -0.1715572   0.0000000), wk =   0.0045351
        k(  133) = (   0.2857143  -0.1154712   0.0000000), wk =   0.0045351
        k(  134) = (   0.2857143  -0.0593852   0.0000000), wk =   0.0045351
        k(  135) = (   0.2857143  -0.0032992   0.0000000), wk =   0.0045351
        k(  136) = (   0.2857143   0.0527868   0.0000000), wk =   0.0045351
        k(  137) = (   0.2857143   0.1088728   0.0000000), wk =   0.0045351
        k(  138) = (   0.3333333   0.1924520   0.0000000), wk =   0.0045351
        k(  139) = (   0.3333333   0.2485379   0.0000000), wk =   0.0045351
        k(  140) = (   0.3333333   0.3046239   0.0000000), wk =   0.0045351
        k(  141) = (   0.3333333   0.3607099   0.0000000), wk =   0.0045351
        k(  142) = (   0.3333333   0.4167959   0.0000000), wk =   0.0045351
        k(  143) = (   0.3333333   0.4728819   0.0000000), wk =   0.0045351
        k(  144) = (   0.3333333   0.5289679   0.0000000), wk =   0.0045351
        k(  145) = (   0.3333333   0.5850539   0.0000000), wk =   0.0045351
        k(  146) = (   0.3333333   0.6411399   0.0000000), wk =   0.0045351
        k(  147) = (   0.3333333   0.6972259   0.0000000), wk =   0.0045351
        k(  148) = (   0.3333333   0.7533119   0.0000000), wk =   0.0045351
        k(  149) = (   0.3333333  -0.3684080   0.0000000), wk =   0.0045351
        k(  150) = (   0.3333333  -0.3123220   0.0000000), wk =   0.0045351
        k(  151) = (   0.3333333  -0.2562360   0.0000000), wk =   0.0045351
        k(  152) = (   0.3333333  -0.2001500   0.0000000), wk =   0.0045351
        k(  153) = (   0.3333333  -0.1440640   0.0000000), wk =   0.0045351
        k(  154) = (   0.3333333  -0.0879780   0.0000000), wk =   0.0045351
        k(  155) = (   0.3333333  -0.0318920   0.0000000), wk =   0.0045351
        k(  156) = (   0.3333333   0.0241940   0.0000000), wk =   0.0045351
        k(  157) = (   0.3333333   0.0802800   0.0000000), wk =   0.0045351
        k(  158) = (   0.3333333   0.1363660   0.0000000), wk =   0.0045351
        k(  159) = (   0.3809524   0.2199451   0.0000000), wk =   0.0045351
        k(  160) = (   0.3809524   0.2760311   0.0000000), wk =   0.0045351
        k(  161) = (   0.3809524   0.3321171   0.0000000), wk =   0.0045351
        k(  162) = (   0.3809524   0.3882031   0.0000000), wk =   0.0045351
        k(  163) = (   0.3809524   0.4442891   0.0000000), wk =   0.0045351
        k(  164) = (   0.3809524   0.5003751   0.0000000), wk =   0.0045351
        k(  165) = (   0.3809524   0.5564611   0.0000000), wk =   0.0045351
        k(  166) = (   0.3809524   0.6125471   0.0000000), wk =   0.0045351
        k(  167) = (   0.3809524   0.6686331   0.0000000), wk =   0.0045351
        k(  168) = (   0.3809524   0.7247191   0.0000000), wk =   0.0045351
        k(  169) = (   0.3809524   0.7808051   0.0000000), wk =   0.0045351
        k(  170) = (   0.3809524  -0.3409149   0.0000000), wk =   0.0045351
        k(  171) = (   0.3809524  -0.2848289   0.0000000), wk =   0.0045351
        k(  172) = (   0.3809524  -0.2287429   0.0000000), wk =   0.0045351
        k(  173) = (   0.3809524  -0.1726569   0.0000000), wk =   0.0045351
        k(  174) = (   0.3809524  -0.1165709   0.0000000), wk =   0.0045351
        k(  175) = (   0.3809524  -0.0604849   0.0000000), wk =   0.0045351
        k(  176) = (   0.3809524  -0.0043989   0.0000000), wk =   0.0045351
        k(  177) = (   0.3809524   0.0516871   0.0000000), wk =   0.0045351
        k(  178) = (   0.3809524   0.1077731   0.0000000), wk =   0.0045351
        k(  179) = (   0.3809524   0.1638591   0.0000000), wk =   0.0045351
        k(  180) = (   0.4285714   0.2474382   0.0000000), wk =   0.0045351
        k(  181) = (   0.4285714   0.3035242   0.0000000), wk =   0.0045351
        k(  182) = (   0.4285714   0.3596102   0.0000000), wk =   0.0045351
        k(  183) = (   0.4285714   0.4156962   0.0000000), wk =   0.0045351
        k(  184) = (   0.4285714   0.4717822   0.0000000), wk =   0.0045351
        k(  185) = (   0.4285714   0.5278682   0.0000000), wk =   0.0045351
        k(  186) = (   0.4285714   0.5839542   0.0000000), wk =   0.0045351
        k(  187) = (   0.4285714   0.6400402   0.0000000), wk =   0.0045351
        k(  188) = (   0.4285714   0.6961262   0.0000000), wk =   0.0045351
        k(  189) = (   0.4285714   0.7522122   0.0000000), wk =   0.0045351
        k(  190) = (   0.4285714   0.8082982   0.0000000), wk =   0.0045351
        k(  191) = (   0.4285714  -0.3134217   0.0000000), wk =   0.0045351
        k(  192) = (   0.4285714  -0.2573358   0.0000000), wk =   0.0045351
        k(  193) = (   0.4285714  -0.2012498   0.0000000), wk =   0.0045351
        k(  194) = (   0.4285714  -0.1451638   0.0000000), wk =   0.0045351
        k(  195) = (   0.4285714  -0.0890778   0.0000000), wk =   0.0045351
        k(  196) = (   0.4285714  -0.0329918   0.0000000), wk =   0.0045351
        k(  197) = (   0.4285714   0.0230942   0.0000000), wk =   0.0045351
        k(  198) = (   0.4285714   0.0791802   0.0000000), wk =   0.0045351
        k(  199) = (   0.4285714   0.1352662   0.0000000), wk =   0.0045351
        k(  200) = (   0.4285714   0.1913522   0.0000000), wk =   0.0045351
        k(  201) = (   0.4761905   0.2749314   0.0000000), wk =   0.0045351
        k(  202) = (   0.4761905   0.3310174   0.0000000), wk =   0.0045351
        k(  203) = (   0.4761905   0.3871034   0.0000000), wk =   0.0045351
        k(  204) = (   0.4761905   0.4431894   0.0000000), wk =   0.0045351
        k(  205) = (   0.4761905   0.4992753   0.0000000), wk =   0.0045351
        k(  206) = (   0.4761905   0.5553613   0.0000000), wk =   0.0045351
        k(  207) = (   0.4761905   0.6114473   0.0000000), wk =   0.0045351
        k(  208) = (   0.4761905   0.6675333   0.0000000), wk =   0.0045351
        k(  209) = (   0.4761905   0.7236193   0.0000000), wk =   0.0045351
        k(  210) = (   0.4761905   0.7797053   0.0000000), wk =   0.0045351
        k(  211) = (   0.4761905   0.8357913   0.0000000), wk =   0.0045351
        k(  212) = (   0.4761905  -0.2859286   0.0000000), wk =   0.0045351
        k(  213) = (   0.4761905  -0.2298426   0.0000000), wk =   0.0045351
        k(  214) = (   0.4761905  -0.1737566   0.0000000), wk =   0.0045351
        k(  215) = (   0.4761905  -0.1176706   0.0000000), wk =   0.0045351
        k(  216) = (   0.4761905  -0.0615846   0.0000000), wk =   0.0045351
        k(  217) = (   0.4761905  -0.0054986   0.0000000), wk =   0.0045351
        k(  218) = (   0.4761905   0.0505874   0.0000000), wk =   0.0045351
        k(  219) = (   0.4761905   0.1066734   0.0000000), wk =   0.0045351
        k(  220) = (   0.4761905   0.1627594   0.0000000), wk =   0.0045351
        k(  221) = (   0.4761905   0.2188454   0.0000000), wk =   0.0045351

                       cryst. coord.
        k(    1) = (   0.0000000   0.0000000   0.0000000), wk =   0.0022676
        k(    2) = (   0.0000000   0.0476190   0.0000000), wk =   0.0045351
        k(    3) = (   0.0000000   0.0952381   0.0000000), wk =   0.0045351
        k(    4) = (   0.0000000   0.1428571   0.0000000), wk =   0.0045351
        k(    5) = (   0.0000000   0.1904762   0.0000000), wk =   0.0045351
        k(    6) = (   0.0000000   0.2380952   0.0000000), wk =   0.0045351
        k(    7) = (   0.0000000   0.2857143   0.0000000), wk =   0.0045351
        k(    8) = (   0.0000000   0.3333333   0.0000000), wk =   0.0045351
        k(    9) = (   0.0000000   0.3809524   0.0000000), wk =   0.0045351
        k(   10) = (   0.0000000   0.4285714   0.0000000), wk =   0.0045351
        k(   11) = (   0.0000000   0.4761905   0.0000000), wk =   0.0045351
        k(   12) = (   0.0476190   0.0000000   0.0000000), wk =   0.0045351
        k(   13) = (   0.0476190   0.0476190   0.0000000), wk =   0.0045351
        k(   14) = (   0.0476190   0.0952381   0.0000000), wk =   0.0045351
        k(   15) = (   0.0476190   0.1428571   0.0000000), wk =   0.0045351
        k(   16) = (   0.0476190   0.1904762   0.0000000), wk =   0.0045351
        k(   17) = (   0.0476190   0.2380952   0.0000000), wk =   0.0045351
        k(   18) = (   0.0476190   0.2857143   0.0000000), wk =   0.0045351
        k(   19) = (   0.0476190   0.3333333   0.0000000), wk =   0.0045351
        k(   20) = (   0.0476190   0.3809524   0.0000000), wk =   0.0045351
        k(   21) = (   0.0476190   0.4285714   0.0000000), wk =   0.0045351
        k(   22) = (   0.0476190   0.4761905   0.0000000), wk =   0.0045351
        k(   23) = (   0.0476190  -0.4761905   0.0000000), wk =   0.0045351
        k(   24) = (   0.0476190  -0.4285714   0.0000000), wk =   0.0045351
        k(   25) = (   0.0476190  -0.3809524   0.0000000), wk =   0.0045351
        k(   26) = (   0.0476190  -0.3333333   0.0000000), wk =   0.0045351
        k(   27) = (   0.0476190  -0.2857143   0.0000000), wk =   0.0045351
        k(   28) = (   0.0476190  -0.2380952   0.0000000), wk =   0.0045351
        k(   29) = (   0.0476190  -0.1904762   0.0000000), wk =   0.0045351
        k(   30) = (   0.0476190  -0.1428571   0.0000000), wk =   0.0045351
        k(   31) = (   0.0476190  -0.0952381   0.0000000), wk =   0.0045351
        k(   32) = (   0.0476190  -0.0476190   0.0000000), wk =   0.0045351
        k(   33) = (   0.0952381   0.0000000   0.0000000), wk =   0.0045351
        k(   34) = (   0.0952381   0.0476190   0.0000000), wk =   0.0045351
        k(   35) = (   0.0952381   0.0952381   0.0000000), wk =   0.0045351
        k(   36) = (   0.0952381   0.1428571   0.0000000), wk =   0.0045351
        k(   37) = (   0.0952381   0.1904762   0.0000000), wk =   0.0045351
        k(   38) = (   0.0952381   0.2380952   0.0000000), wk =   0.0045351
        k(   39) = (   0.0952381   0.2857143   0.0000000), wk =   0.0045351
        k(   40) = (   0.0952381   0.3333333   0.0000000), wk =   0.0045351
        k(   41) = (   0.0952381   0.3809524   0.0000000), wk =   0.0045351
        k(   42) = (   0.0952381   0.4285714   0.0000000), wk =   0.0045351
        k(   43) = (   0.0952381   0.4761905   0.0000000), wk =   0.0045351
        k(   44) = (   0.0952381  -0.4761905   0.0000000), wk =   0.0045351
        k(   45) = (   0.0952381  -0.4285714   0.0000000), wk =   0.0045351
        k(   46) = (   0.0952381  -0.3809524   0.0000000), wk =   0.0045351
        k(   47) = (   0.0952381  -0.3333333   0.0000000), wk =   0.0045351
        k(   48) = (   0.0952381  -0.2857143   0.0000000), wk =   0.0045351
        k(   49) = (   0.0952381  -0.2380952   0.0000000), wk =   0.0045351
        k(   50) = (   0.0952381  -0.1904762   0.0000000), wk =   0.0045351
        k(   51) = (   0.0952381  -0.1428571   0.0000000), wk =   0.0045351
        k(   52) = (   0.0952381  -0.0952381   0.0000000), wk =   0.0045351
        k(   53) = (   0.0952381  -0.0476190   0.0000000), wk =   0.0045351
        k(   54) = (   0.1428571   0.0000000   0.0000000), wk =   0.0045351
        k(   55) = (   0.1428571   0.0476190   0.0000000), wk =   0.0045351
        k(   56) = (   0.1428571   0.0952381   0.0000000), wk =   0.0045351
        k(   57) = (   0.1428571   0.1428571   0.0000000), wk =   0.0045351
        k(   58) = (   0.1428571   0.1904762   0.0000000), wk =   0.0045351
        k(   59) = (   0.1428571   0.2380952   0.0000000), wk =   0.0045351
        k(   60) = (   0.1428571   0.2857143   0.0000000), wk =   0.0045351
        k(   61) = (   0.1428571   0.3333333   0.0000000), wk =   0.0045351
        k(   62) = (   0.1428571   0.3809524   0.0000000), wk =   0.0045351
        k(   63) = (   0.1428571   0.4285714   0.0000000), wk =   0.0045351
        k(   64) = (   0.1428571   0.4761905   0.0000000), wk =   0.0045351
        k(   65) = (   0.1428571  -0.4761905   0.0000000), wk =   0.0045351
        k(   66) = (   0.1428571  -0.4285714   0.0000000), wk =   0.0045351
        k(   67) = (   0.1428571  -0.3809524   0.0000000), wk =   0.0045351
        k(   68) = (   0.1428571  -0.3333333   0.0000000), wk =   0.0045351
        k(   69) = (   0.1428571  -0.2857143   0.0000000), wk =   0.0045351
        k(   70) = (   0.1428571  -0.2380952   0.0000000), wk =   0.0045351
        k(   71) = (   0.1428571  -0.1904762   0.0000000), wk =   0.0045351
        k(   72) = (   0.1428571  -0.1428571   0.0000000), wk =   0.0045351
        k(   73) = (   0.1428571  -0.0952381   0.0000000), wk =   0.0045351
        k(   74) = (   0.1428571  -0.0476190   0.0000000), wk =   0.0045351
        k(   75) = (   0.1904762   0.0000000   0.0000000), wk =   0.0045351
        k(   76) = (   0.1904762   0.0476190   0.0000000), wk =   0.0045351
        k(   77) = (   0.1904762   0.0952381   0.0000000), wk =   0.0045351
        k(   78) = (   0.1904762   0.1428571   0.0000000), wk =   0.0045351
        k(   79) = (   0.1904762   0.1904762   0.0000000), wk =   0.0045351
        k(   80) = (   0.1904762   0.2380952   0.0000000), wk =   0.0045351
        k(   81) = (   0.1904762   0.2857143   0.0000000), wk =   0.0045351
        k(   82) = (   0.1904762   0.3333333   0.0000000), wk =   0.0045351
        k(   83) = (   0.1904762   0.3809524   0.0000000), wk =   0.0045351
        k(   84) = (   0.1904762   0.4285714   0.0000000), wk =   0.0045351
        k(   85) = (   0.1904762   0.4761905   0.0000000), wk =   0.0045351
        k(   86) = (   0.1904762  -0.4761905   0.0000000), wk =   0.0045351
        k(   87) = (   0.1904762  -0.4285714   0.0000000), wk =   0.0045351
        k(   88) = (   0.1904762  -0.3809524   0.0000000), wk =   0.0045351
        k(   89) = (   0.1904762  -0.3333333   0.0000000), wk =   0.0045351
        k(   90) = (   0.1904762  -0.2857143   0.0000000), wk =   0.0045351
        k(   91) = (   0.1904762  -0.2380952   0.0000000), wk =   0.0045351
        k(   92) = (   0.1904762  -0.1904762   0.0000000), wk =   0.0045351
        k(   93) = (   0.1904762  -0.1428571   0.0000000), wk =   0.0045351
        k(   94) = (   0.1904762  -0.0952381   0.0000000), wk =   0.0045351
        k(   95) = (   0.1904762  -0.0476190   0.0000000), wk =   0.0045351
        k(   96) = (   0.2380952   0.0000000   0.0000000), wk =   0.0045351
        k(   97) = (   0.2380952   0.0476190   0.0000000), wk =   0.0045351
        k(   98) = (   0.2380952   0.0952381   0.0000000), wk =   0.0045351
        k(   99) = (   0.2380952   0.1428571   0.0000000), wk =   0.0045351
        k(  100) = (   0.2380952   0.1904762   0.0000000), wk =   0.0045351
        k(  101) = (   0.2380952   0.2380952   0.0000000), wk =   0.0045351
        k(  102) = (   0.2380952   0.2857143   0.0000000), wk =   0.0045351
        k(  103) = (   0.2380952   0.3333333   0.0000000), wk =   0.0045351
        k(  104) = (   0.2380952   0.3809524   0.0000000), wk =   0.0045351
        k(  105) = (   0.2380952   0.4285714   0.0000000), wk =   0.0045351
        k(  106) = (   0.2380952   0.4761905   0.0000000), wk =   0.0045351
        k(  107) = (   0.2380952  -0.4761905   0.0000000), wk =   0.0045351
        k(  108) = (   0.2380952  -0.4285714   0.0000000), wk =   0.0045351
        k(  109) = (   0.2380952  -0.3809524   0.0000000), wk =   0.0045351
        k(  110) = (   0.2380952  -0.3333333   0.0000000), wk =   0.0045351
        k(  111) = (   0.2380952  -0.2857143   0.0000000), wk =   0.0045351
        k(  112) = (   0.2380952  -0.2380952   0.0000000), wk =   0.0045351
        k(  113) = (   0.2380952  -0.1904762   0.0000000), wk =   0.0045351
        k(  114) = (   0.2380952  -0.1428571   0.0000000), wk =   0.0045351
        k(  115) = (   0.2380952  -0.0952381   0.0000000), wk =   0.0045351
        k(  116) = (   0.2380952  -0.0476190   0.0000000), wk =   0.0045351
        k(  117) = (   0.2857143   0.0000000   0.0000000), wk =   0.0045351
        k(  118) = (   0.2857143   0.0476190   0.0000000), wk =   0.0045351
        k(  119) = (   0.2857143   0.0952381   0.0000000), wk =   0.0045351
        k(  120) = (   0.2857143   0.1428571   0.0000000), wk =   0.0045351
        k(  121) = (   0.2857143   0.1904762   0.0000000), wk =   0.0045351
        k(  122) = (   0.2857143   0.2380952   0.0000000), wk =   0.0045351
        k(  123) = (   0.2857143   0.2857143   0.0000000), wk =   0.0045351
        k(  124) = (   0.2857143   0.3333333   0.0000000), wk =   0.0045351
        k(  125) = (   0.2857143   0.3809524   0.0000000), wk =   0.0045351
        k(  126) = (   0.2857143   0.4285714   0.0000000), wk =   0.0045351
        k(  127) = (   0.2857143   0.4761905   0.0000000), wk =   0.0045351
        k(  128) = (   0.2857143  -0.4761905   0.0000000), wk =   0.0045351
        k(  129) = (   0.2857143  -0.4285714   0.0000000), wk =   0.0045351
        k(  130) = (   0.2857143  -0.3809524   0.0000000), wk =   0.0045351
        k(  131) = (   0.2857143  -0.3333333   0.0000000), wk =   0.0045351
        k(  132) = (   0.2857143  -0.2857143   0.0000000), wk =   0.0045351
        k(  133) = (   0.2857143  -0.2380952   0.0000000), wk =   0.0045351
        k(  134) = (   0.2857143  -0.1904762   0.0000000), wk =   0.0045351
        k(  135) = (   0.2857143  -0.1428571   0.0000000), wk =   0.0045351
        k(  136) = (   0.2857143  -0.0952381   0.0000000), wk =   0.0045351
        k(  137) = (   0.2857143  -0.0476190   0.0000000), wk =   0.0045351
        k(  138) = (   0.3333333   0.0000000   0.0000000), wk =   0.0045351
        k(  139) = (   0.3333333   0.0476190   0.0000000), wk =   0.0045351
        k(  140) = (   0.3333333   0.0952381   0.0000000), wk =   0.0045351
        k(  141) = (   0.3333333   0.1428571   0.0000000), wk =   0.0045351
        k(  142) = (   0.3333333   0.1904762   0.0000000), wk =   0.0045351
        k(  143) = (   0.3333333   0.2380952   0.0000000), wk =   0.0045351
        k(  144) = (   0.3333333   0.2857143   0.0000000), wk =   0.0045351
        k(  145) = (   0.3333333   0.3333333   0.0000000), wk =   0.0045351
        k(  146) = (   0.3333333   0.3809524   0.0000000), wk =   0.0045351
        k(  147) = (   0.3333333   0.4285714   0.0000000), wk =   0.0045351
        k(  148) = (   0.3333333   0.4761905   0.0000000), wk =   0.0045351
        k(  149) = (   0.3333333  -0.4761905   0.0000000), wk =   0.0045351
        k(  150) = (   0.3333333  -0.4285714   0.0000000), wk =   0.0045351
        k(  151) = (   0.3333333  -0.3809524   0.0000000), wk =   0.0045351
        k(  152) = (   0.3333333  -0.3333333   0.0000000), wk =   0.0045351
        k(  153) = (   0.3333333  -0.2857143   0.0000000), wk =   0.0045351
        k(  154) = (   0.3333333  -0.2380952   0.0000000), wk =   0.0045351
        k(  155) = (   0.3333333  -0.1904762   0.0000000), wk =   0.0045351
        k(  156) = (   0.3333333  -0.1428571   0.0000000), wk =   0.0045351
        k(  157) = (   0.3333333  -0.0952381   0.0000000), wk =   0.0045351
        k(  158) = (   0.3333333  -0.0476190   0.0000000), wk =   0.0045351
        k(  159) = (   0.3809524   0.0000000   0.0000000), wk =   0.0045351
        k(  160) = (   0.3809524   0.0476190   0.0000000), wk =   0.0045351
        k(  161) = (   0.3809524   0.0952381   0.0000000), wk =   0.0045351
        k(  162) = (   0.3809524   0.1428571   0.0000000), wk =   0.0045351
        k(  163) = (   0.3809524   0.1904762   0.0000000), wk =   0.0045351
        k(  164) = (   0.3809524   0.2380952   0.0000000), wk =   0.0045351
        k(  165) = (   0.3809524   0.2857143   0.0000000), wk =   0.0045351
        k(  166) = (   0.3809524   0.3333333   0.0000000), wk =   0.0045351
        k(  167) = (   0.3809524   0.3809524   0.0000000), wk =   0.0045351
        k(  168) = (   0.3809524   0.4285714   0.0000000), wk =   0.0045351
        k(  169) = (   0.3809524   0.4761905   0.0000000), wk =   0.0045351
        k(  170) = (   0.3809524  -0.4761905   0.0000000), wk =   0.0045351
        k(  171) = (   0.3809524  -0.4285714   0.0000000), wk =   0.0045351
        k(  172) = (   0.3809524  -0.3809524   0.0000000), wk =   0.0045351
        k(  173) = (   0.3809524  -0.3333333   0.0000000), wk =   0.0045351
        k(  174) = (   0.3809524  -0.2857143   0.0000000), wk =   0.0045351
        k(  175) = (   0.3809524  -0.2380952   0.0000000), wk =   0.0045351
        k(  176) = (   0.3809524  -0.1904762   0.0000000), wk =   0.0045351
        k(  177) = (   0.3809524  -0.1428571   0.0000000), wk =   0.0045351
        k(  178) = (   0.3809524  -0.0952381   0.0000000), wk =   0.0045351
        k(  179) = (   0.3809524  -0.0476190   0.0000000), wk =   0.0045351
        k(  180) = (   0.4285714   0.0000000   0.0000000), wk =   0.0045351
        k(  181) = (   0.4285714   0.0476190   0.0000000), wk =   0.0045351
        k(  182) = (   0.4285714   0.0952381   0.0000000), wk =   0.0045351
        k(  183) = (   0.4285714   0.1428571   0.0000000), wk =   0.0045351
        k(  184) = (   0.4285714   0.1904762   0.0000000), wk =   0.0045351
        k(  185) = (   0.4285714   0.2380952   0.0000000), wk =   0.0045351
        k(  186) = (   0.4285714   0.2857143   0.0000000), wk =   0.0045351
        k(  187) = (   0.4285714   0.3333333   0.0000000), wk =   0.0045351
        k(  188) = (   0.4285714   0.3809524   0.0000000), wk =   0.0045351
        k(  189) = (   0.4285714   0.4285714   0.0000000), wk =   0.0045351
        k(  190) = (   0.4285714   0.4761905   0.0000000), wk =   0.0045351
        k(  191) = (   0.4285714  -0.4761905   0.0000000), wk =   0.0045351
        k(  192) = (   0.4285714  -0.4285714   0.0000000), wk =   0.0045351
        k(  193) = (   0.4285714  -0.3809524   0.0000000), wk =   0.0045351
        k(  194) = (   0.4285714  -0.3333333   0.0000000), wk =   0.0045351
        k(  195) = (   0.4285714  -0.2857143   0.0000000), wk =   0.0045351
        k(  196) = (   0.4285714  -0.2380952   0.0000000), wk =   0.0045351
        k(  197) = (   0.4285714  -0.1904762   0.0000000), wk =   0.0045351
        k(  198) = (   0.4285714  -0.1428571   0.0000000), wk =   0.0045351
        k(  199) = (   0.4285714  -0.0952381   0.0000000), wk =   0.0045351
        k(  200) = (   0.4285714  -0.0476190   0.0000000), wk =   0.0045351
        k(  201) = (   0.4761905   0.0000000   0.0000000), wk =   0.0045351
        k(  202) = (   0.4761905   0.0476190   0.0000000), wk =   0.0045351
        k(  203) = (   0.4761905   0.0952381   0.0000000), wk =   0.0045351
        k(  204) = (   0.4761905   0.1428571   0.0000000), wk =   0.0045351
        k(  205) = (   0.4761905   0.1904762   0.0000000), wk =   0.0045351
        k(  206) = (   0.4761905   0.2380952   0.0000000), wk =   0.0045351
        k(  207) = (   0.4761905   0.2857143   0.0000000), wk =   0.0045351
        k(  208) = (   0.4761905   0.3333333   0.0000000), wk =   0.0045351
        k(  209) = (   0.4761905   0.3809524   0.0000000), wk =   0.0045351
        k(  210) = (   0.4761905   0.4285714   0.0000000), wk =   0.0045351
        k(  211) = (   0.4761905   0.4761905   0.0000000), wk =   0.0045351
        k(  212) = (   0.4761905  -0.4761905   0.0000000), wk =   0.0045351
        k(  213) = (   0.4761905  -0.4285714   0.0000000), wk =   0.0045351
        k(  214) = (   0.4761905  -0.3809524   0.0000000), wk =   0.0045351
        k(  215) = (   0.4761905  -0.3333333   0.0000000), wk =   0.0045351
        k(  216) = (   0.4761905  -0.2857143   0.0000000), wk =   0.0045351
        k(  217) = (   0.4761905  -0.2380952   0.0000000), wk =   0.0045351
        k(  218) = (   0.4761905  -0.1904762   0.0000000), wk =   0.0045351
        k(  219) = (   0.4761905  -0.1428571   0.0000000), wk =   0.0045351
        k(  220) = (   0.4761905  -0.0952381   0.0000000), wk =   0.0045351
        k(  221) = (   0.4761905  -0.0476190   0.0000000), wk =   0.0045351

     Dense  grid:   463351 G-vectors     FFT dimensions: (  60,  60, 300)

     Smooth grid:   117389 G-vectors     FFT dimensions: (  40,  40, 192)

     Dynamical RAM for                 wfc:       1.45 MB

     Dynamical RAM for     wfc (w. buffer):     322.35 MB

     Dynamical RAM for           str. fact:       0.59 MB

     Dynamical RAM for           local pot:       0.00 MB

     Dynamical RAM for          nlocal pot:       1.58 MB

     Dynamical RAM for                qrad:       9.40 MB

     Dynamical RAM for          rho,v,vnew:       7.82 MB

     Dynamical RAM for               rhoin:       2.61 MB

     Dynamical RAM for            rho*nmix:      18.85 MB

     Dynamical RAM for           G-vectors:       1.14 MB

     Dynamical RAM for          h,s,v(r/c):       1.11 MB

     Dynamical RAM for          <psi|beta>:       0.40 MB

     Dynamical RAM for                 psi:       2.90 MB

     Dynamical RAM for                hpsi:       2.90 MB

     Dynamical RAM for      wfcinit/wfcrot:       2.32 MB

     Estimated static dynamical RAM per process >     349.23 MB

     Estimated max dynamical RAM per process >     375.41 MB

     Estimated total dynamical RAM >       8.80 GB

     Initial potential from superposition of free atoms

     starting charge      77.7613, renormalised to      78.0000

     negative rho (up, down):  3.886E-04 0.000E+00
     Starting wfcs are random

     total cpu time spent up to now is       19.8 secs

     Self-consistent Calculation

     iteration #  1     ecut=    50.00 Ry     beta= 0.70
     Davidson diagonalization with overlap

---- Real-time Memory Report at c_bands before calling an iterative solver
           549 MiB given to the printing process from OS
             0 MiB allocation reported by mallinfo(arena+hblkhd)
        100255 MiB available memory on the node where the printing process lives
------------------
     ethr =  1.00E-02,  avg # of iterations = 12.5

     Threshold (ethr) on eigenvalues was too large:
     Diagonalizing with lowered threshold

     Davidson diagonalization with overlap

---- Real-time Memory Report at c_bands before calling an iterative solver
           563 MiB given to the printing process from OS
             0 MiB allocation reported by mallinfo(arena+hblkhd)
        100153 MiB available memory on the node where the printing process lives
------------------
     ethr =  1.18E-04,  avg # of iterations =  6.1

     negative rho (up, down):  1.677E-05 0.000E+00

     total cpu time spent up to now is      323.5 secs

     total energy              =    -806.63647279 Ry
     estimated scf accuracy    <       0.07943804 Ry

     iteration #  2     ecut=    50.00 Ry     beta= 0.70
     Davidson diagonalization with overlap

---- Real-time Memory Report at c_bands before calling an iterative solver
           564 MiB given to the printing process from OS
             0 MiB allocation reported by mallinfo(arena+hblkhd)
        100152 MiB available memory on the node where the printing process lives
------------------
     ethr =  1.02E-04,  avg # of iterations =  5.1

     negative rho (up, down):  2.714E-05 0.000E+00

     total cpu time spent up to now is      404.3 secs

     total energy              =    -806.59605369 Ry
     estimated scf accuracy    <       0.39452180 Ry

     iteration #  3     ecut=    50.00 Ry     beta= 0.70
     Davidson diagonalization with overlap

---- Real-time Memory Report at c_bands before calling an iterative solver
           565 MiB given to the printing process from OS
             0 MiB allocation reported by mallinfo(arena+hblkhd)
        100138 MiB available memory on the node where the printing process lives
------------------
     ethr =  1.02E-04,  avg # of iterations =  5.3

     negative rho (up, down):  2.301E-05 0.000E+00

     total cpu time spent up to now is      479.1 secs

     total energy              =    -806.64595717 Ry
     estimated scf accuracy    <       0.22912071 Ry

     iteration #  4     ecut=    50.00 Ry     beta= 0.70
     Davidson diagonalization with overlap

---- Real-time Memory Report at c_bands before calling an iterative solver
           567 MiB given to the printing process from OS
             0 MiB allocation reported by mallinfo(arena+hblkhd)
        100128 MiB available memory on the node where the printing process lives
------------------
     ethr =  1.02E-04,  avg # of iterations =  3.4

     negative rho (up, down):  2.349E-06 0.000E+00

     total cpu time spent up to now is      542.7 secs

     total energy              =    -806.67025463 Ry
     estimated scf accuracy    <       0.00277064 Ry

     iteration #  5     ecut=    50.00 Ry     beta= 0.70
     Davidson diagonalization with overlap

---- Real-time Memory Report at c_bands before calling an iterative solver
           568 MiB given to the printing process from OS
             0 MiB allocation reported by mallinfo(arena+hblkhd)
        100121 MiB available memory on the node where the printing process lives
------------------
     ethr =  3.55E-06,  avg # of iterations =  5.4

     negative rho (up, down):  2.081E-06 0.000E+00

     total cpu time spent up to now is      615.5 secs

     total energy              =    -806.67095215 Ry
     estimated scf accuracy    <       0.00474688 Ry

     iteration #  6     ecut=    50.00 Ry     beta= 0.70
     Davidson diagonalization with overlap

---- Real-time Memory Report at c_bands before calling an iterative solver
           568 MiB given to the printing process from OS
             0 MiB allocation reported by mallinfo(arena+hblkhd)
        100113 MiB available memory on the node where the printing process lives
------------------
     ethr =  3.55E-06,  avg # of iterations =  5.5

     total cpu time spent up to now is      679.0 secs

     total energy              =    -806.67081416 Ry
     estimated scf accuracy    <       0.00612919 Ry

     iteration #  7     ecut=    50.00 Ry     beta= 0.70
     Davidson diagonalization with overlap

---- Real-time Memory Report at c_bands before calling an iterative solver
           569 MiB given to the printing process from OS
             0 MiB allocation reported by mallinfo(arena+hblkhd)
        100099 MiB available memory on the node where the printing process lives
------------------
     ethr =  3.55E-06,  avg # of iterations =  4.5

     total cpu time spent up to now is      740.6 secs

     total energy              =    -806.67117992 Ry
     estimated scf accuracy    <       0.00017268 Ry

     iteration #  8     ecut=    50.00 Ry     beta= 0.70
     Davidson diagonalization with overlap

---- Real-time Memory Report at c_bands before calling an iterative solver
           570 MiB given to the printing process from OS
             0 MiB allocation reported by mallinfo(arena+hblkhd)
        100092 MiB available memory on the node where the printing process lives
------------------
     ethr =  2.21E-07,  avg # of iterations =  6.1

     total cpu time spent up to now is      809.5 secs

     total energy              =    -806.67121041 Ry
     estimated scf accuracy    <       0.00010536 Ry

     iteration #  9     ecut=    50.00 Ry     beta= 0.70
     Davidson diagonalization with overlap

---- Real-time Memory Report at c_bands before calling an iterative solver
           570 MiB given to the printing process from OS
             0 MiB allocation reported by mallinfo(arena+hblkhd)
        100086 MiB available memory on the node where the printing process lives
------------------
     ethr =  1.35E-07,  avg # of iterations =  2.0

     total cpu time spent up to now is      862.2 secs

     total energy              =    -806.67120803 Ry
     estimated scf accuracy    <       0.00003909 Ry

     iteration # 10     ecut=    50.00 Ry     beta= 0.70
     Davidson diagonalization with overlap

---- Real-time Memory Report at c_bands before calling an iterative solver
           571 MiB given to the printing process from OS
             0 MiB allocation reported by mallinfo(arena+hblkhd)
        100079 MiB available memory on the node where the printing process lives
------------------
     ethr =  5.01E-08,  avg # of iterations =  5.2

     total cpu time spent up to now is      926.0 secs

     total energy              =    -806.67121315 Ry
     estimated scf accuracy    <       0.00000294 Ry

     iteration # 11     ecut=    50.00 Ry     beta= 0.70
     Davidson diagonalization with overlap

---- Real-time Memory Report at c_bands before calling an iterative solver
           572 MiB given to the printing process from OS
             0 MiB allocation reported by mallinfo(arena+hblkhd)
        100070 MiB available memory on the node where the printing process lives
------------------
     ethr =  3.77E-09,  avg # of iterations =  3.2

     total cpu time spent up to now is      982.5 secs

     total energy              =    -806.67121286 Ry
     estimated scf accuracy    <       0.00000303 Ry

     iteration # 12     ecut=    50.00 Ry     beta= 0.70
     Davidson diagonalization with overlap

---- Real-time Memory Report at c_bands before calling an iterative solver
           572 MiB given to the printing process from OS
             0 MiB allocation reported by mallinfo(arena+hblkhd)
        100070 MiB available memory on the node where the printing process lives
------------------
     ethr =  3.77E-09,  avg # of iterations =  4.7

     total cpu time spent up to now is     1042.7 secs

     End of self-consistent calculation

          k = 0.0000 0.0000 0.0000 ( 14667 PWs)   bands (ev):

   -35.5023 -35.5023 -35.5022 -35.5022 -35.4737 -35.4737 -35.4736 -35.4736
   -35.3937 -35.3937 -35.3602 -35.3602 -34.0430 -34.0430 -34.0429 -34.0429
   -34.0188 -34.0188 -34.0187 -34.0187 -34.0058 -34.0058 -34.0057 -34.0057
   -33.9313 -33.9313 -33.9160 -33.9160 -33.8876 -33.8876 -28.1353 -28.1353
   -28.1350 -28.1350 -28.1267 -28.1267 -28.1265 -28.1265 -26.8961 -26.8961
   -26.8958 -26.8958 -26.8866 -26.8866 -26.8864 -26.8864 -26.8848 -26.8848
   -26.8846 -26.8846 -10.6289 -10.6289 -10.0974 -10.0974  -9.0165  -9.0165
    -6.2633  -6.2633  -4.8681  -4.8681  -0.5047  -0.5047  -0.0256  -0.0256
     0.2364   0.2364   0.4955   0.4955   0.5723   0.5723   0.6831   0.6831
     0.9299   0.9299   1.2728   1.2728   1.4255   1.4255

     occupation numbers 
     1.0000   1.0000   1.0000   1.0000   1.0000   1.0000   1.0000   1.0000
     1.0000   1.0000   1.0000   1.0000   1.0000   1.0000   1.0000   1.0000
     1.0000   1.0000   1.0000   1.0000   1.0000   1.0000   1.0000   1.0000
     1.0000   1.0000   1.0000   1.0000   1.0000   1.0000   1.0000   1.0000
     1.0000   1.0000   1.0000   1.0000   1.0000   1.0000   1.0000   1.0000
     1.0000   1.0000   1.0000   1.0000   1.0000   1.0000   1.0000   1.0000
     1.0000   1.0000   1.0000   1.0000   1.0000   1.0000   1.0000   1.0000
     1.0000   1.0000   1.0000   1.0000   1.0000   1.0000   1.0000   1.0000
     1.0000   1.0000   1.0000   1.0000   1.0000   1.0000   1.0000   1.0000
     1.0000   1.0000   1.0000   1.0000   1.0000   1.0000

          k = 0.0000 0.0561 0.0000 ( 14646 PWs)   bands (ev):

   -35.5023 -35.5023 -35.5022 -35.5021 -35.4737 -35.4737 -35.4736 -35.4736
   -35.3937 -35.3937 -35.3602 -35.3602 -34.0430 -34.0430 -34.0428 -34.0428
   -34.0188 -34.0188 -34.0187 -34.0187 -34.0058 -34.0058 -34.0057 -34.0057
   -33.9313 -33.9313 -33.9160 -33.9160 -33.8876 -33.8876 -28.1352 -28.1352
   -28.1350 -28.1349 -28.1267 -28.1267 -28.1265 -28.1265 -26.8960 -26.8960
   -26.8957 -26.8957 -26.8866 -26.8865 -26.8864 -26.8863 -26.8849 -26.8848
   -26.8847 -26.8846 -10.6091 -10.6091 -10.0790 -10.0790  -9.0051  -9.0051
    -6.2653  -6.2653  -4.9001  -4.9001  -0.5336  -0.5334  -0.2003  -0.1998
     0.2047   0.2055   0.3137   0.3144   0.4155   0.4161   0.7119   0.7133
     0.9978   0.9984   1.2043   1.2047   1.5713   1.5718

     occupation numbers 
     1.0000   1.0000   1.0000   1.0000   1.0000   1.0000   1.0000   1.0000
     1.0000   1.0000   1.0000   1.0000   1.0000   1.0000   1.0000   1.0000
     1.0000   1.0000   1.0000   1.0000   1.0000   1.0000   1.0000   1.0000
     1.0000   1.0000   1.0000   1.0000   1.0000   1.0000   1.0000   1.0000
     1.0000   1.0000   1.0000   1.0000   1.0000   1.0000   1.0000   1.0000
     1.0000   1.0000   1.0000   1.0000   1.0000   1.0000   1.0000   1.0000
     1.0000   1.0000   1.0000   1.0000   1.0000   1.0000   1.0000   1.0000
     1.0000   1.0000   1.0000   1.0000   1.0000   1.0000   1.0000   1.0000
     1.0000   1.0000   1.0000   1.0000   1.0000   1.0000   1.0000   1.0000
     1.0000   1.0000   1.0000   1.0000   1.0000   1.0000

          k = 0.0000 0.1122 0.0000 ( 14666 PWs)   bands (ev):

   -35.5023 -35.5023 -35.5021 -35.5021 -35.4737 -35.4737 -35.4736 -35.4735
   -35.3937 -35.3937 -35.3601 -35.3601 -34.0430 -34.0430 -34.0428 -34.0428
   -34.0188 -34.0188 -34.0187 -34.0187 -34.0058 -34.0058 -34.0057 -34.0057
   -33.9313 -33.9313 -33.9160 -33.9160 -33.8876 -33.8876 -28.1352 -28.1352
   -28.1349 -28.1349 -28.1268 -28.1267 -28.1266 -28.1265 -26.8959 -26.8959
   -26.8956 -26.8956 -26.8866 -26.8866 -26.8864 -26.8864 -26.8849 -26.8848
   -26.8847 -26.8846 -10.5497 -10.5497 -10.0245 -10.0245  -8.9718  -8.9718
    -6.2733  -6.2733  -4.9964  -4.9964  -0.6760  -0.6757  -0.5161  -0.5155
    -0.1006  -0.0996   0.1116   0.1119   0.2684   0.2687   0.5309   0.5314
     0.9569   0.9573   1.3978   1.3981   1.6801   1.6806

     occupation numbers 
     1.0000   1.0000   1.0000   1.0000   1.0000   1.0000   1.0000   1.0000
     1.0000   1.0000   1.0000   1.0000   1.0000   1.0000   1.0000   1.0000
     1.0000   1.0000   1.0000   1.0000   1.0000   1.0000   1.0000   1.0000
     1.0000   1.0000   1.0000   1.0000   1.0000   1.0000   1.0000   1.0000
     1.0000   1.0000   1.0000   1.0000   1.0000   1.0000   1.0000   1.0000
     1.0000   1.0000   1.0000   1.0000   1.0000   1.0000   1.0000   1.0000
     1.0000   1.0000   1.0000   1.0000   1.0000   1.0000   1.0000   1.0000
     1.0000   1.0000   1.0000   1.0000   1.0000   1.0000   1.0000   1.0000
     1.0000   1.0000   1.0000   1.0000   1.0000   1.0000   1.0000   1.0000
     1.0000   1.0000   1.0000   1.0000   1.0000   1.0000

          k = 0.0000 0.1683 0.0000 ( 14653 PWs)   bands (ev):

   -35.5022 -35.5022 -35.5021 -35.5021 -35.4737 -35.4737 -35.4736 -35.4735
   -35.3937 -35.3937 -35.3601 -35.3601 -34.0429 -34.0429 -34.0427 -34.0427
   -34.0188 -34.0188 -34.0187 -34.0187 -34.0058 -34.0057 -34.0057 -34.0056
   -33.9313 -33.9313 -33.9160 -33.9160 -33.8875 -33.8875 -28.1351 -28.1351
   -28.1348 -28.1348 -28.1268 -28.1267 -28.1266 -28.1265 -26.8957 -26.8957
   -26.8954 -26.8954 -26.8867 -26.8866 -26.8865 -26.8864 -26.8850 -26.8848
   -26.8847 -26.8845 -10.4516 -10.4516  -9.9349  -9.9349  -8.9189  -8.9189
    -6.2933  -6.2933  -5.1558  -5.1557  -1.0839  -1.0837  -0.6921  -0.6918
    -0.4504  -0.4495  -0.1035  -0.1033   0.0351   0.0353   0.3746   0.3752
     0.9531   0.9535   1.4002   1.4006   1.6482   1.6486

     occupation numbers 
     1.0000   1.0000   1.0000   1.0000   1.0000   1.0000   1.0000   1.0000
     1.0000   1.0000   1.0000   1.0000   1.0000   1.0000   1.0000   1.0000
     1.0000   1.0000   1.0000   1.0000   1.0000   1.0000   1.0000   1.0000
     1.0000   1.0000   1.0000   1.0000   1.0000   1.0000   1.0000   1.0000
     1.0000   1.0000   1.0000   1.0000   1.0000   1.0000   1.0000   1.0000
     1.0000   1.0000   1.0000   1.0000   1.0000   1.0000   1.0000   1.0000
     1.0000   1.0000   1.0000   1.0000   1.0000   1.0000   1.0000   1.0000
     1.0000   1.0000   1.0000   1.0000   1.0000   1.0000   1.0000   1.0000
     1.0000   1.0000   1.0000   1.0000   1.0000   1.0000   1.0000   1.0000
     1.0000   1.0000   1.0000   1.0000   1.0000   1.0000

          k = 0.0000 0.2243 0.0000 ( 14643 PWs)   bands (ev):

   -35.5022 -35.5022 -35.5020 -35.5020 -35.4737 -35.4736 -35.4736 -35.4735
   -35.3937 -35.3937 -35.3600 -35.3600 -34.0428 -34.0428 -34.0426 -34.0426
   -34.0188 -34.0188 -34.0187 -34.0187 -34.0057 -34.0057 -34.0056 -34.0056
   -33.9312 -33.9312 -33.9160 -33.9160 -33.8874 -33.8874 -28.1350 -28.1349
   -28.1347 -28.1347 -28.1269 -28.1267 -28.1266 -28.1265 -26.8955 -26.8955
   -26.8952 -26.8952 -26.8868 -26.8867 -26.8866 -26.8865 -26.8850 -26.8848
   -26.8847 -26.8845 -10.3161 -10.3161  -9.8126  -9.8126  -8.8510  -8.8510
    -6.3354  -6.3354  -5.3724  -5.3724  -1.5366  -1.5364  -0.8520  -0.8516
    -0.7999  -0.7996  -0.3535  -0.3532  -0.1629  -0.1626   0.3030   0.3036
     0.8480   0.8488   1.1374   1.1381   1.7530   1.7533

     occupation numbers 
     1.0000   1.0000   1.0000   1.0000   1.0000   1.0000   1.0000   1.0000
     1.0000   1.0000   1.0000   1.0000   1.0000   1.0000   1.0000   1.0000
     1.0000   1.0000   1.0000   1.0000   1.0000   1.0000   1.0000   1.0000
     1.0000   1.0000   1.0000   1.0000   1.0000   1.0000   1.0000   1.0000
     1.0000   1.0000   1.0000   1.0000   1.0000   1.0000   1.0000   1.0000
     1.0000   1.0000   1.0000   1.0000   1.0000   1.0000   1.0000   1.0000
     1.0000   1.0000   1.0000   1.0000   1.0000   1.0000   1.0000   1.0000
     1.0000   1.0000   1.0000   1.0000   1.0000   1.0000   1.0000   1.0000
     1.0000   1.0000   1.0000   1.0000   1.0000   1.0000   1.0000   1.0000
     1.0000   1.0000   1.0000   1.0000   1.0000   1.0000

          k = 0.0000 0.2804 0.0000 ( 14651 PWs)   bands (ev):

   -35.5021 -35.5021 -35.5019 -35.5019 -35.4737 -35.4736 -35.4735 -35.4735
   -35.3937 -35.3937 -35.3599 -35.3599 -34.0427 -34.0427 -34.0425 -34.0425
   -34.0188 -34.0188 -34.0187 -34.0187 -34.0057 -34.0056 -34.0056 -34.0055
   -33.9312 -33.9312 -33.9160 -33.9160 -33.8873 -33.8873 -28.1348 -28.1348
   -28.1346 -28.1346 -28.1269 -28.1268 -28.1266 -28.1265 -26.8952 -26.8952
   -26.8950 -26.8950 -26.8869 -26.8868 -26.8867 -26.8866 -26.8849 -26.8848
   -26.8846 -26.8845 -10.1453 -10.1453  -9.6611  -9.6611  -8.7750  -8.7750
    -6.4122  -6.4122  -5.6325  -5.6325  -1.9516  -1.9515  -1.1537  -1.1531
    -0.9829  -0.9822  -0.5755  -0.5751  -0.3347  -0.3344   0.2656   0.2661
     0.5776   0.5781   1.0278   1.0282   1.7134   1.7137

     occupation numbers 
     1.0000   1.0000   1.0000   1.0000   1.0000   1.0000   1.0000   1.0000
     1.0000   1.0000   1.0000   1.0000   1.0000   1.0000   1.0000   1.0000
     1.0000   1.0000   1.0000   1.0000   1.0000   1.0000   1.0000   1.0000
     1.0000   1.0000   1.0000   1.0000   1.0000   1.0000   1.0000   1.0000
     1.0000   1.0000   1.0000   1.0000   1.0000   1.0000   1.0000   1.0000
     1.0000   1.0000   1.0000   1.0000   1.0000   1.0000   1.0000   1.0000
     1.0000   1.0000   1.0000   1.0000   1.0000   1.0000   1.0000   1.0000
     1.0000   1.0000   1.0000   1.0000   1.0000   1.0000   1.0000   1.0000
     1.0000   1.0000   1.0000   1.0000   1.0000   1.0000   1.0000   1.0000
     1.0000   1.0000   1.0000   1.0000   1.0000   1.0000

          k = 0.0000 0.3365 0.0000 ( 14676 PWs)   bands (ev):

   -35.5020 -35.5020 -35.5019 -35.5019 -35.4736 -35.4736 -35.4735 -35.4735
   -35.3937 -35.3937 -35.3599 -35.3599 -34.0426 -34.0425 -34.0424 -34.0423
   -34.0188 -34.0188 -34.0187 -34.0187 -34.0056 -34.0056 -34.0055 -34.0054
   -33.9312 -33.9312 -33.9160 -33.9160 -33.8871 -33.8871 -28.1347 -28.1347
   -28.1345 -28.1344 -28.1269 -28.1268 -28.1267 -28.1265 -26.8950 -26.8949
   -26.8947 -26.8947 -26.8870 -26.8869 -26.8868 -26.8867 -26.8849 -26.8847
   -26.8845 -26.8844  -9.9427  -9.9427  -9.4862  -9.4862  -8.7012  -8.7012
    -6.5361  -6.5361  -5.9128  -5.9127  -2.3058  -2.3057  -1.4417  -1.4413
    -1.1194  -1.1188  -0.7445  -0.7440  -0.4999  -0.4997   0.1656   0.1658
     0.3769   0.3771   0.9707   0.9709   1.5588   1.5591

     occupation numbers 
     1.0000   1.0000   1.0000   1.0000   1.0000   1.0000   1.0000   1.0000
     1.0000   1.0000   1.0000   1.0000   1.0000   1.0000   1.0000   1.0000
     1.0000   1.0000   1.0000   1.0000   1.0000   1.0000   1.0000   1.0000
     1.0000   1.0000   1.0000   1.0000   1.0000   1.0000   1.0000   1.0000
     1.0000   1.0000   1.0000   1.0000   1.0000   1.0000   1.0000   1.0000
     1.0000   1.0000   1.0000   1.0000   1.0000   1.0000   1.0000   1.0000
     1.0000   1.0000   1.0000   1.0000   1.0000   1.0000   1.0000   1.0000
     1.0000   1.0000   1.0000   1.0000   1.0000   1.0000   1.0000   1.0000
     1.0000   1.0000   1.0000   1.0000   1.0000   1.0000   1.0000   1.0000
     1.0000   1.0000   1.0000   1.0000   1.0000   1.0000

          k = 0.0000 0.3926 0.0000 ( 14691 PWs)   bands (ev):

   -35.5020 -35.5020 -35.5018 -35.5018 -35.4736 -35.4736 -35.4735 -35.4734
   -35.3937 -35.3937 -35.3598 -35.3598 -34.0424 -34.0424 -34.0423 -34.0422
   -34.0188 -34.0188 -34.0187 -34.0187 -34.0056 -34.0055 -34.0054 -34.0054
   -33.9311 -33.9311 -33.9160 -33.9160 -33.8870 -33.8870 -28.1346 -28.1345
   -28.1343 -28.1343 -28.1270 -28.1268 -28.1267 -28.1266 -26.8947 -26.8947
   -26.8945 -26.8945 -26.8871 -26.8870 -26.8869 -26.8868 -26.8848 -26.8847
   -26.8844 -26.8843  -9.7134  -9.7134  -9.2974  -9.2974  -8.6444  -8.6444
    -6.7111  -6.7111  -6.1828  -6.1828  -2.5920  -2.5919  -1.6525  -1.6522
    -1.2511  -1.2505  -0.8739  -0.8734  -0.6520  -0.6518  -0.0260  -0.0257
     0.3310   0.3314   0.9313   0.9316   1.3716   1.3719

     occupation numbers 
     1.0000   1.0000   1.0000   1.0000   1.0000   1.0000   1.0000   1.0000
     1.0000   1.0000   1.0000   1.0000   1.0000   1.0000   1.0000   1.0000
     1.0000   1.0000   1.0000   1.0000   1.0000   1.0000   1.0000   1.0000
     1.0000   1.0000   1.0000   1.0000   1.0000   1.0000   1.0000   1.0000
     1.0000   1.0000   1.0000   1.0000   1.0000   1.0000   1.0000   1.0000
     1.0000   1.0000   1.0000   1.0000   1.0000   1.0000   1.0000   1.0000
     1.0000   1.0000   1.0000   1.0000   1.0000   1.0000   1.0000   1.0000
     1.0000   1.0000   1.0000   1.0000   1.0000   1.0000   1.0000   1.0000
     1.0000   1.0000   1.0000   1.0000   1.0000   1.0000   1.0000   1.0000
     1.0000   1.0000   1.0000   1.0000   1.0000   1.0000

          k = 0.0000 0.4487 0.0000 ( 14689 PWs)   bands (ev):

   -35.5019 -35.5019 -35.5017 -35.5017 -35.4736 -35.4736 -35.4735 -35.4734
   -35.3937 -35.3937 -35.3598 -35.3598 -34.0423 -34.0423 -34.0422 -34.0421
   -34.0188 -34.0188 -34.0187 -34.0187 -34.0055 -34.0055 -34.0054 -34.0053
   -33.9311 -33.9311 -33.9160 -33.9160 -33.8869 -33.8869 -28.1345 -28.1344
   -28.1342 -28.1342 -28.1270 -28.1269 -28.1267 -28.1266 -26.8946 -26.8945
   -26.8944 -26.8943 -26.8871 -26.8871 -26.8869 -26.8869 -26.8847 -26.8846
   -26.8844 -26.8843  -9.4657  -9.4657  -9.1098  -9.1098  -8.6250  -8.6250
    -6.9186  -6.9185  -6.4155  -6.4155  -2.8103  -2.8103  -1.7699  -1.7696
    -1.3784  -1.3779  -0.9994  -0.9990  -0.7686  -0.7684  -0.1566  -0.1563
     0.2977   0.2981   0.9091   0.9093   1.2104   1.2106

     occupation numbers 
     1.0000   1.0000   1.0000   1.0000   1.0000   1.0000   1.0000   1.0000
     1.0000   1.0000   1.0000   1.0000   1.0000   1.0000   1.0000   1.0000
     1.0000   1.0000   1.0000   1.0000   1.0000   1.0000   1.0000   1.0000
     1.0000   1.0000   1.0000   1.0000   1.0000   1.0000   1.0000   1.0000
     1.0000   1.0000   1.0000   1.0000   1.0000   1.0000   1.0000   1.0000
     1.0000   1.0000   1.0000   1.0000   1.0000   1.0000   1.0000   1.0000
     1.0000   1.0000   1.0000   1.0000   1.0000   1.0000   1.0000   1.0000
     1.0000   1.0000   1.0000   1.0000   1.0000   1.0000   1.0000   1.0000
     1.0000   1.0000   1.0000   1.0000   1.0000   1.0000   1.0000   1.0000
     1.0000   1.0000   1.0000   1.0000   1.0000   1.0000

          k = 0.0000 0.5048 0.0000 ( 14693 PWs)   bands (ev):

   -35.5019 -35.5019 -35.5017 -35.5017 -35.4736 -35.4736 -35.4735 -35.4734
   -35.3937 -35.3937 -35.3597 -35.3597 -34.0423 -34.0423 -34.0421 -34.0421
   -34.0188 -34.0188 -34.0187 -34.0187 -34.0055 -34.0054 -34.0053 -34.0053
   -33.9311 -33.9311 -33.9160 -33.9160 -33.8868 -33.8868 -28.1344 -28.1344
   -28.1342 -28.1341 -28.1270 -28.1269 -28.1267 -28.1267 -26.8944 -26.8944
   -26.8942 -26.8942 -26.8872 -26.8872 -26.8870 -26.8869 -26.8846 -26.8846
   -26.8843 -26.8842  -9.2130  -9.2130  -8.9488  -8.9488  -8.6666  -8.6666
    -7.1105  -7.1105  -6.5909  -6.5909  -2.9601  -2.9600  -1.7937  -1.7934
    -1.5037  -1.5033  -1.1212  -1.1210  -0.8365  -0.8363  -0.2088  -0.2086
     0.2514   0.2517   0.8946   0.8948   1.1080   1.1082

     occupation numbers 
     1.0000   1.0000   1.0000   1.0000   1.0000   1.0000   1.0000   1.0000
     1.0000   1.0000   1.0000   1.0000   1.0000   1.0000   1.0000   1.0000
     1.0000   1.0000   1.0000   1.0000   1.0000   1.0000   1.0000   1.0000
     1.0000   1.0000   1.0000   1.0000   1.0000   1.0000   1.0000   1.0000
     1.0000   1.0000   1.0000   1.0000   1.0000   1.0000   1.0000   1.0000
     1.0000   1.0000   1.0000   1.0000   1.0000   1.0000   1.0000   1.0000
     1.0000   1.0000   1.0000   1.0000   1.0000   1.0000   1.0000   1.0000
     1.0000   1.0000   1.0000   1.0000   1.0000   1.0000   1.0000   1.0000
     1.0000   1.0000   1.0000   1.0000   1.0000   1.0000   1.0000   1.0000
     1.0000   1.0000   1.0000   1.0000   1.0000   1.0000

          k = 0.0000 0.5609 0.0000 ( 14698 PWs)   bands (ev):

   -35.5019 -35.5019 -35.5017 -35.5017 -35.4736 -35.4736 -35.4734 -35.4734
   -35.3937 -35.3937 -35.3597 -35.3597 -34.0422 -34.0422 -34.0420 -34.0420
   -34.0188 -34.0188 -34.0187 -34.0187 -34.0054 -34.0054 -34.0053 -34.0053
   -33.9311 -33.9311 -33.9160 -33.9160 -33.8868 -33.8868 -28.1343 -28.1343
   -28.1341 -28.1341 -28.1270 -28.1269 -28.1267 -28.1267 -26.8944 -26.8944
   -26.8942 -26.8942 -26.8872 -26.8872 -26.8870 -26.8870 -26.8846 -26.8846
   -26.8842 -26.8842  -8.9767  -8.9767  -8.8513  -8.8513  -8.7857  -8.7857
    -7.2277  -7.2277  -6.6877  -6.6877  -3.0371  -3.0371  -1.7415  -1.7413
    -1.6260  -1.6257  -1.1948  -1.1947  -0.8671  -0.8670  -0.2167  -0.2166
     0.2132   0.2133   0.8815   0.8815   1.0680   1.0680

     occupation numbers 
     1.0000   1.0000   1.0000   1.0000   1.0000   1.0000   1.0000   1.0000
     1.0000   1.0000   1.0000   1.0000   1.0000   1.0000   1.0000   1.0000
     1.0000   1.0000   1.0000   1.0000   1.0000   1.0000   1.0000   1.0000
     1.0000   1.0000   1.0000   1.0000   1.0000   1.0000   1.0000   1.0000
     1.0000   1.0000   1.0000   1.0000   1.0000   1.0000   1.0000   1.0000
     1.0000   1.0000   1.0000   1.0000   1.0000   1.0000   1.0000   1.0000
     1.0000   1.0000   1.0000   1.0000   1.0000   1.0000   1.0000   1.0000
     1.0000   1.0000   1.0000   1.0000   1.0000   1.0000   1.0000   1.0000
     1.0000   1.0000   1.0000   1.0000   1.0000   1.0000   1.0000   1.0000
     1.0000   1.0000   1.0000   1.0000   1.0000   1.0000

          k = 0.0476 0.0275 0.0000 ( 14654 PWs)   bands (ev):

   -35.5023 -35.5023 -35.5022 -35.5021 -35.4737 -35.4737 -35.4736 -35.4736
   -35.3937 -35.3937 -35.3602 -35.3602 -34.0430 -34.0430 -34.0428 -34.0428
   -34.0188 -34.0188 -34.0187 -34.0187 -34.0058 -34.0058 -34.0057 -34.0057
   -33.9313 -33.9313 -33.9160 -33.9160 -33.8876 -33.8876 -28.1352 -28.1352
   -28.1350 -28.1350 -28.1267 -28.1267 -28.1265 -28.1265 -26.8960 -26.8960
   -26.8957 -26.8957 -26.8866 -26.8865 -26.8864 -26.8864 -26.8848 -26.8848
   -26.8846 -26.8846 -10.6098 -10.6098 -10.0798 -10.0798  -9.0058  -9.0058
    -6.2663  -6.2663  -4.9026  -4.9026  -0.5387  -0.5384  -0.2368  -0.2362
     0.2197   0.2201   0.2840   0.2851   0.4668   0.4675   0.7384   0.7401
     1.0044   1.0053   1.2112   1.2120   1.5632   1.5637

     occupation numbers 
     1.0000   1.0000   1.0000   1.0000   1.0000   1.0000   1.0000   1.0000
     1.0000   1.0000   1.0000   1.0000   1.0000   1.0000   1.0000   1.0000
     1.0000   1.0000   1.0000   1.0000   1.0000   1.0000   1.0000   1.0000
     1.0000   1.0000   1.0000   1.0000   1.0000   1.0000   1.0000   1.0000
     1.0000   1.0000   1.0000   1.0000   1.0000   1.0000   1.0000   1.0000
     1.0000   1.0000   1.0000   1.0000   1.0000   1.0000   1.0000   1.0000
     1.0000   1.0000   1.0000   1.0000   1.0000   1.0000   1.0000   1.0000
     1.0000   1.0000   1.0000   1.0000   1.0000   1.0000   1.0000   1.0000
     1.0000   1.0000   1.0000   1.0000   1.0000   1.0000   1.0000   1.0000
     1.0000   1.0000   1.0000   1.0000   1.0000   1.0000

          k = 0.0476 0.0836 0.0000 ( 14653 PWs)   bands (ev):

   -35.5023 -35.5023 -35.5021 -35.5021 -35.4737 -35.4737 -35.4736 -35.4736
   -35.3937 -35.3937 -35.3601 -35.3601 -34.0430 -34.0430 -34.0428 -34.0428
   -34.0188 -34.0188 -34.0187 -34.0187 -34.0058 -34.0058 -34.0057 -34.0057
   -33.9313 -33.9313 -33.9160 -33.9160 -33.8876 -33.8876 -28.1352 -28.1352
   -28.1349 -28.1349 -28.1267 -28.1267 -28.1265 -28.1265 -26.8959 -26.8959
   -26.8957 -26.8957 -26.8866 -26.8866 -26.8864 -26.8864 -26.8849 -26.8848
   -26.8847 -26.8846 -10.5706 -10.5706 -10.0438 -10.0438  -8.9838  -8.9838
    -6.2718  -6.2718  -4.9680  -4.9680  -0.6193  -0.6188  -0.4678  -0.4669
    -0.0491  -0.0484   0.1934   0.1942   0.3629   0.3634   0.6182   0.6190
     0.9759   0.9762   1.3243   1.3246   1.6801   1.6805

     occupation numbers 
     1.0000   1.0000   1.0000   1.0000   1.0000   1.0000   1.0000   1.0000
     1.0000   1.0000   1.0000   1.0000   1.0000   1.0000   1.0000   1.0000
     1.0000   1.0000   1.0000   1.0000   1.0000   1.0000   1.0000   1.0000
     1.0000   1.0000   1.0000   1.0000   1.0000   1.0000   1.0000   1.0000
     1.0000   1.0000   1.0000   1.0000   1.0000   1.0000   1.0000   1.0000
     1.0000   1.0000   1.0000   1.0000   1.0000   1.0000   1.0000   1.0000
     1.0000   1.0000   1.0000   1.0000   1.0000   1.0000   1.0000   1.0000
     1.0000   1.0000   1.0000   1.0000   1.0000   1.0000   1.0000   1.0000
     1.0000   1.0000   1.0000   1.0000   1.0000   1.0000   1.0000   1.0000
     1.0000   1.0000   1.0000   1.0000   1.0000   1.0000

          k = 0.0476 0.1397 0.0000 ( 14641 PWs)   bands (ev):

   -35.5023 -35.5023 -35.5021 -35.5021 -35.4737 -35.4737 -35.4736 -35.4735
   -35.3937 -35.3937 -35.3601 -35.3601 -34.0429 -34.0429 -34.0427 -34.0427
   -34.0188 -34.0188 -34.0187 -34.0187 -34.0058 -34.0058 -34.0057 -34.0056
   -33.9313 -33.9313 -33.9160 -33.9160 -33.8875 -33.8875 -28.1351 -28.1351
   -28.1349 -28.1348 -28.1268 -28.1267 -28.1266 -28.1265 -26.8958 -26.8958
   -26.8955 -26.8955 -26.8867 -26.8866 -26.8865 -26.8864 -26.8849 -26.8848
   -26.8847 -26.8845 -10.4922 -10.4922  -9.9721  -9.9721  -8.9410  -8.9410
    -6.2862  -6.2862  -5.0968  -5.0968  -0.9073  -0.9071  -0.6585  -0.6583
    -0.4086  -0.4081  -0.0347  -0.0340   0.2393   0.2396   0.4552   0.4556
     0.8912   0.8916   1.5042   1.5045   1.6471   1.6475

     occupation numbers 
     1.0000   1.0000   1.0000   1.0000   1.0000   1.0000   1.0000   1.0000
     1.0000   1.0000   1.0000   1.0000   1.0000   1.0000   1.0000   1.0000
     1.0000   1.0000   1.0000   1.0000   1.0000   1.0000   1.0000   1.0000
     1.0000   1.0000   1.0000   1.0000   1.0000   1.0000   1.0000   1.0000
     1.0000   1.0000   1.0000   1.0000   1.0000   1.0000   1.0000   1.0000
     1.0000   1.0000   1.0000   1.0000   1.0000   1.0000   1.0000   1.0000
     1.0000   1.0000   1.0000   1.0000   1.0000   1.0000   1.0000   1.0000
     1.0000   1.0000   1.0000   1.0000   1.0000   1.0000   1.0000   1.0000
     1.0000   1.0000   1.0000   1.0000   1.0000   1.0000   1.0000   1.0000
     1.0000   1.0000   1.0000   1.0000   1.0000   1.0000

          k = 0.0476 0.1958 0.0000 ( 14641 PWs)   bands (ev):

   -35.5022 -35.5022 -35.5020 -35.5020 -35.4737 -35.4736 -35.4736 -35.4735
   -35.3937 -35.3937 -35.3600 -35.3600 -34.0428 -34.0428 -34.0426 -34.0426
   -34.0188 -34.0188 -34.0187 -34.0187 -34.0058 -34.0057 -34.0056 -34.0056
   -33.9313 -33.9313 -33.9160 -33.9160 -33.8874 -33.8874 -28.1350 -28.1350
   -28.1348 -28.1347 -28.1268 -28.1267 -28.1266 -28.1265 -26.8956 -26.8956
   -26.8953 -26.8953 -26.8868 -26.8866 -26.8866 -26.8864 -26.8849 -26.8848
   -26.8847 -26.8845 -10.3757 -10.3757  -9.8665  -9.8665  -8.8807  -8.8807
    -6.3171  -6.3171  -5.2859  -5.2858  -1.3237  -1.3234  -0.8476  -0.8475
    -0.7136  -0.7134  -0.2693  -0.2688   0.0251   0.0254   0.2994   0.2999
     0.8659   0.8663   1.3233   1.3236   1.7290   1.7293

     occupation numbers 
     1.0000   1.0000   1.0000   1.0000   1.0000   1.0000   1.0000   1.0000
     1.0000   1.0000   1.0000   1.0000   1.0000   1.0000   1.0000   1.0000
     1.0000   1.0000   1.0000   1.0000   1.0000   1.0000   1.0000   1.0000
     1.0000   1.0000   1.0000   1.0000   1.0000   1.0000   1.0000   1.0000
     1.0000   1.0000   1.0000   1.0000   1.0000   1.0000   1.0000   1.0000
     1.0000   1.0000   1.0000   1.0000   1.0000   1.0000   1.0000   1.0000
     1.0000   1.0000   1.0000   1.0000   1.0000   1.0000   1.0000   1.0000
     1.0000   1.0000   1.0000   1.0000   1.0000   1.0000   1.0000   1.0000
     1.0000   1.0000   1.0000   1.0000   1.0000   1.0000   1.0000   1.0000
     1.0000   1.0000   1.0000   1.0000   1.0000   1.0000

          k = 0.0476 0.2518 0.0000 ( 14647 PWs)   bands (ev):

   -35.5022 -35.5021 -35.5020 -35.5020 -35.4737 -35.4736 -35.4735 -35.4735
   -35.3937 -35.3937 -35.3600 -35.3600 -34.0427 -34.0427 -34.0425 -34.0425
   -34.0188 -34.0188 -34.0187 -34.0187 -34.0057 -34.0057 -34.0056 -34.0055
   -33.9312 -33.9312 -33.9160 -33.9160 -33.8873 -33.8873 -28.1349 -28.1349
   -28.1347 -28.1346 -28.1269 -28.1267 -28.1266 -28.1265 -26.8953 -26.8953
   -26.8951 -26.8951 -26.8869 -26.8867 -26.8867 -26.8865 -26.8849 -26.8848
   -26.8846 -26.8845 -10.2228 -10.2228  -9.7298  -9.7298  -8.8086  -8.8086
    -6.3756  -6.3756  -5.5256  -5.5256  -1.7442  -1.7440  -1.1269  -1.1266
    -0.8917  -0.8913  -0.5062  -0.5056  -0.2215  -0.2212   0.2183   0.2187
     0.7856   0.7859   1.0824   1.0827   1.7499   1.7502

     occupation numbers 
     1.0000   1.0000   1.0000   1.0000   1.0000   1.0000   1.0000   1.0000
     1.0000   1.0000   1.0000   1.0000   1.0000   1.0000   1.0000   1.0000
     1.0000   1.0000   1.0000   1.0000   1.0000   1.0000   1.0000   1.0000
     1.0000   1.0000   1.0000   1.0000   1.0000   1.0000   1.0000   1.0000
     1.0000   1.0000   1.0000   1.0000   1.0000   1.0000   1.0000   1.0000
     1.0000   1.0000   1.0000   1.0000   1.0000   1.0000   1.0000   1.0000
     1.0000   1.0000   1.0000   1.0000   1.0000   1.0000   1.0000   1.0000
     1.0000   1.0000   1.0000   1.0000   1.0000   1.0000   1.0000   1.0000
     1.0000   1.0000   1.0000   1.0000   1.0000   1.0000   1.0000   1.0000
     1.0000   1.0000   1.0000   1.0000   1.0000   1.0000

          k = 0.0476 0.3079 0.0000 ( 14647 PWs)   bands (ev):

   -35.5021 -35.5021 -35.5019 -35.5019 -35.4736 -35.4736 -35.4735 -35.4735
   -35.3937 -35.3937 -35.3599 -35.3599 -34.0426 -34.0426 -34.0424 -34.0424
   -34.0188 -34.0188 -34.0187 -34.0187 -34.0057 -34.0056 -34.0055 -34.0055
   -33.9312 -33.9312 -33.9160 -33.9160 -33.8872 -33.8872 -28.1348 -28.1347
   -28.1346 -28.1345 -28.1269 -28.1268 -28.1267 -28.1265 -26.8951 -26.8950
   -26.8949 -26.8948 -26.8870 -26.8868 -26.8868 -26.8866 -26.8849 -26.8847
   -26.8846 -26.8844 -10.0363 -10.0363  -9.5664  -9.5664  -8.7328  -8.7328
    -6.4744  -6.4744  -5.7980  -5.7980  -2.1244  -2.1242  -1.3890  -1.3888
    -1.0407  -1.0401  -0.7381  -0.7375  -0.4103  -0.4102   0.1407   0.1409
     0.6024   0.6027   0.9633   0.9634   1.6584   1.6587

     occupation numbers 
     1.0000   1.0000   1.0000   1.0000   1.0000   1.0000   1.0000   1.0000
     1.0000   1.0000   1.0000   1.0000   1.0000   1.0000   1.0000   1.0000
     1.0000   1.0000   1.0000   1.0000   1.0000   1.0000   1.0000   1.0000
     1.0000   1.0000   1.0000   1.0000   1.0000   1.0000   1.0000   1.0000
     1.0000   1.0000   1.0000   1.0000   1.0000   1.0000   1.0000   1.0000
     1.0000   1.0000   1.0000   1.0000   1.0000   1.0000   1.0000   1.0000
     1.0000   1.0000   1.0000   1.0000   1.0000   1.0000   1.0000   1.0000
     1.0000   1.0000   1.0000   1.0000   1.0000   1.0000   1.0000   1.0000
     1.0000   1.0000   1.0000   1.0000   1.0000   1.0000   1.0000   1.0000
     1.0000   1.0000   1.0000   1.0000   1.0000   1.0000

          k = 0.0476 0.3640 0.0000 ( 14680 PWs)   bands (ev):

   -35.5020 -35.5020 -35.5018 -35.5018 -35.4736 -35.4736 -35.4735 -35.4735
   -35.3937 -35.3937 -35.3598 -35.3598 -34.0425 -34.0425 -34.0423 -34.0423
   -34.0188 -34.0188 -34.0187 -34.0187 -34.0056 -34.0055 -34.0055 -34.0054
   -33.9311 -33.9311 -33.9160 -33.9160 -33.8871 -33.8871 -28.1347 -28.1346
   -28.1344 -28.1343 -28.1269 -28.1268 -28.1267 -28.1266 -26.8949 -26.8948
   -26.8947 -26.8946 -26.8871 -26.8869 -26.8869 -26.8867 -26.8848 -26.8847
   -26.8845 -26.8844  -9.8202  -9.8202  -9.3839  -9.3839  -8.6656  -8.6656
    -6.6227  -6.6227  -6.0763  -6.0763  -2.4442  -2.4441  -1.5942  -1.5940
    -1.1992  -1.1986  -0.9273  -0.9270  -0.5407  -0.5406   0.0117   0.0120
     0.4442   0.4448   0.9172   0.9174   1.5004   1.5007

     occupation numbers 
     1.0000   1.0000   1.0000   1.0000   1.0000   1.0000   1.0000   1.0000
     1.0000   1.0000   1.0000   1.0000   1.0000   1.0000   1.0000   1.0000
     1.0000   1.0000   1.0000   1.0000   1.0000   1.0000   1.0000   1.0000
     1.0000   1.0000   1.0000   1.0000   1.0000   1.0000   1.0000   1.0000
     1.0000   1.0000   1.0000   1.0000   1.0000   1.0000   1.0000   1.0000
     1.0000   1.0000   1.0000   1.0000   1.0000   1.0000   1.0000   1.0000
     1.0000   1.0000   1.0000   1.0000   1.0000   1.0000   1.0000   1.0000
     1.0000   1.0000   1.0000   1.0000   1.0000   1.0000   1.0000   1.0000
     1.0000   1.0000   1.0000   1.0000   1.0000   1.0000   1.0000   1.0000
     1.0000   1.0000   1.0000   1.0000   1.0000   1.0000

          k = 0.0476 0.4201 0.0000 ( 14699 PWs)   bands (ev):

   -35.5020 -35.5019 -35.5018 -35.5018 -35.4736 -35.4736 -35.4735 -35.4734
   -35.3937 -35.3937 -35.3598 -35.3598 -34.0424 -34.0424 -34.0422 -34.0422
   -34.0188 -34.0188 -34.0187 -34.0187 -34.0055 -34.0055 -34.0054 -34.0054
   -33.9311 -33.9311 -33.9160 -33.9160 -33.8870 -33.8870 -28.1346 -28.1344
   -28.1343 -28.1342 -28.1270 -28.1269 -28.1267 -28.1266 -26.8947 -26.8946
   -26.8945 -26.8944 -26.8872 -26.8870 -26.8869 -26.8868 -26.8847 -26.8846
   -26.8844 -26.8843  -9.5811  -9.5811  -9.1939  -9.1938  -8.6242  -8.6242
    -6.8163  -6.8163  -6.3299  -6.3299  -2.6971  -2.6970  -1.7289  -1.7287
    -1.3565  -1.3561  -1.0716  -1.0714  -0.6374  -0.6372  -0.1437  -0.1433
     0.3621   0.3628   0.8970   0.8972   1.3317   1.3319

     occupation numbers 
     1.0000   1.0000   1.0000   1.0000   1.0000   1.0000   1.0000   1.0000
     1.0000   1.0000   1.0000   1.0000   1.0000   1.0000   1.0000   1.0000
     1.0000   1.0000   1.0000   1.0000   1.0000   1.0000   1.0000   1.0000
     1.0000   1.0000   1.0000   1.0000   1.0000   1.0000   1.0000   1.0000
     1.0000   1.0000   1.0000   1.0000   1.0000   1.0000   1.0000   1.0000
     1.0000   1.0000   1.0000   1.0000   1.0000   1.0000   1.0000   1.0000
     1.0000   1.0000   1.0000   1.0000   1.0000   1.0000   1.0000   1.0000
     1.0000   1.0000   1.0000   1.0000   1.0000   1.0000   1.0000   1.0000
     1.0000   1.0000   1.0000   1.0000   1.0000   1.0000   1.0000   1.0000
     1.0000   1.0000   1.0000   1.0000   1.0000   1.0000

          k = 0.0476 0.4762 0.0000 ( 14687 PWs)   bands (ev):

   -35.5019 -35.5019 -35.5017 -35.5017 -35.4736 -35.4736 -35.4735 -35.4734
   -35.3937 -35.3937 -35.3597 -35.3597 -34.0423 -34.0423 -34.0421 -34.0421
   -34.0188 -34.0188 -34.0187 -34.0187 -34.0055 -34.0055 -34.0054 -34.0053
   -33.9311 -33.9311 -33.9160 -33.9160 -33.8869 -33.8869 -28.1345 -28.1343
   -28.1342 -28.1341 -28.1270 -28.1269 -28.1267 -28.1266 -26.8945 -26.8944
   -26.8943 -26.8942 -26.8872 -26.8871 -26.8870 -26.8869 -26.8847 -26.8846
   -26.8843 -26.8843  -9.3295  -9.3295  -9.0159  -9.0159  -8.6309  -8.6308
    -7.0224  -7.0223  -6.5356  -6.5356  -2.8814  -2.8813  -1.7893  -1.7892
[...]
   -26.8841 -26.8841  -8.8976  -8.8975  -8.8863  -8.8863  -8.8578  -8.8578
    -7.2656  -7.2656  -6.7254  -6.7254  -3.0297  -3.0297  -1.7426  -1.7415
    -1.6503  -1.6492  -1.2500  -1.2494  -0.7733  -0.7725  -0.2648  -0.2642
     0.3121   0.3125   0.9123   0.9124   1.1743   1.1744

     occupation numbers 
     1.0000   1.0000   1.0000   1.0000   1.0000   1.0000   1.0000   1.0000
     1.0000   1.0000   1.0000   1.0000   1.0000   1.0000   1.0000   1.0000
     1.0000   1.0000   1.0000   1.0000   1.0000   1.0000   1.0000   1.0000
     1.0000   1.0000   1.0000   1.0000   1.0000   1.0000   1.0000   1.0000
     1.0000   1.0000   1.0000   1.0000   1.0000   1.0000   1.0000   1.0000
     1.0000   1.0000   1.0000   1.0000   1.0000   1.0000   1.0000   1.0000
     1.0000   1.0000   1.0000   1.0000   1.0000   1.0000   1.0000   1.0000
     1.0000   1.0000   1.0000   1.0000   1.0000   1.0000   1.0000   1.0000
     1.0000   1.0000   1.0000   1.0000   1.0000   1.0000   1.0000   1.0000
     1.0000   1.0000   1.0000   1.0000   1.0000   1.0000

          k = 0.4762-0.2859 0.0000 ( 14659 PWs)   bands (ev):

   -35.5019 -35.5019 -35.5017 -35.5017 -35.4736 -35.4736 -35.4735 -35.4734
   -35.3936 -35.3936 -35.3597 -35.3597 -34.0423 -34.0423 -34.0421 -34.0421
   -34.0188 -34.0188 -34.0187 -34.0187 -34.0055 -34.0055 -34.0054 -34.0053
   -33.9310 -33.9310 -33.9160 -33.9160 -33.8869 -33.8869 -28.1344 -28.1344
   -28.1342 -28.1342 -28.1269 -28.1269 -28.1267 -28.1266 -26.8945 -26.8945
   -26.8943 -26.8943 -26.8873 -26.8873 -26.8871 -26.8871 -26.8845 -26.8844
   -26.8841 -26.8841  -9.0036  -9.0036  -8.8821  -8.8821  -8.8124  -8.8123
    -7.2478  -7.2478  -6.6912  -6.6912  -3.0336  -3.0336  -1.7372  -1.7370
    -1.6134  -1.6131  -1.1509  -1.1508  -0.7933  -0.7933  -0.1902  -0.1902
     0.2539   0.2539   0.9298   0.9299   1.1522   1.1522

     occupation numbers 
     1.0000   1.0000   1.0000   1.0000   1.0000   1.0000   1.0000   1.0000
     1.0000   1.0000   1.0000   1.0000   1.0000   1.0000   1.0000   1.0000
     1.0000   1.0000   1.0000   1.0000   1.0000   1.0000   1.0000   1.0000
     1.0000   1.0000   1.0000   1.0000   1.0000   1.0000   1.0000   1.0000
     1.0000   1.0000   1.0000   1.0000   1.0000   1.0000   1.0000   1.0000
     1.0000   1.0000   1.0000   1.0000   1.0000   1.0000   1.0000   1.0000
     1.0000   1.0000   1.0000   1.0000   1.0000   1.0000   1.0000   1.0000
     1.0000   1.0000   1.0000   1.0000   1.0000   1.0000   1.0000   1.0000
     1.0000   1.0000   1.0000   1.0000   1.0000   1.0000   1.0000   1.0000
     1.0000   1.0000   1.0000   1.0000   1.0000   1.0000

          k = 0.4762-0.2298 0.0000 ( 14665 PWs)   bands (ev):

   -35.5019 -35.5019 -35.5017 -35.5017 -35.4736 -35.4736 -35.4735 -35.4734
   -35.3936 -35.3936 -35.3597 -35.3597 -34.0423 -34.0423 -34.0421 -34.0421
   -34.0188 -34.0188 -34.0187 -34.0187 -34.0055 -34.0055 -34.0054 -34.0053
   -33.9310 -33.9310 -33.9160 -33.9160 -33.8869 -33.8869 -28.1345 -28.1344
   -28.1343 -28.1342 -28.1269 -28.1269 -28.1267 -28.1266 -26.8946 -26.8944
   -26.8944 -26.8942 -26.8874 -26.8873 -26.8871 -26.8870 -26.8845 -26.8844
   -26.8841 -26.8841  -9.1100  -9.1100  -8.9112  -8.9112  -8.7323  -8.7322
    -7.2039  -7.2039  -6.6773  -6.6773  -2.9909  -2.9908  -1.7877  -1.7873
    -1.5646  -1.5644  -1.2309  -1.2303  -0.7442  -0.7433  -0.2610  -0.2604
     0.3251   0.3256   0.9230   0.9232   1.1952   1.1954

     occupation numbers 
     1.0000   1.0000   1.0000   1.0000   1.0000   1.0000   1.0000   1.0000
     1.0000   1.0000   1.0000   1.0000   1.0000   1.0000   1.0000   1.0000
     1.0000   1.0000   1.0000   1.0000   1.0000   1.0000   1.0000   1.0000
     1.0000   1.0000   1.0000   1.0000   1.0000   1.0000   1.0000   1.0000
     1.0000   1.0000   1.0000   1.0000   1.0000   1.0000   1.0000   1.0000
     1.0000   1.0000   1.0000   1.0000   1.0000   1.0000   1.0000   1.0000
     1.0000   1.0000   1.0000   1.0000   1.0000   1.0000   1.0000   1.0000
     1.0000   1.0000   1.0000   1.0000   1.0000   1.0000   1.0000   1.0000
     1.0000   1.0000   1.0000   1.0000   1.0000   1.0000   1.0000   1.0000
     1.0000   1.0000   1.0000   1.0000   1.0000   1.0000

          k = 0.4762-0.1738 0.0000 ( 14675 PWs)   bands (ev):

   -35.5019 -35.5019 -35.5017 -35.5017 -35.4736 -35.4736 -35.4735 -35.4734
   -35.3936 -35.3936 -35.3597 -35.3597 -34.0423 -34.0423 -34.0421 -34.0421
   -34.0188 -34.0188 -34.0187 -34.0186 -34.0055 -34.0055 -34.0054 -34.0054
   -33.9310 -33.9310 -33.9160 -33.9160 -33.8869 -33.8869 -28.1346 -28.1344
   -28.1343 -28.1341 -28.1270 -28.1269 -28.1267 -28.1266 -26.8946 -26.8944
   -26.8944 -26.8942 -26.8875 -26.8873 -26.8871 -26.8870 -26.8845 -26.8844
   -26.8842 -26.8841  -9.2001  -9.2001  -8.9428  -8.9428  -8.6613  -8.6613
    -7.1387  -7.1387  -6.6849  -6.6849  -2.9057  -2.9057  -1.8181  -1.8174
    -1.6269  -1.6263  -1.3556  -1.3552  -0.6946  -0.6943  -0.3736  -0.3732
     0.4089   0.4096   0.8986   0.8988   1.3529   1.3531

     occupation numbers 
     1.0000   1.0000   1.0000   1.0000   1.0000   1.0000   1.0000   1.0000
     1.0000   1.0000   1.0000   1.0000   1.0000   1.0000   1.0000   1.0000
     1.0000   1.0000   1.0000   1.0000   1.0000   1.0000   1.0000   1.0000
     1.0000   1.0000   1.0000   1.0000   1.0000   1.0000   1.0000   1.0000
     1.0000   1.0000   1.0000   1.0000   1.0000   1.0000   1.0000   1.0000
     1.0000   1.0000   1.0000   1.0000   1.0000   1.0000   1.0000   1.0000
     1.0000   1.0000   1.0000   1.0000   1.0000   1.0000   1.0000   1.0000
     1.0000   1.0000   1.0000   1.0000   1.0000   1.0000   1.0000   1.0000
     1.0000   1.0000   1.0000   1.0000   1.0000   1.0000   1.0000   1.0000
     1.0000   1.0000   1.0000   1.0000   1.0000   1.0000

          k = 0.4762-0.1177 0.0000 ( 14668 PWs)   bands (ev):

   -35.5019 -35.5019 -35.5017 -35.5017 -35.4736 -35.4736 -35.4735 -35.4734
   -35.3936 -35.3936 -35.3598 -35.3598 -34.0423 -34.0423 -34.0421 -34.0421
   -34.0188 -34.0188 -34.0187 -34.0186 -34.0055 -34.0055 -34.0054 -34.0054
   -33.9310 -33.9310 -33.9160 -33.9160 -33.8869 -33.8869 -28.1347 -28.1345
   -28.1343 -28.1341 -28.1270 -28.1268 -28.1267 -28.1266 -26.8946 -26.8944
   -26.8943 -26.8941 -26.8875 -26.8874 -26.8871 -26.8869 -26.8845 -26.8844
   -26.8843 -26.8842  -9.2689  -9.2688  -8.9714  -8.9714  -8.6068  -8.6068
    -7.0612  -7.0612  -6.7136  -6.7136  -2.7828  -2.7828  -1.9531  -1.9527
    -1.6434  -1.6428  -1.4338  -1.4336  -0.7660  -0.7656  -0.4356  -0.4351
     0.4851   0.4858   0.9531   0.9533   1.4708   1.4711

     occupation numbers 
     1.0000   1.0000   1.0000   1.0000   1.0000   1.0000   1.0000   1.0000
     1.0000   1.0000   1.0000   1.0000   1.0000   1.0000   1.0000   1.0000
     1.0000   1.0000   1.0000   1.0000   1.0000   1.0000   1.0000   1.0000
     1.0000   1.0000   1.0000   1.0000   1.0000   1.0000   1.0000   1.0000
     1.0000   1.0000   1.0000   1.0000   1.0000   1.0000   1.0000   1.0000
     1.0000   1.0000   1.0000   1.0000   1.0000   1.0000   1.0000   1.0000
     1.0000   1.0000   1.0000   1.0000   1.0000   1.0000   1.0000   1.0000
     1.0000   1.0000   1.0000   1.0000   1.0000   1.0000   1.0000   1.0000
     1.0000   1.0000   1.0000   1.0000   1.0000   1.0000   1.0000   1.0000
     1.0000   1.0000   1.0000   1.0000   1.0000   1.0000

          k = 0.4762-0.0616 0.0000 ( 14653 PWs)   bands (ev):

   -35.5019 -35.5019 -35.5018 -35.5017 -35.4736 -35.4736 -35.4735 -35.4734
   -35.3936 -35.3936 -35.3598 -35.3598 -34.0423 -34.0423 -34.0422 -34.0421
   -34.0188 -34.0188 -34.0187 -34.0186 -34.0055 -34.0055 -34.0054 -34.0054
   -33.9310 -33.9310 -33.9160 -33.9160 -33.8869 -33.8869 -28.1347 -28.1345
   -28.1343 -28.1341 -28.1270 -28.1268 -28.1267 -28.1266 -26.8946 -26.8945
   -26.8942 -26.8940 -26.8876 -26.8874 -26.8871 -26.8869 -26.8846 -26.8844
   -26.8843 -26.8842  -9.3129  -9.3128  -8.9925  -8.9925  -8.5742  -8.5741
    -6.9873  -6.9873  -6.7557  -6.7557  -2.6249  -2.6248  -2.1861  -2.1860
    -1.5579  -1.5577  -1.4380  -1.4378  -0.9771  -0.9767  -0.4254  -0.4251
     0.5811   0.5815   1.0622   1.0625   1.4319   1.4321

     occupation numbers 
     1.0000   1.0000   1.0000   1.0000   1.0000   1.0000   1.0000   1.0000
     1.0000   1.0000   1.0000   1.0000   1.0000   1.0000   1.0000   1.0000
     1.0000   1.0000   1.0000   1.0000   1.0000   1.0000   1.0000   1.0000
     1.0000   1.0000   1.0000   1.0000   1.0000   1.0000   1.0000   1.0000
     1.0000   1.0000   1.0000   1.0000   1.0000   1.0000   1.0000   1.0000
     1.0000   1.0000   1.0000   1.0000   1.0000   1.0000   1.0000   1.0000
     1.0000   1.0000   1.0000   1.0000   1.0000   1.0000   1.0000   1.0000
     1.0000   1.0000   1.0000   1.0000   1.0000   1.0000   1.0000   1.0000
     1.0000   1.0000   1.0000   1.0000   1.0000   1.0000   1.0000   1.0000
     1.0000   1.0000   1.0000   1.0000   1.0000   1.0000

          k = 0.4762-0.0055 0.0000 ( 14628 PWs)   bands (ev):

   -35.5019 -35.5019 -35.5018 -35.5017 -35.4736 -35.4736 -35.4735 -35.4734
   -35.3936 -35.3936 -35.3598 -35.3598 -34.0424 -34.0423 -34.0422 -34.0421
   -34.0188 -34.0188 -34.0187 -34.0186 -34.0055 -34.0055 -34.0054 -34.0054
   -33.9310 -33.9310 -33.9160 -33.9160 -33.8869 -33.8869 -28.1347 -28.1345
   -28.1343 -28.1341 -28.1270 -28.1268 -28.1267 -28.1266 -26.8947 -26.8945
   -26.8942 -26.8940 -26.8876 -26.8874 -26.8871 -26.8869 -26.8846 -26.8844
   -26.8843 -26.8842  -9.3300  -9.3300  -9.0031  -9.0031  -8.5665  -8.5665
    -6.9552  -6.9552  -6.7793  -6.7793  -2.4801  -2.4799  -2.3601  -2.3599
    -1.5429  -1.5426  -1.3298  -1.3294  -1.1432  -1.1428  -0.4149  -0.4148
     0.6349   0.6351   1.1522   1.1522   1.3558   1.3561

     occupation numbers 
     1.0000   1.0000   1.0000   1.0000   1.0000   1.0000   1.0000   1.0000
     1.0000   1.0000   1.0000   1.0000   1.0000   1.0000   1.0000   1.0000
     1.0000   1.0000   1.0000   1.0000   1.0000   1.0000   1.0000   1.0000
     1.0000   1.0000   1.0000   1.0000   1.0000   1.0000   1.0000   1.0000
     1.0000   1.0000   1.0000   1.0000   1.0000   1.0000   1.0000   1.0000
     1.0000   1.0000   1.0000   1.0000   1.0000   1.0000   1.0000   1.0000
     1.0000   1.0000   1.0000   1.0000   1.0000   1.0000   1.0000   1.0000
     1.0000   1.0000   1.0000   1.0000   1.0000   1.0000   1.0000   1.0000
     1.0000   1.0000   1.0000   1.0000   1.0000   1.0000   1.0000   1.0000
     1.0000   1.0000   1.0000   1.0000   1.0000   1.0000

          k = 0.4762 0.0506 0.0000 ( 14629 PWs)   bands (ev):

   -35.5019 -35.5019 -35.5018 -35.5017 -35.4736 -35.4736 -35.4735 -35.4735
   -35.3936 -35.3936 -35.3598 -35.3598 -34.0424 -34.0423 -34.0422 -34.0421
   -34.0188 -34.0187 -34.0187 -34.0186 -34.0055 -34.0055 -34.0054 -34.0054
   -33.9310 -33.9310 -33.9160 -33.9160 -33.8870 -33.8870 -28.1347 -28.1345
   -28.1343 -28.1341 -28.1270 -28.1268 -28.1267 -28.1266 -26.8947 -26.8945
   -26.8943 -26.8941 -26.8876 -26.8874 -26.8871 -26.8869 -26.8846 -26.8844
   -26.8843 -26.8842  -9.3199  -9.3199  -9.0019  -9.0019  -8.5843  -8.5843
    -7.0005  -7.0005  -6.7508  -6.7508  -2.6288  -2.6288  -2.1754  -2.1753
    -1.5487  -1.5478  -1.4289  -1.4280  -0.9676  -0.9674  -0.4158  -0.4156
     0.5948   0.5950   1.0780   1.0782   1.4587   1.4589

     occupation numbers 
     1.0000   1.0000   1.0000   1.0000   1.0000   1.0000   1.0000   1.0000
     1.0000   1.0000   1.0000   1.0000   1.0000   1.0000   1.0000   1.0000
     1.0000   1.0000   1.0000   1.0000   1.0000   1.0000   1.0000   1.0000
     1.0000   1.0000   1.0000   1.0000   1.0000   1.0000   1.0000   1.0000
     1.0000   1.0000   1.0000   1.0000   1.0000   1.0000   1.0000   1.0000
     1.0000   1.0000   1.0000   1.0000   1.0000   1.0000   1.0000   1.0000
     1.0000   1.0000   1.0000   1.0000   1.0000   1.0000   1.0000   1.0000
     1.0000   1.0000   1.0000   1.0000   1.0000   1.0000   1.0000   1.0000
     1.0000   1.0000   1.0000   1.0000   1.0000   1.0000   1.0000   1.0000
     1.0000   1.0000   1.0000   1.0000   1.0000   1.0000

          k = 0.4762 0.1067 0.0000 ( 14641 PWs)   bands (ev):

   -35.5019 -35.5019 -35.5018 -35.5017 -35.4736 -35.4736 -35.4735 -35.4735
   -35.3936 -35.3936 -35.3598 -35.3598 -34.0424 -34.0423 -34.0422 -34.0421
   -34.0188 -34.0188 -34.0187 -34.0186 -34.0056 -34.0055 -34.0054 -34.0054
   -33.9310 -33.9310 -33.9160 -33.9160 -33.8870 -33.8870 -28.1347 -28.1345
   -28.1344 -28.1342 -28.1269 -28.1268 -28.1267 -28.1266 -26.8947 -26.8945
   -26.8944 -26.8942 -26.8875 -26.8874 -26.8871 -26.8869 -26.8845 -26.8844
   -26.8842 -26.8841  -9.2827  -9.2827  -8.9897  -8.9897  -8.6257  -8.6256
    -7.0791  -7.0791  -6.7110  -6.7110  -2.7842  -2.7842  -1.9482  -1.9481
    -1.6262  -1.6258  -1.4006  -1.4001  -0.7667  -0.7665  -0.3984  -0.3982
     0.5107   0.5110   0.9800   0.9801   1.5268   1.5269

     occupation numbers 
     1.0000   1.0000   1.0000   1.0000   1.0000   1.0000   1.0000   1.0000
     1.0000   1.0000   1.0000   1.0000   1.0000   1.0000   1.0000   1.0000
     1.0000   1.0000   1.0000   1.0000   1.0000   1.0000   1.0000   1.0000
     1.0000   1.0000   1.0000   1.0000   1.0000   1.0000   1.0000   1.0000
     1.0000   1.0000   1.0000   1.0000   1.0000   1.0000   1.0000   1.0000
     1.0000   1.0000   1.0000   1.0000   1.0000   1.0000   1.0000   1.0000
     1.0000   1.0000   1.0000   1.0000   1.0000   1.0000   1.0000   1.0000
     1.0000   1.0000   1.0000   1.0000   1.0000   1.0000   1.0000   1.0000
     1.0000   1.0000   1.0000   1.0000   1.0000   1.0000   1.0000   1.0000
     1.0000   1.0000   1.0000   1.0000   1.0000   1.0000

          k = 0.4762 0.1628 0.0000 ( 14628 PWs)   bands (ev):

   -35.5019 -35.5019 -35.5017 -35.5017 -35.4736 -35.4736 -35.4735 -35.4735
   -35.3936 -35.3936 -35.3598 -35.3598 -34.0423 -34.0423 -34.0422 -34.0421
   -34.0188 -34.0188 -34.0187 -34.0186 -34.0055 -34.0055 -34.0054 -34.0054
   -33.9310 -33.9310 -33.9160 -33.9160 -33.8870 -33.8870 -28.1347 -28.1345
   -28.1344 -28.1342 -28.1269 -28.1268 -28.1266 -28.1266 -26.8948 -26.8946
   -26.8945 -26.8943 -26.8875 -26.8873 -26.8871 -26.8870 -26.8845 -26.8844
   -26.8842 -26.8841  -9.2202  -9.2202  -8.9688  -8.9688  -8.6865  -8.6865
    -7.1580  -7.1580  -6.6858  -6.6858  -2.9055  -2.9055  -1.8251  -1.8249
    -1.6027  -1.6023  -1.3059  -1.3055  -0.6764  -0.6761  -0.3278  -0.3275
     0.4390   0.4395   0.9421   0.9423   1.4257   1.4259

     occupation numbers 
     1.0000   1.0000   1.0000   1.0000   1.0000   1.0000   1.0000   1.0000
     1.0000   1.0000   1.0000   1.0000   1.0000   1.0000   1.0000   1.0000
     1.0000   1.0000   1.0000   1.0000   1.0000   1.0000   1.0000   1.0000
     1.0000   1.0000   1.0000   1.0000   1.0000   1.0000   1.0000   1.0000
     1.0000   1.0000   1.0000   1.0000   1.0000   1.0000   1.0000   1.0000
     1.0000   1.0000   1.0000   1.0000   1.0000   1.0000   1.0000   1.0000
     1.0000   1.0000   1.0000   1.0000   1.0000   1.0000   1.0000   1.0000
     1.0000   1.0000   1.0000   1.0000   1.0000   1.0000   1.0000   1.0000
     1.0000   1.0000   1.0000   1.0000   1.0000   1.0000   1.0000   1.0000
     1.0000   1.0000   1.0000   1.0000   1.0000   1.0000

          k = 0.4762 0.2188 0.0000 ( 14655 PWs)   bands (ev):

   -35.5019 -35.5019 -35.5017 -35.5017 -35.4736 -35.4736 -35.4735 -35.4735
   -35.3936 -35.3936 -35.3598 -35.3598 -34.0423 -34.0423 -34.0421 -34.0421
   -34.0188 -34.0188 -34.0187 -34.0186 -34.0055 -34.0055 -34.0054 -34.0054
   -33.9310 -33.9310 -33.9160 -33.9160 -33.8870 -33.8870 -28.1346 -28.1345
   -28.1344 -28.1343 -28.1269 -28.1269 -28.1266 -28.1266 -26.8947 -26.8946
   -26.8945 -26.8944 -26.8874 -26.8873 -26.8871 -26.8870 -26.8844 -26.8844
   -26.8841 -26.8841  -9.1355  -9.1355  -8.9432  -8.9432  -8.7608  -8.7608
    -7.2229  -7.2229  -6.6806  -6.6806  -2.9895  -2.9895  -1.7906  -1.7904
    -1.5581  -1.5576  -1.1695  -1.1690  -0.6813  -0.6811  -0.2318  -0.2315
     0.3596   0.3601   0.9832   0.9834   1.2685   1.2686

     occupation numbers 
     1.0000   1.0000   1.0000   1.0000   1.0000   1.0000   1.0000   1.0000
     1.0000   1.0000   1.0000   1.0000   1.0000   1.0000   1.0000   1.0000
     1.0000   1.0000   1.0000   1.0000   1.0000   1.0000   1.0000   1.0000
     1.0000   1.0000   1.0000   1.0000   1.0000   1.0000   1.0000   1.0000
     1.0000   1.0000   1.0000   1.0000   1.0000   1.0000   1.0000   1.0000
     1.0000   1.0000   1.0000   1.0000   1.0000   1.0000   1.0000   1.0000
     1.0000   1.0000   1.0000   1.0000   1.0000   1.0000   1.0000   1.0000
     1.0000   1.0000   1.0000   1.0000   1.0000   1.0000   1.0000   1.0000
     1.0000   1.0000   1.0000   1.0000   1.0000   1.0000   1.0000   1.0000
     1.0000   1.0000   1.0000   1.0000   1.0000   1.0000

     highest occupied level (ev):     1.8034

!    total energy              =    -806.67121308 Ry
     estimated scf accuracy    <       0.00000002 Ry

     The total energy is the sum of the following terms:
     one-electron contribution =   -3390.35122633 Ry
     hartree contribution      =    1690.32931925 Ry
     xc contribution           =     -87.17069614 Ry
     ewald contribution        =     980.61955469 Ry
     Dispersion Correction     =      -0.09816455 Ry

     convergence has been achieved in  12 iterations

     Writing all to output data dir tmp/Sb2Te3-uatsx-c4-soc-2.0.save/ :
     XML data file, charge density, pseudopotentials, collected wavefunctions

     init_run     :     36.39s CPU     19.79s WALL (       1 calls)
     electrons    :   1920.21s CPU   1023.01s WALL (       1 calls)

     Called by init_run:
     wfcinit      :     35.24s CPU     18.64s WALL (       1 calls)
     wfcinit:wfcr :     33.31s CPU     17.31s WALL (     221 calls)
     potinit      :      0.50s CPU      0.47s WALL (       1 calls)
     hinit0       :      0.55s CPU      0.56s WALL (       1 calls)

     Called by electrons:
     c_bands      :   1737.78s CPU    930.15s WALL (      13 calls)
     sum_band     :    181.39s CPU     92.09s WALL (      13 calls)
     v_of_rho     :      0.55s CPU      0.38s WALL (      13 calls)
     v_h          :      0.05s CPU      0.03s WALL (      13 calls)
     v_xc         :      0.50s CPU      0.36s WALL (      13 calls)
     mix_rho      :      0.27s CPU      0.16s WALL (      13 calls)
     energy_londo :      0.02s CPU      0.01s WALL (       1 calls)

     Called by c_bands:
     init_us_2    :     10.01s CPU      5.07s WALL (    5967 calls)
     cegterg      :   1675.56s CPU    887.47s WALL (    2873 calls)

     Called by sum_band:
     sum_band:wei :      0.00s CPU      0.00s WALL (      13 calls)
     sum_band:loo :    181.22s CPU     92.01s WALL (      13 calls)
     sum_band:buf :      2.62s CPU      1.33s WALL (    2873 calls)
     sum_band:ini :      4.75s CPU      2.39s WALL (    2873 calls)

     Called by *egterg:
     cdiaghg      :    218.29s CPU    140.25s WALL (   17898 calls)
     cegterg:over :     74.94s CPU     39.55s WALL (   15246 calls)
     cegterg:upda :     41.78s CPU     19.63s WALL (   15246 calls)
     cegterg:last :     61.51s CPU     30.90s WALL (    7761 calls)
     h_psi        :   1257.12s CPU    643.95s WALL (   18340 calls)
     g_psi        :      5.50s CPU      3.41s WALL (   15246 calls)

     Called by h_psi:
     h_psi:calbec :     72.34s CPU     35.33s WALL (   18340 calls)
     vloc_psi     :   1107.72s CPU    563.61s WALL (   18340 calls)
     add_vuspsi   :     73.42s CPU     42.91s WALL (   18340 calls)

     General routines
     calbec       :     72.21s CPU     35.29s WALL (   18340 calls)
     fft          :      1.21s CPU      1.01s WALL (     301 calls)
     ffts         :      0.47s CPU      0.44s WALL (     104 calls)
     fftw         :    938.08s CPU    477.63s WALL ( 3269168 calls)
     interpolate  :      0.57s CPU      0.50s WALL (      52 calls)

     Parallel routines

     PWSCF        :  32m50.05s CPU  18m46.52s WALL


   This run was terminated on:  21:59: 1  14Aug2025            

=------------------------------------------------------------------------------=
   JOB DONE.
=------------------------------------------------------------------------------=
