
     Program PWSCF v.7.4.1 starts on 22Aug2025 at 18:23: 1 

     This program is part of the open-source Quantum ESPRESSO suite
     for quantum simulation of materials; please cite
         "P. Giannozzi et al., J. Phys.:Condens. Matter 21 395502 (2009);
         "P. Giannozzi et al., J. Phys.:Condens. Matter 29 465901 (2017);
         "P. Giannozzi et al., J. Chem. Phys. 152 154105 (2020);
          URL http://www.quantum-espresso.org", 
     in publications or presentations arising from this work. More details at
     http://www.quantum-espresso.org/quote

     Parallel version (MPI & OpenMP), running on      48 processor cores
     Number of MPI processes:                24
     Threads/MPI process:                     2

     MPI processes distributed on     2 nodes
     65507 MiB available memory on the printing compute node when the environment starts

     Waiting for input...
     Reading input from standard input

     Current dimensions of program PWSCF are:
     Max number of different atomic species (ntypx) = 10
     Max number of k-points (npk) =  40000
     Max angular momentum in pseudopotentials (lmaxx) =  4
Error reading attribute index: expected integer, found *
Error reading attribute index: expected integer, found *

     IMPORTANT: XC functional enforced from input :
     Exchange-correlation= PBE
                           (   1   4   3   4   0   0   0)
     Any further DFT definition will be discarded
     Please, verify this is what you really want

     Message from routine setup:
     no reason to have ecutrho>4*ecutwfc

     R & G space division:  proc/nbgrp/npool/nimage =      24
     Subspace diagonalization in iterative solution of the eigenvalue problem:
     a serial algorithm will be used


     Parallelization info
     --------------------
     sticks:   dense  smooth     PW     G-vecs:    dense   smooth      PW
     Min         135      54     15                31969     8086    1281
     Max         136      55     16                31992     8103    1306
     Sum        3263    1305    381               767663   194215   31117

     Using Slab Decomposition



     bravais-lattice index     =            0
     lattice parameter (alat)  =       8.3085  a.u.
     unit-cell volume          =    2454.7283 (a.u.)^3
     number of atoms/cell      =            5
     number of atomic types    =            2
     number of electrons       =        78.00
     number of Kohn-Sham states=           78
     kinetic-energy cutoff     =      70.0000  Ry
     charge density cutoff     =     700.0000  Ry
     scf convergence threshold =      1.0E-07
     mixing beta               =       0.7000
     number of iterations used =            8  plain     mixing
     Exchange-correlation= PBE
                           (   1   4   3   4   0   0   0)
     Non magnetic calculation with spin-orbit


     celldm(1)=   8.308546  celldm(2)=   0.000000  celldm(3)=   0.000000
     celldm(4)=   0.000000  celldm(5)=   0.000000  celldm(6)=   0.000000

     crystal axes: (cart. coord. in units of alat)
               a(1) = (   1.000000   0.000000   0.000000 )  
               a(2) = (  -0.490196   0.849036   0.000000 )  
               a(3) = (   0.000000   0.000000   5.040830 )  

     reciprocal axes: (cart. coord. in units 2 pi/alat)
               b(1) = (  1.000000  0.577356 -0.000000 )  
               b(2) = (  0.000000  1.177806  0.000000 )  
               b(3) = (  0.000000 -0.000000  0.198380 )  


     PseudoPot. # 1 for Sb read from file:
     /zfs-home/202401017n1/pseudos/Sb_ONCV_PBE_FR-1.1.upf
     MD5 check sum: 7dc1726f2158e3c51e4807d42b9c5c65
     Pseudo is Norm-conserving, Zval = 15.0
     Generated using ONCVPSP code by D. R. Hamann
     Using radial grid of  602 points, 10 beta functions with: 
                l(1) =   0
                l(2) =   0
                l(3) =   1
                l(4) =   1
                l(5) =   1
                l(6) =   1
                l(7) =   2
                l(8) =   2
                l(9) =   2
               l(10) =   2

     PseudoPot. # 2 for Te read from file:
     /zfs-home/202401017n1/pseudos/Te_ONCV_PBE_FR-1.1.upf
     MD5 check sum: c6e17480449037a9a9d16e6377b5c7c4
     Pseudo is Norm-conserving, Zval = 16.0
     Generated using ONCVPSP code by D. R. Hamann
     Using radial grid of  602 points, 10 beta functions with: 
                l(1) =   0
                l(2) =   0
                l(3) =   1
                l(4) =   1
                l(5) =   1
                l(6) =   1
                l(7) =   2
                l(8) =   2
                l(9) =   2
               l(10) =   2

     atomic species   valence    mass     pseudopotential
     Sb               15.00   121.76000     Sb( 1.00)
     Te               16.00   127.60000     Te( 1.00)

     No symmetry found


                                    s                        frac. trans.

      isym =  1     identity                                     

 cryst.   s( 1) = (     1          0          0      )
                  (     0          1          0      )
                  (     0          0          1      )

 cart.    s( 1) = (  1.0000000  0.0000000  0.0000000 )
                  (  0.0000000  1.0000000  0.0000000 )
                  (  0.0000000  0.0000000  1.0000000 )


   Cartesian axes

     site n.     atom                  positions (alat units)
         1        Sb     tau(   1) = (   0.5829733   0.4189608   2.9724649  )
         2        Te     tau(   2) = (   0.5752175   0.4057666   1.6850437  )
         3        Sb     tau(   3) = (   0.0736071   0.1257310   2.0683360  )
         4        Te     tau(   4) = (   0.0811854   0.1390911   3.3558017  )
         5        Te     tau(   5) = (   0.0831178   0.6970014   2.5203330  )

     -------------------------------------------------
     Parameters for Dispersion (Grimme-D2) Correction:
     -------------------------------------------------
       atom      VdW radius       C_6     

        Sb         3.555       1333.532
        Te         3.575       1101.101

   Crystallographic axes

     site n.     atom                  positions (cryst. coord.)
         1        Sb     tau(   1) = (  0.8248627  0.4934545  0.5896776  )
         2        Te     tau(   2) = (  0.8094892  0.4779143  0.3342790  )
         3        Sb     tau(   3) = (  0.1461986  0.1480867  0.4103165  )
         4        Te     tau(   4) = (  0.1614904  0.1638223  0.6657240  )
         5        Te     tau(   5) = (  0.4855356  0.8209324  0.4999837  )

     number of k points=   221
                       cart. coord. in units 2pi/alat
        k(    1) = (   0.0000000   0.0000000   0.0000000), wk =   0.0022676
        k(    2) = (   0.0000000   0.0560860   0.0000000), wk =   0.0045351
        k(    3) = (   0.0000000   0.1121720   0.0000000), wk =   0.0045351
        k(    4) = (   0.0000000   0.1682580   0.0000000), wk =   0.0045351
        k(    5) = (   0.0000000   0.2243440   0.0000000), wk =   0.0045351
        k(    6) = (   0.0000000   0.2804300   0.0000000), wk =   0.0045351
        k(    7) = (   0.0000000   0.3365160   0.0000000), wk =   0.0045351
        k(    8) = (   0.0000000   0.3926020   0.0000000), wk =   0.0045351
        k(    9) = (   0.0000000   0.4486880   0.0000000), wk =   0.0045351
        k(   10) = (   0.0000000   0.5047740   0.0000000), wk =   0.0045351
        k(   11) = (   0.0000000   0.5608600   0.0000000), wk =   0.0045351
        k(   12) = (   0.0476190   0.0274931   0.0000000), wk =   0.0045351
        k(   13) = (   0.0476190   0.0835791   0.0000000), wk =   0.0045351
        k(   14) = (   0.0476190   0.1396651   0.0000000), wk =   0.0045351
        k(   15) = (   0.0476190   0.1957511   0.0000000), wk =   0.0045351
        k(   16) = (   0.0476190   0.2518371   0.0000000), wk =   0.0045351
        k(   17) = (   0.0476190   0.3079231   0.0000000), wk =   0.0045351
        k(   18) = (   0.0476190   0.3640091   0.0000000), wk =   0.0045351
        k(   19) = (   0.0476190   0.4200951   0.0000000), wk =   0.0045351
        k(   20) = (   0.0476190   0.4761811   0.0000000), wk =   0.0045351
        k(   21) = (   0.0476190   0.5322671   0.0000000), wk =   0.0045351
        k(   22) = (   0.0476190   0.5883531   0.0000000), wk =   0.0045351
        k(   23) = (   0.0476190  -0.5333668   0.0000000), wk =   0.0045351
        k(   24) = (   0.0476190  -0.4772808   0.0000000), wk =   0.0045351
        k(   25) = (   0.0476190  -0.4211948   0.0000000), wk =   0.0045351
        k(   26) = (   0.0476190  -0.3651088   0.0000000), wk =   0.0045351
        k(   27) = (   0.0476190  -0.3090228   0.0000000), wk =   0.0045351
        k(   28) = (   0.0476190  -0.2529369   0.0000000), wk =   0.0045351
        k(   29) = (   0.0476190  -0.1968509   0.0000000), wk =   0.0045351
        k(   30) = (   0.0476190  -0.1407649   0.0000000), wk =   0.0045351
        k(   31) = (   0.0476190  -0.0846789   0.0000000), wk =   0.0045351
        k(   32) = (   0.0476190  -0.0285929   0.0000000), wk =   0.0045351
        k(   33) = (   0.0952381   0.0549863   0.0000000), wk =   0.0045351
        k(   34) = (   0.0952381   0.1110723   0.0000000), wk =   0.0045351
        k(   35) = (   0.0952381   0.1671583   0.0000000), wk =   0.0045351
        k(   36) = (   0.0952381   0.2232443   0.0000000), wk =   0.0045351
        k(   37) = (   0.0952381   0.2793303   0.0000000), wk =   0.0045351
        k(   38) = (   0.0952381   0.3354163   0.0000000), wk =   0.0045351
        k(   39) = (   0.0952381   0.3915023   0.0000000), wk =   0.0045351
        k(   40) = (   0.0952381   0.4475883   0.0000000), wk =   0.0045351
        k(   41) = (   0.0952381   0.5036742   0.0000000), wk =   0.0045351
        k(   42) = (   0.0952381   0.5597602   0.0000000), wk =   0.0045351
        k(   43) = (   0.0952381   0.6158462   0.0000000), wk =   0.0045351
        k(   44) = (   0.0952381  -0.5058737   0.0000000), wk =   0.0045351
        k(   45) = (   0.0952381  -0.4497877   0.0000000), wk =   0.0045351
        k(   46) = (   0.0952381  -0.3937017   0.0000000), wk =   0.0045351
        k(   47) = (   0.0952381  -0.3376157   0.0000000), wk =   0.0045351
        k(   48) = (   0.0952381  -0.2815297   0.0000000), wk =   0.0045351
        k(   49) = (   0.0952381  -0.2254437   0.0000000), wk =   0.0045351
        k(   50) = (   0.0952381  -0.1693577   0.0000000), wk =   0.0045351
        k(   51) = (   0.0952381  -0.1132717   0.0000000), wk =   0.0045351
        k(   52) = (   0.0952381  -0.0571857   0.0000000), wk =   0.0045351
        k(   53) = (   0.0952381  -0.0010997   0.0000000), wk =   0.0045351
        k(   54) = (   0.1428571   0.0824794   0.0000000), wk =   0.0045351
        k(   55) = (   0.1428571   0.1385654   0.0000000), wk =   0.0045351
        k(   56) = (   0.1428571   0.1946514   0.0000000), wk =   0.0045351
        k(   57) = (   0.1428571   0.2507374   0.0000000), wk =   0.0045351
        k(   58) = (   0.1428571   0.3068234   0.0000000), wk =   0.0045351
        k(   59) = (   0.1428571   0.3629094   0.0000000), wk =   0.0045351
        k(   60) = (   0.1428571   0.4189954   0.0000000), wk =   0.0045351
        k(   61) = (   0.1428571   0.4750814   0.0000000), wk =   0.0045351
        k(   62) = (   0.1428571   0.5311674   0.0000000), wk =   0.0045351
        k(   63) = (   0.1428571   0.5872534   0.0000000), wk =   0.0045351
        k(   64) = (   0.1428571   0.6433394   0.0000000), wk =   0.0045351
        k(   65) = (   0.1428571  -0.4783806   0.0000000), wk =   0.0045351
        k(   66) = (   0.1428571  -0.4222946   0.0000000), wk =   0.0045351
        k(   67) = (   0.1428571  -0.3662086   0.0000000), wk =   0.0045351
        k(   68) = (   0.1428571  -0.3101226   0.0000000), wk =   0.0045351
        k(   69) = (   0.1428571  -0.2540366   0.0000000), wk =   0.0045351
        k(   70) = (   0.1428571  -0.1979506   0.0000000), wk =   0.0045351
        k(   71) = (   0.1428571  -0.1418646   0.0000000), wk =   0.0045351
        k(   72) = (   0.1428571  -0.0857786   0.0000000), wk =   0.0045351
        k(   73) = (   0.1428571  -0.0296926   0.0000000), wk =   0.0045351
        k(   74) = (   0.1428571   0.0263934   0.0000000), wk =   0.0045351
        k(   75) = (   0.1904762   0.1099725   0.0000000), wk =   0.0045351
        k(   76) = (   0.1904762   0.1660585   0.0000000), wk =   0.0045351
        k(   77) = (   0.1904762   0.2221445   0.0000000), wk =   0.0045351
        k(   78) = (   0.1904762   0.2782305   0.0000000), wk =   0.0045351
        k(   79) = (   0.1904762   0.3343165   0.0000000), wk =   0.0045351
        k(   80) = (   0.1904762   0.3904025   0.0000000), wk =   0.0045351
        k(   81) = (   0.1904762   0.4464885   0.0000000), wk =   0.0045351
        k(   82) = (   0.1904762   0.5025745   0.0000000), wk =   0.0045351
        k(   83) = (   0.1904762   0.5586605   0.0000000), wk =   0.0045351
        k(   84) = (   0.1904762   0.6147465   0.0000000), wk =   0.0045351
        k(   85) = (   0.1904762   0.6708325   0.0000000), wk =   0.0045351
        k(   86) = (   0.1904762  -0.4508874   0.0000000), wk =   0.0045351
        k(   87) = (   0.1904762  -0.3948014   0.0000000), wk =   0.0045351
        k(   88) = (   0.1904762  -0.3387154   0.0000000), wk =   0.0045351
        k(   89) = (   0.1904762  -0.2826294   0.0000000), wk =   0.0045351
        k(   90) = (   0.1904762  -0.2265434   0.0000000), wk =   0.0045351
        k(   91) = (   0.1904762  -0.1704574   0.0000000), wk =   0.0045351
        k(   92) = (   0.1904762  -0.1143714   0.0000000), wk =   0.0045351
        k(   93) = (   0.1904762  -0.0582854   0.0000000), wk =   0.0045351
        k(   94) = (   0.1904762  -0.0021995   0.0000000), wk =   0.0045351
        k(   95) = (   0.1904762   0.0538865   0.0000000), wk =   0.0045351
        k(   96) = (   0.2380952   0.1374657   0.0000000), wk =   0.0045351
        k(   97) = (   0.2380952   0.1935517   0.0000000), wk =   0.0045351
        k(   98) = (   0.2380952   0.2496377   0.0000000), wk =   0.0045351
        k(   99) = (   0.2380952   0.3057237   0.0000000), wk =   0.0045351
        k(  100) = (   0.2380952   0.3618097   0.0000000), wk =   0.0045351
        k(  101) = (   0.2380952   0.4178957   0.0000000), wk =   0.0045351
        k(  102) = (   0.2380952   0.4739817   0.0000000), wk =   0.0045351
        k(  103) = (   0.2380952   0.5300677   0.0000000), wk =   0.0045351
        k(  104) = (   0.2380952   0.5861537   0.0000000), wk =   0.0045351
        k(  105) = (   0.2380952   0.6422397   0.0000000), wk =   0.0045351
        k(  106) = (   0.2380952   0.6983257   0.0000000), wk =   0.0045351
        k(  107) = (   0.2380952  -0.4233943   0.0000000), wk =   0.0045351
        k(  108) = (   0.2380952  -0.3673083   0.0000000), wk =   0.0045351
        k(  109) = (   0.2380952  -0.3112223   0.0000000), wk =   0.0045351
        k(  110) = (   0.2380952  -0.2551363   0.0000000), wk =   0.0045351
        k(  111) = (   0.2380952  -0.1990503   0.0000000), wk =   0.0045351
        k(  112) = (   0.2380952  -0.1429643   0.0000000), wk =   0.0045351
        k(  113) = (   0.2380952  -0.0868783   0.0000000), wk =   0.0045351
        k(  114) = (   0.2380952  -0.0307923   0.0000000), wk =   0.0045351
        k(  115) = (   0.2380952   0.0252937   0.0000000), wk =   0.0045351
        k(  116) = (   0.2380952   0.0813797   0.0000000), wk =   0.0045351
        k(  117) = (   0.2857143   0.1649588   0.0000000), wk =   0.0045351
        k(  118) = (   0.2857143   0.2210448   0.0000000), wk =   0.0045351
        k(  119) = (   0.2857143   0.2771308   0.0000000), wk =   0.0045351
        k(  120) = (   0.2857143   0.3332168   0.0000000), wk =   0.0045351
        k(  121) = (   0.2857143   0.3893028   0.0000000), wk =   0.0045351
        k(  122) = (   0.2857143   0.4453888   0.0000000), wk =   0.0045351
        k(  123) = (   0.2857143   0.5014748   0.0000000), wk =   0.0045351
        k(  124) = (   0.2857143   0.5575608   0.0000000), wk =   0.0045351
        k(  125) = (   0.2857143   0.6136468   0.0000000), wk =   0.0045351
        k(  126) = (   0.2857143   0.6697328   0.0000000), wk =   0.0045351
        k(  127) = (   0.2857143   0.7258188   0.0000000), wk =   0.0045351
        k(  128) = (   0.2857143  -0.3959012   0.0000000), wk =   0.0045351
        k(  129) = (   0.2857143  -0.3398152   0.0000000), wk =   0.0045351
        k(  130) = (   0.2857143  -0.2837292   0.0000000), wk =   0.0045351
        k(  131) = (   0.2857143  -0.2276432   0.0000000), wk =   0.0045351
        k(  132) = (   0.2857143  -0.1715572   0.0000000), wk =   0.0045351
        k(  133) = (   0.2857143  -0.1154712   0.0000000), wk =   0.0045351
        k(  134) = (   0.2857143  -0.0593852   0.0000000), wk =   0.0045351
        k(  135) = (   0.2857143  -0.0032992   0.0000000), wk =   0.0045351
        k(  136) = (   0.2857143   0.0527868   0.0000000), wk =   0.0045351
        k(  137) = (   0.2857143   0.1088728   0.0000000), wk =   0.0045351
        k(  138) = (   0.3333333   0.1924520   0.0000000), wk =   0.0045351
        k(  139) = (   0.3333333   0.2485379   0.0000000), wk =   0.0045351
        k(  140) = (   0.3333333   0.3046239   0.0000000), wk =   0.0045351
        k(  141) = (   0.3333333   0.3607099   0.0000000), wk =   0.0045351
        k(  142) = (   0.3333333   0.4167959   0.0000000), wk =   0.0045351
        k(  143) = (   0.3333333   0.4728819   0.0000000), wk =   0.0045351
        k(  144) = (   0.3333333   0.5289679   0.0000000), wk =   0.0045351
        k(  145) = (   0.3333333   0.5850539   0.0000000), wk =   0.0045351
        k(  146) = (   0.3333333   0.6411399   0.0000000), wk =   0.0045351
        k(  147) = (   0.3333333   0.6972259   0.0000000), wk =   0.0045351
        k(  148) = (   0.3333333   0.7533119   0.0000000), wk =   0.0045351
        k(  149) = (   0.3333333  -0.3684080   0.0000000), wk =   0.0045351
        k(  150) = (   0.3333333  -0.3123220   0.0000000), wk =   0.0045351
        k(  151) = (   0.3333333  -0.2562360   0.0000000), wk =   0.0045351
        k(  152) = (   0.3333333  -0.2001500   0.0000000), wk =   0.0045351
        k(  153) = (   0.3333333  -0.1440640   0.0000000), wk =   0.0045351
        k(  154) = (   0.3333333  -0.0879780   0.0000000), wk =   0.0045351
        k(  155) = (   0.3333333  -0.0318920   0.0000000), wk =   0.0045351
        k(  156) = (   0.3333333   0.0241940   0.0000000), wk =   0.0045351
        k(  157) = (   0.3333333   0.0802800   0.0000000), wk =   0.0045351
        k(  158) = (   0.3333333   0.1363660   0.0000000), wk =   0.0045351
        k(  159) = (   0.3809524   0.2199451   0.0000000), wk =   0.0045351
        k(  160) = (   0.3809524   0.2760311   0.0000000), wk =   0.0045351
        k(  161) = (   0.3809524   0.3321171   0.0000000), wk =   0.0045351
        k(  162) = (   0.3809524   0.3882031   0.0000000), wk =   0.0045351
        k(  163) = (   0.3809524   0.4442891   0.0000000), wk =   0.0045351
        k(  164) = (   0.3809524   0.5003751   0.0000000), wk =   0.0045351
        k(  165) = (   0.3809524   0.5564611   0.0000000), wk =   0.0045351
        k(  166) = (   0.3809524   0.6125471   0.0000000), wk =   0.0045351
        k(  167) = (   0.3809524   0.6686331   0.0000000), wk =   0.0045351
        k(  168) = (   0.3809524   0.7247191   0.0000000), wk =   0.0045351
        k(  169) = (   0.3809524   0.7808051   0.0000000), wk =   0.0045351
        k(  170) = (   0.3809524  -0.3409149   0.0000000), wk =   0.0045351
        k(  171) = (   0.3809524  -0.2848289   0.0000000), wk =   0.0045351
        k(  172) = (   0.3809524  -0.2287429   0.0000000), wk =   0.0045351
        k(  173) = (   0.3809524  -0.1726569   0.0000000), wk =   0.0045351
        k(  174) = (   0.3809524  -0.1165709   0.0000000), wk =   0.0045351
        k(  175) = (   0.3809524  -0.0604849   0.0000000), wk =   0.0045351
        k(  176) = (   0.3809524  -0.0043989   0.0000000), wk =   0.0045351
        k(  177) = (   0.3809524   0.0516871   0.0000000), wk =   0.0045351
        k(  178) = (   0.3809524   0.1077731   0.0000000), wk =   0.0045351
        k(  179) = (   0.3809524   0.1638591   0.0000000), wk =   0.0045351
        k(  180) = (   0.4285714   0.2474382   0.0000000), wk =   0.0045351
        k(  181) = (   0.4285714   0.3035242   0.0000000), wk =   0.0045351
        k(  182) = (   0.4285714   0.3596102   0.0000000), wk =   0.0045351
        k(  183) = (   0.4285714   0.4156962   0.0000000), wk =   0.0045351
        k(  184) = (   0.4285714   0.4717822   0.0000000), wk =   0.0045351
        k(  185) = (   0.4285714   0.5278682   0.0000000), wk =   0.0045351
        k(  186) = (   0.4285714   0.5839542   0.0000000), wk =   0.0045351
        k(  187) = (   0.4285714   0.6400402   0.0000000), wk =   0.0045351
        k(  188) = (   0.4285714   0.6961262   0.0000000), wk =   0.0045351
        k(  189) = (   0.4285714   0.7522122   0.0000000), wk =   0.0045351
        k(  190) = (   0.4285714   0.8082982   0.0000000), wk =   0.0045351
        k(  191) = (   0.4285714  -0.3134217   0.0000000), wk =   0.0045351
        k(  192) = (   0.4285714  -0.2573358   0.0000000), wk =   0.0045351
        k(  193) = (   0.4285714  -0.2012498   0.0000000), wk =   0.0045351
        k(  194) = (   0.4285714  -0.1451638   0.0000000), wk =   0.0045351
        k(  195) = (   0.4285714  -0.0890778   0.0000000), wk =   0.0045351
        k(  196) = (   0.4285714  -0.0329918   0.0000000), wk =   0.0045351
        k(  197) = (   0.4285714   0.0230942   0.0000000), wk =   0.0045351
        k(  198) = (   0.4285714   0.0791802   0.0000000), wk =   0.0045351
        k(  199) = (   0.4285714   0.1352662   0.0000000), wk =   0.0045351
        k(  200) = (   0.4285714   0.1913522   0.0000000), wk =   0.0045351
        k(  201) = (   0.4761905   0.2749314   0.0000000), wk =   0.0045351
        k(  202) = (   0.4761905   0.3310174   0.0000000), wk =   0.0045351
        k(  203) = (   0.4761905   0.3871034   0.0000000), wk =   0.0045351
        k(  204) = (   0.4761905   0.4431894   0.0000000), wk =   0.0045351
        k(  205) = (   0.4761905   0.4992753   0.0000000), wk =   0.0045351
        k(  206) = (   0.4761905   0.5553613   0.0000000), wk =   0.0045351
        k(  207) = (   0.4761905   0.6114473   0.0000000), wk =   0.0045351
        k(  208) = (   0.4761905   0.6675333   0.0000000), wk =   0.0045351
        k(  209) = (   0.4761905   0.7236193   0.0000000), wk =   0.0045351
        k(  210) = (   0.4761905   0.7797053   0.0000000), wk =   0.0045351
        k(  211) = (   0.4761905   0.8357913   0.0000000), wk =   0.0045351
        k(  212) = (   0.4761905  -0.2859286   0.0000000), wk =   0.0045351
        k(  213) = (   0.4761905  -0.2298426   0.0000000), wk =   0.0045351
        k(  214) = (   0.4761905  -0.1737566   0.0000000), wk =   0.0045351
        k(  215) = (   0.4761905  -0.1176706   0.0000000), wk =   0.0045351
        k(  216) = (   0.4761905  -0.0615846   0.0000000), wk =   0.0045351
        k(  217) = (   0.4761905  -0.0054986   0.0000000), wk =   0.0045351
        k(  218) = (   0.4761905   0.0505874   0.0000000), wk =   0.0045351
        k(  219) = (   0.4761905   0.1066734   0.0000000), wk =   0.0045351
        k(  220) = (   0.4761905   0.1627594   0.0000000), wk =   0.0045351
        k(  221) = (   0.4761905   0.2188454   0.0000000), wk =   0.0045351

                       cryst. coord.
        k(    1) = (   0.0000000   0.0000000   0.0000000), wk =   0.0022676
        k(    2) = (   0.0000000   0.0476190   0.0000000), wk =   0.0045351
        k(    3) = (   0.0000000   0.0952381   0.0000000), wk =   0.0045351
        k(    4) = (   0.0000000   0.1428571   0.0000000), wk =   0.0045351
        k(    5) = (   0.0000000   0.1904762   0.0000000), wk =   0.0045351
        k(    6) = (   0.0000000   0.2380952   0.0000000), wk =   0.0045351
        k(    7) = (   0.0000000   0.2857143   0.0000000), wk =   0.0045351
        k(    8) = (   0.0000000   0.3333333   0.0000000), wk =   0.0045351
        k(    9) = (   0.0000000   0.3809524   0.0000000), wk =   0.0045351
        k(   10) = (   0.0000000   0.4285714   0.0000000), wk =   0.0045351
        k(   11) = (   0.0000000   0.4761905   0.0000000), wk =   0.0045351
        k(   12) = (   0.0476190   0.0000000   0.0000000), wk =   0.0045351
        k(   13) = (   0.0476190   0.0476190   0.0000000), wk =   0.0045351
        k(   14) = (   0.0476190   0.0952381   0.0000000), wk =   0.0045351
        k(   15) = (   0.0476190   0.1428571   0.0000000), wk =   0.0045351
        k(   16) = (   0.0476190   0.1904762   0.0000000), wk =   0.0045351
        k(   17) = (   0.0476190   0.2380952   0.0000000), wk =   0.0045351
        k(   18) = (   0.0476190   0.2857143   0.0000000), wk =   0.0045351
        k(   19) = (   0.0476190   0.3333333   0.0000000), wk =   0.0045351
        k(   20) = (   0.0476190   0.3809524   0.0000000), wk =   0.0045351
        k(   21) = (   0.0476190   0.4285714   0.0000000), wk =   0.0045351
        k(   22) = (   0.0476190   0.4761905   0.0000000), wk =   0.0045351
        k(   23) = (   0.0476190  -0.4761905   0.0000000), wk =   0.0045351
        k(   24) = (   0.0476190  -0.4285714   0.0000000), wk =   0.0045351
        k(   25) = (   0.0476190  -0.3809524   0.0000000), wk =   0.0045351
        k(   26) = (   0.0476190  -0.3333333   0.0000000), wk =   0.0045351
        k(   27) = (   0.0476190  -0.2857143   0.0000000), wk =   0.0045351
        k(   28) = (   0.0476190  -0.2380952   0.0000000), wk =   0.0045351
        k(   29) = (   0.0476190  -0.1904762   0.0000000), wk =   0.0045351
        k(   30) = (   0.0476190  -0.1428571   0.0000000), wk =   0.0045351
        k(   31) = (   0.0476190  -0.0952381   0.0000000), wk =   0.0045351
        k(   32) = (   0.0476190  -0.0476190   0.0000000), wk =   0.0045351
        k(   33) = (   0.0952381   0.0000000   0.0000000), wk =   0.0045351
        k(   34) = (   0.0952381   0.0476190   0.0000000), wk =   0.0045351
        k(   35) = (   0.0952381   0.0952381   0.0000000), wk =   0.0045351
        k(   36) = (   0.0952381   0.1428571   0.0000000), wk =   0.0045351
        k(   37) = (   0.0952381   0.1904762   0.0000000), wk =   0.0045351
        k(   38) = (   0.0952381   0.2380952   0.0000000), wk =   0.0045351
        k(   39) = (   0.0952381   0.2857143   0.0000000), wk =   0.0045351
        k(   40) = (   0.0952381   0.3333333   0.0000000), wk =   0.0045351
        k(   41) = (   0.0952381   0.3809524   0.0000000), wk =   0.0045351
        k(   42) = (   0.0952381   0.4285714   0.0000000), wk =   0.0045351
        k(   43) = (   0.0952381   0.4761905   0.0000000), wk =   0.0045351
        k(   44) = (   0.0952381  -0.4761905   0.0000000), wk =   0.0045351
        k(   45) = (   0.0952381  -0.4285714   0.0000000), wk =   0.0045351
        k(   46) = (   0.0952381  -0.3809524   0.0000000), wk =   0.0045351
        k(   47) = (   0.0952381  -0.3333333   0.0000000), wk =   0.0045351
        k(   48) = (   0.0952381  -0.2857143   0.0000000), wk =   0.0045351
        k(   49) = (   0.0952381  -0.2380952   0.0000000), wk =   0.0045351
        k(   50) = (   0.0952381  -0.1904762   0.0000000), wk =   0.0045351
        k(   51) = (   0.0952381  -0.1428571   0.0000000), wk =   0.0045351
        k(   52) = (   0.0952381  -0.0952381   0.0000000), wk =   0.0045351
        k(   53) = (   0.0952381  -0.0476190   0.0000000), wk =   0.0045351
        k(   54) = (   0.1428571   0.0000000   0.0000000), wk =   0.0045351
        k(   55) = (   0.1428571   0.0476190   0.0000000), wk =   0.0045351
        k(   56) = (   0.1428571   0.0952381   0.0000000), wk =   0.0045351
        k(   57) = (   0.1428571   0.1428571   0.0000000), wk =   0.0045351
        k(   58) = (   0.1428571   0.1904762   0.0000000), wk =   0.0045351
        k(   59) = (   0.1428571   0.2380952   0.0000000), wk =   0.0045351
        k(   60) = (   0.1428571   0.2857143   0.0000000), wk =   0.0045351
        k(   61) = (   0.1428571   0.3333333   0.0000000), wk =   0.0045351
        k(   62) = (   0.1428571   0.3809524   0.0000000), wk =   0.0045351
        k(   63) = (   0.1428571   0.4285714   0.0000000), wk =   0.0045351
        k(   64) = (   0.1428571   0.4761905   0.0000000), wk =   0.0045351
        k(   65) = (   0.1428571  -0.4761905   0.0000000), wk =   0.0045351
        k(   66) = (   0.1428571  -0.4285714   0.0000000), wk =   0.0045351
        k(   67) = (   0.1428571  -0.3809524   0.0000000), wk =   0.0045351
        k(   68) = (   0.1428571  -0.3333333   0.0000000), wk =   0.0045351
        k(   69) = (   0.1428571  -0.2857143   0.0000000), wk =   0.0045351
        k(   70) = (   0.1428571  -0.2380952   0.0000000), wk =   0.0045351
        k(   71) = (   0.1428571  -0.1904762   0.0000000), wk =   0.0045351
        k(   72) = (   0.1428571  -0.1428571   0.0000000), wk =   0.0045351
        k(   73) = (   0.1428571  -0.0952381   0.0000000), wk =   0.0045351
        k(   74) = (   0.1428571  -0.0476190   0.0000000), wk =   0.0045351
        k(   75) = (   0.1904762   0.0000000   0.0000000), wk =   0.0045351
        k(   76) = (   0.1904762   0.0476190   0.0000000), wk =   0.0045351
        k(   77) = (   0.1904762   0.0952381   0.0000000), wk =   0.0045351
        k(   78) = (   0.1904762   0.1428571   0.0000000), wk =   0.0045351
        k(   79) = (   0.1904762   0.1904762   0.0000000), wk =   0.0045351
        k(   80) = (   0.1904762   0.2380952   0.0000000), wk =   0.0045351
        k(   81) = (   0.1904762   0.2857143   0.0000000), wk =   0.0045351
        k(   82) = (   0.1904762   0.3333333   0.0000000), wk =   0.0045351
        k(   83) = (   0.1904762   0.3809524   0.0000000), wk =   0.0045351
        k(   84) = (   0.1904762   0.4285714   0.0000000), wk =   0.0045351
        k(   85) = (   0.1904762   0.4761905   0.0000000), wk =   0.0045351
        k(   86) = (   0.1904762  -0.4761905   0.0000000), wk =   0.0045351
        k(   87) = (   0.1904762  -0.4285714   0.0000000), wk =   0.0045351
        k(   88) = (   0.1904762  -0.3809524   0.0000000), wk =   0.0045351
        k(   89) = (   0.1904762  -0.3333333   0.0000000), wk =   0.0045351
        k(   90) = (   0.1904762  -0.2857143   0.0000000), wk =   0.0045351
        k(   91) = (   0.1904762  -0.2380952   0.0000000), wk =   0.0045351
        k(   92) = (   0.1904762  -0.1904762   0.0000000), wk =   0.0045351
        k(   93) = (   0.1904762  -0.1428571   0.0000000), wk =   0.0045351
        k(   94) = (   0.1904762  -0.0952381   0.0000000), wk =   0.0045351
        k(   95) = (   0.1904762  -0.0476190   0.0000000), wk =   0.0045351
        k(   96) = (   0.2380952   0.0000000   0.0000000), wk =   0.0045351
        k(   97) = (   0.2380952   0.0476190   0.0000000), wk =   0.0045351
        k(   98) = (   0.2380952   0.0952381   0.0000000), wk =   0.0045351
        k(   99) = (   0.2380952   0.1428571   0.0000000), wk =   0.0045351
        k(  100) = (   0.2380952   0.1904762   0.0000000), wk =   0.0045351
        k(  101) = (   0.2380952   0.2380952   0.0000000), wk =   0.0045351
        k(  102) = (   0.2380952   0.2857143   0.0000000), wk =   0.0045351
        k(  103) = (   0.2380952   0.3333333   0.0000000), wk =   0.0045351
        k(  104) = (   0.2380952   0.3809524   0.0000000), wk =   0.0045351
        k(  105) = (   0.2380952   0.4285714   0.0000000), wk =   0.0045351
        k(  106) = (   0.2380952   0.4761905   0.0000000), wk =   0.0045351
        k(  107) = (   0.2380952  -0.4761905   0.0000000), wk =   0.0045351
        k(  108) = (   0.2380952  -0.4285714   0.0000000), wk =   0.0045351
        k(  109) = (   0.2380952  -0.3809524   0.0000000), wk =   0.0045351
        k(  110) = (   0.2380952  -0.3333333   0.0000000), wk =   0.0045351
        k(  111) = (   0.2380952  -0.2857143   0.0000000), wk =   0.0045351
        k(  112) = (   0.2380952  -0.2380952   0.0000000), wk =   0.0045351
        k(  113) = (   0.2380952  -0.1904762   0.0000000), wk =   0.0045351
        k(  114) = (   0.2380952  -0.1428571   0.0000000), wk =   0.0045351
        k(  115) = (   0.2380952  -0.0952381   0.0000000), wk =   0.0045351
        k(  116) = (   0.2380952  -0.0476190   0.0000000), wk =   0.0045351
        k(  117) = (   0.2857143   0.0000000   0.0000000), wk =   0.0045351
        k(  118) = (   0.2857143   0.0476190   0.0000000), wk =   0.0045351
        k(  119) = (   0.2857143   0.0952381   0.0000000), wk =   0.0045351
        k(  120) = (   0.2857143   0.1428571   0.0000000), wk =   0.0045351
        k(  121) = (   0.2857143   0.1904762   0.0000000), wk =   0.0045351
        k(  122) = (   0.2857143   0.2380952   0.0000000), wk =   0.0045351
        k(  123) = (   0.2857143   0.2857143   0.0000000), wk =   0.0045351
        k(  124) = (   0.2857143   0.3333333   0.0000000), wk =   0.0045351
        k(  125) = (   0.2857143   0.3809524   0.0000000), wk =   0.0045351
        k(  126) = (   0.2857143   0.4285714   0.0000000), wk =   0.0045351
        k(  127) = (   0.2857143   0.4761905   0.0000000), wk =   0.0045351
        k(  128) = (   0.2857143  -0.4761905   0.0000000), wk =   0.0045351
        k(  129) = (   0.2857143  -0.4285714   0.0000000), wk =   0.0045351
        k(  130) = (   0.2857143  -0.3809524   0.0000000), wk =   0.0045351
        k(  131) = (   0.2857143  -0.3333333   0.0000000), wk =   0.0045351
        k(  132) = (   0.2857143  -0.2857143   0.0000000), wk =   0.0045351
        k(  133) = (   0.2857143  -0.2380952   0.0000000), wk =   0.0045351
        k(  134) = (   0.2857143  -0.1904762   0.0000000), wk =   0.0045351
        k(  135) = (   0.2857143  -0.1428571   0.0000000), wk =   0.0045351
        k(  136) = (   0.2857143  -0.0952381   0.0000000), wk =   0.0045351
        k(  137) = (   0.2857143  -0.0476190   0.0000000), wk =   0.0045351
        k(  138) = (   0.3333333   0.0000000   0.0000000), wk =   0.0045351
        k(  139) = (   0.3333333   0.0476190   0.0000000), wk =   0.0045351
        k(  140) = (   0.3333333   0.0952381   0.0000000), wk =   0.0045351
        k(  141) = (   0.3333333   0.1428571   0.0000000), wk =   0.0045351
        k(  142) = (   0.3333333   0.1904762   0.0000000), wk =   0.0045351
        k(  143) = (   0.3333333   0.2380952   0.0000000), wk =   0.0045351
        k(  144) = (   0.3333333   0.2857143   0.0000000), wk =   0.0045351
        k(  145) = (   0.3333333   0.3333333   0.0000000), wk =   0.0045351
        k(  146) = (   0.3333333   0.3809524   0.0000000), wk =   0.0045351
        k(  147) = (   0.3333333   0.4285714   0.0000000), wk =   0.0045351
        k(  148) = (   0.3333333   0.4761905   0.0000000), wk =   0.0045351
        k(  149) = (   0.3333333  -0.4761905   0.0000000), wk =   0.0045351
        k(  150) = (   0.3333333  -0.4285714   0.0000000), wk =   0.0045351
        k(  151) = (   0.3333333  -0.3809524   0.0000000), wk =   0.0045351
        k(  152) = (   0.3333333  -0.3333333   0.0000000), wk =   0.0045351
        k(  153) = (   0.3333333  -0.2857143   0.0000000), wk =   0.0045351
        k(  154) = (   0.3333333  -0.2380952   0.0000000), wk =   0.0045351
        k(  155) = (   0.3333333  -0.1904762   0.0000000), wk =   0.0045351
        k(  156) = (   0.3333333  -0.1428571   0.0000000), wk =   0.0045351
        k(  157) = (   0.3333333  -0.0952381   0.0000000), wk =   0.0045351
        k(  158) = (   0.3333333  -0.0476190   0.0000000), wk =   0.0045351
        k(  159) = (   0.3809524   0.0000000   0.0000000), wk =   0.0045351
        k(  160) = (   0.3809524   0.0476190   0.0000000), wk =   0.0045351
        k(  161) = (   0.3809524   0.0952381   0.0000000), wk =   0.0045351
        k(  162) = (   0.3809524   0.1428571   0.0000000), wk =   0.0045351
        k(  163) = (   0.3809524   0.1904762   0.0000000), wk =   0.0045351
        k(  164) = (   0.3809524   0.2380952   0.0000000), wk =   0.0045351
        k(  165) = (   0.3809524   0.2857143   0.0000000), wk =   0.0045351
        k(  166) = (   0.3809524   0.3333333   0.0000000), wk =   0.0045351
        k(  167) = (   0.3809524   0.3809524   0.0000000), wk =   0.0045351
        k(  168) = (   0.3809524   0.4285714   0.0000000), wk =   0.0045351
        k(  169) = (   0.3809524   0.4761905   0.0000000), wk =   0.0045351
        k(  170) = (   0.3809524  -0.4761905   0.0000000), wk =   0.0045351
        k(  171) = (   0.3809524  -0.4285714   0.0000000), wk =   0.0045351
        k(  172) = (   0.3809524  -0.3809524   0.0000000), wk =   0.0045351
        k(  173) = (   0.3809524  -0.3333333   0.0000000), wk =   0.0045351
        k(  174) = (   0.3809524  -0.2857143   0.0000000), wk =   0.0045351
        k(  175) = (   0.3809524  -0.2380952   0.0000000), wk =   0.0045351
        k(  176) = (   0.3809524  -0.1904762   0.0000000), wk =   0.0045351
        k(  177) = (   0.3809524  -0.1428571   0.0000000), wk =   0.0045351
        k(  178) = (   0.3809524  -0.0952381   0.0000000), wk =   0.0045351
        k(  179) = (   0.3809524  -0.0476190   0.0000000), wk =   0.0045351
        k(  180) = (   0.4285714   0.0000000   0.0000000), wk =   0.0045351
        k(  181) = (   0.4285714   0.0476190   0.0000000), wk =   0.0045351
        k(  182) = (   0.4285714   0.0952381   0.0000000), wk =   0.0045351
        k(  183) = (   0.4285714   0.1428571   0.0000000), wk =   0.0045351
        k(  184) = (   0.4285714   0.1904762   0.0000000), wk =   0.0045351
        k(  185) = (   0.4285714   0.2380952   0.0000000), wk =   0.0045351
        k(  186) = (   0.4285714   0.2857143   0.0000000), wk =   0.0045351
        k(  187) = (   0.4285714   0.3333333   0.0000000), wk =   0.0045351
        k(  188) = (   0.4285714   0.3809524   0.0000000), wk =   0.0045351
        k(  189) = (   0.4285714   0.4285714   0.0000000), wk =   0.0045351
        k(  190) = (   0.4285714   0.4761905   0.0000000), wk =   0.0045351
        k(  191) = (   0.4285714  -0.4761905   0.0000000), wk =   0.0045351
        k(  192) = (   0.4285714  -0.4285714   0.0000000), wk =   0.0045351
        k(  193) = (   0.4285714  -0.3809524   0.0000000), wk =   0.0045351
        k(  194) = (   0.4285714  -0.3333333   0.0000000), wk =   0.0045351
        k(  195) = (   0.4285714  -0.2857143   0.0000000), wk =   0.0045351
        k(  196) = (   0.4285714  -0.2380952   0.0000000), wk =   0.0045351
        k(  197) = (   0.4285714  -0.1904762   0.0000000), wk =   0.0045351
        k(  198) = (   0.4285714  -0.1428571   0.0000000), wk =   0.0045351
        k(  199) = (   0.4285714  -0.0952381   0.0000000), wk =   0.0045351
        k(  200) = (   0.4285714  -0.0476190   0.0000000), wk =   0.0045351
        k(  201) = (   0.4761905   0.0000000   0.0000000), wk =   0.0045351
        k(  202) = (   0.4761905   0.0476190   0.0000000), wk =   0.0045351
        k(  203) = (   0.4761905   0.0952381   0.0000000), wk =   0.0045351
        k(  204) = (   0.4761905   0.1428571   0.0000000), wk =   0.0045351
        k(  205) = (   0.4761905   0.1904762   0.0000000), wk =   0.0045351
        k(  206) = (   0.4761905   0.2380952   0.0000000), wk =   0.0045351
        k(  207) = (   0.4761905   0.2857143   0.0000000), wk =   0.0045351
        k(  208) = (   0.4761905   0.3333333   0.0000000), wk =   0.0045351
        k(  209) = (   0.4761905   0.3809524   0.0000000), wk =   0.0045351
        k(  210) = (   0.4761905   0.4285714   0.0000000), wk =   0.0045351
        k(  211) = (   0.4761905   0.4761905   0.0000000), wk =   0.0045351
        k(  212) = (   0.4761905  -0.4761905   0.0000000), wk =   0.0045351
        k(  213) = (   0.4761905  -0.4285714   0.0000000), wk =   0.0045351
        k(  214) = (   0.4761905  -0.3809524   0.0000000), wk =   0.0045351
        k(  215) = (   0.4761905  -0.3333333   0.0000000), wk =   0.0045351
        k(  216) = (   0.4761905  -0.2857143   0.0000000), wk =   0.0045351
        k(  217) = (   0.4761905  -0.2380952   0.0000000), wk =   0.0045351
        k(  218) = (   0.4761905  -0.1904762   0.0000000), wk =   0.0045351
        k(  219) = (   0.4761905  -0.1428571   0.0000000), wk =   0.0045351
        k(  220) = (   0.4761905  -0.0952381   0.0000000), wk =   0.0045351
        k(  221) = (   0.4761905  -0.0476190   0.0000000), wk =   0.0045351

     Dense  grid:   767663 G-vectors     FFT dimensions: (  72,  72, 360)

     Smooth grid:   194215 G-vectors     FFT dimensions: (  45,  45, 225)

     Dynamical RAM for                 wfc:       2.41 MB

     Dynamical RAM for     wfc (w. buffer):     534.26 MB

     Dynamical RAM for           str. fact:       0.98 MB

     Dynamical RAM for           local pot:       0.00 MB

     Dynamical RAM for          nlocal pot:       2.62 MB

     Dynamical RAM for                qrad:      11.12 MB

     Dynamical RAM for          rho,v,vnew:      12.98 MB

     Dynamical RAM for               rhoin:       4.33 MB

     Dynamical RAM for            rho*nmix:      31.24 MB

     Dynamical RAM for           G-vectors:       1.89 MB

     Dynamical RAM for          h,s,v(r/c):       1.11 MB

     Dynamical RAM for          <psi|beta>:       0.40 MB

     Dynamical RAM for                 psi:       4.81 MB

     Dynamical RAM for                hpsi:       4.81 MB

     Dynamical RAM for      wfcinit/wfcrot:       3.75 MB

     Estimated static dynamical RAM per process >     574.37 MB

     Estimated max dynamical RAM per process >     616.76 MB

     Estimated total dynamical RAM >      14.46 GB

     Initial potential from superposition of free atoms

     starting charge      77.7613, renormalised to      78.0000

     negative rho (up, down):  2.702E-04 0.000E+00
     Starting wfcs are random

     total cpu time spent up to now is       31.5 secs

     Self-consistent Calculation

     iteration #  1     ecut=    70.00 Ry     beta= 0.70
     Davidson diagonalization with overlap

---- Real-time Memory Report at c_bands before calling an iterative solver
           777 MiB given to the printing process from OS
             0 MiB allocation reported by mallinfo(arena+hblkhd)
         58439 MiB available memory on the node where the printing process lives
------------------
     ethr =  1.00E-02,  avg # of iterations = 12.5

     Threshold (ethr) on eigenvalues was too large:
     Diagonalizing with lowered threshold

     Davidson diagonalization with overlap

---- Real-time Memory Report at c_bands before calling an iterative solver
           789 MiB given to the printing process from OS
             0 MiB allocation reported by mallinfo(arena+hblkhd)
         58299 MiB available memory on the node where the printing process lives
------------------
     ethr =  1.17E-04,  avg # of iterations =  6.0

     negative rho (up, down):  3.299E-06 0.000E+00

     total cpu time spent up to now is      514.2 secs

     total energy              =    -806.63950255 Ry
     estimated scf accuracy    <       0.07936952 Ry

     iteration #  2     ecut=    70.00 Ry     beta= 0.70
     Davidson diagonalization with overlap

---- Real-time Memory Report at c_bands before calling an iterative solver
           791 MiB given to the printing process from OS
             0 MiB allocation reported by mallinfo(arena+hblkhd)
         58284 MiB available memory on the node where the printing process lives
------------------
     ethr =  1.02E-04,  avg # of iterations =  5.1

     negative rho (up, down):  2.197E-05 0.000E+00

     total cpu time spent up to now is      643.4 secs

     total energy              =    -806.59898932 Ry
     estimated scf accuracy    <       0.39580765 Ry

     iteration #  3     ecut=    70.00 Ry     beta= 0.70
     Davidson diagonalization with overlap

---- Real-time Memory Report at c_bands before calling an iterative solver
           793 MiB given to the printing process from OS
             0 MiB allocation reported by mallinfo(arena+hblkhd)
         58260 MiB available memory on the node where the printing process lives
------------------
     ethr =  1.02E-04,  avg # of iterations =  5.3

     negative rho (up, down):  1.908E-05 0.000E+00

     total cpu time spent up to now is      762.4 secs

     total energy              =    -806.64907438 Ry
     estimated scf accuracy    <       0.22874454 Ry

     iteration #  4     ecut=    70.00 Ry     beta= 0.70
     Davidson diagonalization with overlap

---- Real-time Memory Report at c_bands before calling an iterative solver
           795 MiB given to the printing process from OS
             0 MiB allocation reported by mallinfo(arena+hblkhd)
         58246 MiB available memory on the node where the printing process lives
------------------
     ethr =  1.02E-04,  avg # of iterations =  3.4

     negative rho (up, down):  5.071E-06 0.000E+00

     total cpu time spent up to now is      864.0 secs

     total energy              =    -806.67256749 Ry
     estimated scf accuracy    <       0.00402726 Ry

     iteration #  5     ecut=    70.00 Ry     beta= 0.70
     Davidson diagonalization with overlap

---- Real-time Memory Report at c_bands before calling an iterative solver
           804 MiB given to the printing process from OS
             0 MiB allocation reported by mallinfo(arena+hblkhd)
         58226 MiB available memory on the node where the printing process lives
------------------
     ethr =  5.16E-06,  avg # of iterations =  6.9

     negative rho (up, down):  2.295E-06 0.000E+00

     total cpu time spent up to now is      989.2 secs

     total energy              =    -806.66918194 Ry
     estimated scf accuracy    <       0.09106423 Ry

     iteration #  6     ecut=    70.00 Ry     beta= 0.70
     Davidson diagonalization with overlap

---- Real-time Memory Report at c_bands before calling an iterative solver
           805 MiB given to the printing process from OS
             0 MiB allocation reported by mallinfo(arena+hblkhd)
         58215 MiB available memory on the node where the printing process lives
------------------
     ethr =  5.16E-06,  avg # of iterations =  6.9

     negative rho (up, down):  3.646E-08 0.000E+00

     total cpu time spent up to now is     1103.9 secs

     total energy              =    -806.67403222 Ry
     estimated scf accuracy    <       0.00277098 Ry

     iteration #  7     ecut=    70.00 Ry     beta= 0.70
     Davidson diagonalization with overlap

---- Real-time Memory Report at c_bands before calling an iterative solver
           806 MiB given to the printing process from OS
             0 MiB allocation reported by mallinfo(arena+hblkhd)
         58201 MiB available memory on the node where the printing process lives
------------------
     ethr =  3.55E-06,  avg # of iterations =  2.7

     total cpu time spent up to now is     1194.8 secs

     total energy              =    -806.67425527 Ry
     estimated scf accuracy    <       0.00010994 Ry

     iteration #  8     ecut=    70.00 Ry     beta= 0.70
     Davidson diagonalization with overlap

---- Real-time Memory Report at c_bands before calling an iterative solver
           807 MiB given to the printing process from OS
             0 MiB allocation reported by mallinfo(arena+hblkhd)
         58190 MiB available memory on the node where the printing process lives
------------------
     ethr =  1.41E-07,  avg # of iterations =  5.8

     total cpu time spent up to now is     1311.6 secs

     total energy              =    -806.67429109 Ry
     estimated scf accuracy    <       0.00014589 Ry

     iteration #  9     ecut=    70.00 Ry     beta= 0.70
     Davidson diagonalization with overlap

---- Real-time Memory Report at c_bands before calling an iterative solver
           811 MiB given to the printing process from OS
             0 MiB allocation reported by mallinfo(arena+hblkhd)
         58176 MiB available memory on the node where the printing process lives
------------------
     ethr =  1.41E-07,  avg # of iterations =  2.0

     total cpu time spent up to now is     1398.8 secs

     total energy              =    -806.67428619 Ry
     estimated scf accuracy    <       0.00006212 Ry

     iteration # 10     ecut=    70.00 Ry     beta= 0.70
     Davidson diagonalization with overlap

---- Real-time Memory Report at c_bands before calling an iterative solver
           812 MiB given to the printing process from OS
             0 MiB allocation reported by mallinfo(arena+hblkhd)
         58162 MiB available memory on the node where the printing process lives
------------------
     ethr =  7.96E-08,  avg # of iterations =  3.4

     total cpu time spent up to now is     1492.6 secs

     total energy              =    -806.67429022 Ry
     estimated scf accuracy    <       0.00000344 Ry

     iteration # 11     ecut=    70.00 Ry     beta= 0.70
     Davidson diagonalization with overlap

---- Real-time Memory Report at c_bands before calling an iterative solver
           813 MiB given to the printing process from OS
             0 MiB allocation reported by mallinfo(arena+hblkhd)
         58152 MiB available memory on the node where the printing process lives
------------------
     ethr =  4.40E-09,  avg # of iterations =  5.7

     total cpu time spent up to now is     1606.4 secs

     total energy              =    -806.67429113 Ry
     estimated scf accuracy    <       0.00000388 Ry

     iteration # 12     ecut=    70.00 Ry     beta= 0.70
     Davidson diagonalization with overlap

---- Real-time Memory Report at c_bands before calling an iterative solver
           813 MiB given to the printing process from OS
             0 MiB allocation reported by mallinfo(arena+hblkhd)
         58141 MiB available memory on the node where the printing process lives
------------------
     ethr =  4.40E-09,  avg # of iterations =  2.3

     total cpu time spent up to now is     1695.5 secs

     total energy              =    -806.67429129 Ry
     estimated scf accuracy    <       0.00000035 Ry

     iteration # 13     ecut=    70.00 Ry     beta= 0.70
     Davidson diagonalization with overlap

---- Real-time Memory Report at c_bands before calling an iterative solver
           813 MiB given to the printing process from OS
             0 MiB allocation reported by mallinfo(arena+hblkhd)
         58139 MiB available memory on the node where the printing process lives
------------------
     ethr =  4.53E-10,  avg # of iterations =  5.7

     total cpu time spent up to now is     1807.2 secs

     total energy              =    -806.67429136 Ry
     estimated scf accuracy    <       0.00000026 Ry

     iteration # 14     ecut=    70.00 Ry     beta= 0.70
     Davidson diagonalization with overlap

---- Real-time Memory Report at c_bands before calling an iterative solver
           813 MiB given to the printing process from OS
             0 MiB allocation reported by mallinfo(arena+hblkhd)
         58139 MiB available memory on the node where the printing process lives
------------------
     ethr =  3.36E-10,  avg # of iterations =  2.2

     total cpu time spent up to now is     1895.0 secs

     End of self-consistent calculation

          k = 0.0000 0.0000 0.0000 ( 24159 PWs)   bands (ev):

   -35.5012 -35.5012 -35.5010 -35.5010 -35.4726 -35.4726 -35.4723 -35.4723
   -35.3926 -35.3926 -35.3591 -35.3591 -34.0419 -34.0419 -34.0417 -34.0417
   -34.0177 -34.0177 -34.0175 -34.0175 -34.0048 -34.0048 -34.0045 -34.0045
   -33.9302 -33.9302 -33.9149 -33.9149 -33.8866 -33.8866 -28.1333 -28.1333
   -28.1330 -28.1330 -28.1247 -28.1247 -28.1246 -28.1246 -26.8941 -26.8941
   -26.8938 -26.8938 -26.8846 -26.8846 -26.8844 -26.8844 -26.8829 -26.8829
   -26.8827 -26.8827 -10.6311 -10.6311 -10.0995 -10.0995  -9.0193  -9.0193
    -6.2664  -6.2664  -4.8720  -4.8720  -0.5042  -0.5042  -0.0251  -0.0251
     0.2369   0.2369   0.4962   0.4962   0.5728   0.5728   0.6838   0.6838
     0.9298   0.9298   1.2734   1.2734   1.4252   1.4252

     occupation numbers 
     1.0000   1.0000   1.0000   1.0000   1.0000   1.0000   1.0000   1.0000
     1.0000   1.0000   1.0000   1.0000   1.0000   1.0000   1.0000   1.0000
     1.0000   1.0000   1.0000   1.0000   1.0000   1.0000   1.0000   1.0000
     1.0000   1.0000   1.0000   1.0000   1.0000   1.0000   1.0000   1.0000
     1.0000   1.0000   1.0000   1.0000   1.0000   1.0000   1.0000   1.0000
     1.0000   1.0000   1.0000   1.0000   1.0000   1.0000   1.0000   1.0000
     1.0000   1.0000   1.0000   1.0000   1.0000   1.0000   1.0000   1.0000
     1.0000   1.0000   1.0000   1.0000   1.0000   1.0000   1.0000   1.0000
     1.0000   1.0000   1.0000   1.0000   1.0000   1.0000   1.0000   1.0000
     1.0000   1.0000   1.0000   1.0000   1.0000   1.0000

          k = 0.0000 0.0561 0.0000 ( 24167 PWs)   bands (ev):

   -35.5012 -35.5012 -35.5010 -35.5010 -35.4726 -35.4726 -35.4724 -35.4723
   -35.3926 -35.3926 -35.3591 -35.3591 -34.0419 -34.0419 -34.0417 -34.0417
   -34.0177 -34.0177 -34.0175 -34.0174 -34.0048 -34.0048 -34.0045 -34.0045
   -33.9302 -33.9302 -33.9149 -33.9149 -33.8865 -33.8865 -28.1333 -28.1333
   -28.1330 -28.1330 -28.1248 -28.1247 -28.1246 -28.1245 -26.8941 -26.8941
   -26.8938 -26.8938 -26.8846 -26.8846 -26.8845 -26.8844 -26.8829 -26.8829
   -26.8827 -26.8827 -10.6112 -10.6112 -10.0812 -10.0812  -9.0080  -9.0080
    -6.2683  -6.2683  -4.9040  -4.9040  -0.5331  -0.5329  -0.1997  -0.1993
     0.2053   0.2061   0.3142   0.3149   0.4161   0.4168   0.7124   0.7138
     0.9980   0.9986   1.2046   1.2051   1.5711   1.5715

     occupation numbers 
     1.0000   1.0000   1.0000   1.0000   1.0000   1.0000   1.0000   1.0000
     1.0000   1.0000   1.0000   1.0000   1.0000   1.0000   1.0000   1.0000
     1.0000   1.0000   1.0000   1.0000   1.0000   1.0000   1.0000   1.0000
     1.0000   1.0000   1.0000   1.0000   1.0000   1.0000   1.0000   1.0000
     1.0000   1.0000   1.0000   1.0000   1.0000   1.0000   1.0000   1.0000
     1.0000   1.0000   1.0000   1.0000   1.0000   1.0000   1.0000   1.0000
     1.0000   1.0000   1.0000   1.0000   1.0000   1.0000   1.0000   1.0000
     1.0000   1.0000   1.0000   1.0000   1.0000   1.0000   1.0000   1.0000
     1.0000   1.0000   1.0000   1.0000   1.0000   1.0000   1.0000   1.0000
     1.0000   1.0000   1.0000   1.0000   1.0000   1.0000

          k = 0.0000 0.1122 0.0000 ( 24195 PWs)   bands (ev):

   -35.5012 -35.5012 -35.5009 -35.5009 -35.4726 -35.4726 -35.4723 -35.4723
   -35.3926 -35.3926 -35.3590 -35.3590 -34.0419 -34.0418 -34.0416 -34.0416
   -34.0177 -34.0177 -34.0175 -34.0174 -34.0048 -34.0047 -34.0045 -34.0044
   -33.9302 -33.9302 -33.9149 -33.9149 -33.8865 -33.8865 -28.1332 -28.1332
   -28.1330 -28.1330 -28.1248 -28.1247 -28.1246 -28.1245 -26.8939 -26.8939
   -26.8937 -26.8937 -26.8847 -26.8846 -26.8845 -26.8844 -26.8830 -26.8829
   -26.8828 -26.8826 -10.5519 -10.5519 -10.0267 -10.0267  -8.9746  -8.9746
    -6.2763  -6.2763  -5.0001  -5.0001  -0.6755  -0.6753  -0.5154  -0.5150
    -0.1001  -0.0991   0.1122   0.1124   0.2689   0.2693   0.5314   0.5319
     0.9574   0.9578   1.3979   1.3982   1.6802   1.6805

     occupation numbers 
     1.0000   1.0000   1.0000   1.0000   1.0000   1.0000   1.0000   1.0000
     1.0000   1.0000   1.0000   1.0000   1.0000   1.0000   1.0000   1.0000
     1.0000   1.0000   1.0000   1.0000   1.0000   1.0000   1.0000   1.0000
     1.0000   1.0000   1.0000   1.0000   1.0000   1.0000   1.0000   1.0000
     1.0000   1.0000   1.0000   1.0000   1.0000   1.0000   1.0000   1.0000
     1.0000   1.0000   1.0000   1.0000   1.0000   1.0000   1.0000   1.0000
     1.0000   1.0000   1.0000   1.0000   1.0000   1.0000   1.0000   1.0000
     1.0000   1.0000   1.0000   1.0000   1.0000   1.0000   1.0000   1.0000
     1.0000   1.0000   1.0000   1.0000   1.0000   1.0000   1.0000   1.0000
     1.0000   1.0000   1.0000   1.0000   1.0000   1.0000

          k = 0.0000 0.1683 0.0000 ( 24198 PWs)   bands (ev):

   -35.5011 -35.5011 -35.5009 -35.5009 -35.4726 -35.4726 -35.4723 -35.4723
   -35.3926 -35.3926 -35.3590 -35.3590 -34.0418 -34.0418 -34.0415 -34.0415
   -34.0177 -34.0177 -34.0175 -34.0175 -34.0047 -34.0047 -34.0044 -34.0044
   -33.9302 -33.9302 -33.9149 -33.9149 -33.8864 -33.8864 -28.1331 -28.1331
   -28.1329 -28.1329 -28.1249 -28.1247 -28.1247 -28.1245 -26.8937 -26.8937
   -26.8935 -26.8935 -26.8848 -26.8846 -26.8846 -26.8845 -26.8830 -26.8829
   -26.8827 -26.8826 -10.4538 -10.4538  -9.9372  -9.9372  -8.9218  -8.9218
    -6.2964  -6.2964  -5.1594  -5.1593  -1.0834  -1.0832  -0.6915  -0.6912
    -0.4499  -0.4490  -0.1030  -0.1028   0.0357   0.0359   0.3752   0.3757
     0.9536   0.9539   1.4004   1.4008   1.6482   1.6485

     occupation numbers 
     1.0000   1.0000   1.0000   1.0000   1.0000   1.0000   1.0000   1.0000
     1.0000   1.0000   1.0000   1.0000   1.0000   1.0000   1.0000   1.0000
     1.0000   1.0000   1.0000   1.0000   1.0000   1.0000   1.0000   1.0000
     1.0000   1.0000   1.0000   1.0000   1.0000   1.0000   1.0000   1.0000
     1.0000   1.0000   1.0000   1.0000   1.0000   1.0000   1.0000   1.0000
     1.0000   1.0000   1.0000   1.0000   1.0000   1.0000   1.0000   1.0000
     1.0000   1.0000   1.0000   1.0000   1.0000   1.0000   1.0000   1.0000
     1.0000   1.0000   1.0000   1.0000   1.0000   1.0000   1.0000   1.0000
     1.0000   1.0000   1.0000   1.0000   1.0000   1.0000   1.0000   1.0000
     1.0000   1.0000   1.0000   1.0000   1.0000   1.0000

          k = 0.0000 0.2243 0.0000 ( 24224 PWs)   bands (ev):

   -35.5011 -35.5011 -35.5008 -35.5008 -35.4726 -35.4726 -35.4723 -35.4723
   -35.3926 -35.3926 -35.3589 -35.3589 -34.0417 -34.0417 -34.0414 -34.0414
   -34.0178 -34.0177 -34.0175 -34.0175 -34.0047 -34.0046 -34.0044 -34.0043
   -33.9301 -33.9301 -33.9149 -33.9149 -33.8863 -33.8863 -28.1330 -28.1330
   -28.1328 -28.1328 -28.1249 -28.1248 -28.1247 -28.1246 -26.8935 -26.8935
   -26.8933 -26.8933 -26.8848 -26.8847 -26.8847 -26.8845 -26.8830 -26.8829
   -26.8827 -26.8826 -10.3184 -10.3184  -9.8150  -9.8150  -8.8539  -8.8539
    -6.3384  -6.3384  -5.3759  -5.3759  -1.5361  -1.5359  -0.8514  -0.8510
    -0.7994  -0.7991  -0.3530  -0.3527  -0.1623  -0.1620   0.3035   0.3041
     0.8483   0.8490   1.1378   1.1385   1.7529   1.7532

     occupation numbers 
     1.0000   1.0000   1.0000   1.0000   1.0000   1.0000   1.0000   1.0000
     1.0000   1.0000   1.0000   1.0000   1.0000   1.0000   1.0000   1.0000
     1.0000   1.0000   1.0000   1.0000   1.0000   1.0000   1.0000   1.0000
     1.0000   1.0000   1.0000   1.0000   1.0000   1.0000   1.0000   1.0000
     1.0000   1.0000   1.0000   1.0000   1.0000   1.0000   1.0000   1.0000
     1.0000   1.0000   1.0000   1.0000   1.0000   1.0000   1.0000   1.0000
     1.0000   1.0000   1.0000   1.0000   1.0000   1.0000   1.0000   1.0000
     1.0000   1.0000   1.0000   1.0000   1.0000   1.0000   1.0000   1.0000
     1.0000   1.0000   1.0000   1.0000   1.0000   1.0000   1.0000   1.0000
     1.0000   1.0000   1.0000   1.0000   1.0000   1.0000

          k = 0.0000 0.2804 0.0000 ( 24250 PWs)   bands (ev):

   -35.5010 -35.5010 -35.5007 -35.5007 -35.4726 -35.4725 -35.4723 -35.4723
   -35.3926 -35.3926 -35.3588 -35.3588 -34.0416 -34.0415 -34.0413 -34.0413
   -34.0178 -34.0177 -34.0175 -34.0175 -34.0046 -34.0046 -34.0043 -34.0043
   -33.9301 -33.9301 -33.9149 -33.9149 -33.8862 -33.8862 -28.1329 -28.1328
   -28.1327 -28.1326 -28.1250 -28.1248 -28.1247 -28.1246 -26.8933 -26.8932
   -26.8930 -26.8930 -26.8849 -26.8848 -26.8847 -26.8846 -26.8830 -26.8829
   -26.8827 -26.8825 -10.1477 -10.1476  -9.6635  -9.6635  -8.7780  -8.7779
    -6.4152  -6.4152  -5.6359  -5.6359  -1.9511  -1.9510  -1.1532  -1.1526
    -0.9823  -0.9817  -0.5750  -0.5746  -0.3341  -0.3338   0.2660   0.2666
     0.5778   0.5782   1.0284   1.0288   1.7133   1.7136

     occupation numbers 
     1.0000   1.0000   1.0000   1.0000   1.0000   1.0000   1.0000   1.0000
     1.0000   1.0000   1.0000   1.0000   1.0000   1.0000   1.0000   1.0000
     1.0000   1.0000   1.0000   1.0000   1.0000   1.0000   1.0000   1.0000
     1.0000   1.0000   1.0000   1.0000   1.0000   1.0000   1.0000   1.0000
     1.0000   1.0000   1.0000   1.0000   1.0000   1.0000   1.0000   1.0000
     1.0000   1.0000   1.0000   1.0000   1.0000   1.0000   1.0000   1.0000
     1.0000   1.0000   1.0000   1.0000   1.0000   1.0000   1.0000   1.0000
     1.0000   1.0000   1.0000   1.0000   1.0000   1.0000   1.0000   1.0000
     1.0000   1.0000   1.0000   1.0000   1.0000   1.0000   1.0000   1.0000
     1.0000   1.0000   1.0000   1.0000   1.0000   1.0000

          k = 0.0000 0.3365 0.0000 ( 24278 PWs)   bands (ev):

   -35.5009 -35.5009 -35.5007 -35.5007 -35.4726 -35.4725 -35.4723 -35.4722
   -35.3926 -35.3926 -35.3588 -35.3588 -34.0414 -34.0414 -34.0412 -34.0412
   -34.0178 -34.0177 -34.0175 -34.0175 -34.0046 -34.0045 -34.0043 -34.0042
   -33.9301 -33.9301 -33.9149 -33.9149 -33.8860 -33.8860 -28.1327 -28.1327
   -28.1325 -28.1325 -28.1250 -28.1249 -28.1247 -28.1246 -26.8930 -26.8930
   -26.8928 -26.8928 -26.8850 -26.8849 -26.8848 -26.8847 -26.8829 -26.8828
   -26.8826 -26.8825  -9.9450  -9.9450  -9.4887  -9.4887  -8.7042  -8.7042
    -6.5390  -6.5389  -5.9159  -5.9158  -2.3053  -2.3052  -1.4412  -1.4408
    -1.1189  -1.1182  -0.7440  -0.7435  -0.4993  -0.4991   0.1658   0.1660
     0.3774   0.3775   0.9712   0.9715   1.5586   1.5589

     occupation numbers 
     1.0000   1.0000   1.0000   1.0000   1.0000   1.0000   1.0000   1.0000
     1.0000   1.0000   1.0000   1.0000   1.0000   1.0000   1.0000   1.0000
     1.0000   1.0000   1.0000   1.0000   1.0000   1.0000   1.0000   1.0000
     1.0000   1.0000   1.0000   1.0000   1.0000   1.0000   1.0000   1.0000
     1.0000   1.0000   1.0000   1.0000   1.0000   1.0000   1.0000   1.0000
     1.0000   1.0000   1.0000   1.0000   1.0000   1.0000   1.0000   1.0000
     1.0000   1.0000   1.0000   1.0000   1.0000   1.0000   1.0000   1.0000
     1.0000   1.0000   1.0000   1.0000   1.0000   1.0000   1.0000   1.0000
     1.0000   1.0000   1.0000   1.0000   1.0000   1.0000   1.0000   1.0000
     1.0000   1.0000   1.0000   1.0000   1.0000   1.0000

          k = 0.0000 0.3926 0.0000 ( 24285 PWs)   bands (ev):

   -35.5009 -35.5009 -35.5006 -35.5006 -35.4725 -35.4725 -35.4723 -35.4722
   -35.3926 -35.3926 -35.3587 -35.3587 -34.0413 -34.0413 -34.0411 -34.0411
   -34.0178 -34.0177 -34.0175 -34.0175 -34.0045 -34.0044 -34.0042 -34.0042
   -33.9300 -33.9300 -33.9149 -33.9149 -33.8859 -33.8859 -28.1326 -28.1326
   -28.1324 -28.1324 -28.1250 -28.1249 -28.1248 -28.1247 -26.8928 -26.8928
   -26.8926 -26.8926 -26.8851 -26.8850 -26.8849 -26.8849 -26.8828 -26.8827
   -26.8825 -26.8824  -9.7157  -9.7157  -9.2998  -9.2998  -8.6475  -8.6475
    -6.7139  -6.7139  -6.1858  -6.1858  -2.5915  -2.5915  -1.6520  -1.6517
    -1.2506  -1.2500  -0.8735  -0.8730  -0.6514  -0.6513  -0.0257  -0.0255
     0.3315   0.3319   0.9319   0.9321   1.3714   1.3717

     occupation numbers 
     1.0000   1.0000   1.0000   1.0000   1.0000   1.0000   1.0000   1.0000
     1.0000   1.0000   1.0000   1.0000   1.0000   1.0000   1.0000   1.0000
     1.0000   1.0000   1.0000   1.0000   1.0000   1.0000   1.0000   1.0000
     1.0000   1.0000   1.0000   1.0000   1.0000   1.0000   1.0000   1.0000
     1.0000   1.0000   1.0000   1.0000   1.0000   1.0000   1.0000   1.0000
     1.0000   1.0000   1.0000   1.0000   1.0000   1.0000   1.0000   1.0000
     1.0000   1.0000   1.0000   1.0000   1.0000   1.0000   1.0000   1.0000
     1.0000   1.0000   1.0000   1.0000   1.0000   1.0000   1.0000   1.0000
     1.0000   1.0000   1.0000   1.0000   1.0000   1.0000   1.0000   1.0000
     1.0000   1.0000   1.0000   1.0000   1.0000   1.0000

          k = 0.0000 0.4487 0.0000 ( 24285 PWs)   bands (ev):

   -35.5008 -35.5008 -35.5005 -35.5005 -35.4725 -35.4725 -35.4722 -35.4722
   -35.3925 -35.3925 -35.3586 -35.3586 -34.0412 -34.0412 -34.0410 -34.0410
   -34.0178 -34.0178 -34.0175 -34.0175 -34.0044 -34.0044 -34.0042 -34.0041
   -33.9300 -33.9300 -33.9149 -33.9149 -33.8858 -33.8858 -28.1325 -28.1325
   -28.1323 -28.1323 -28.1250 -28.1249 -28.1248 -28.1247 -26.8926 -26.8926
   -26.8924 -26.8924 -26.8852 -26.8851 -26.8850 -26.8849 -26.8828 -26.8827
   -26.8824 -26.8823  -9.4680  -9.4680  -9.1123  -9.1123  -8.6280  -8.6280
    -6.9212  -6.9212  -6.4184  -6.4184  -2.8099  -2.8098  -1.7693  -1.7691
    -1.3780  -1.3775  -0.9989  -0.9986  -0.7680  -0.7678  -0.1563  -0.1560
     0.2982   0.2986   0.9096   0.9098   1.2102   1.2104

     occupation numbers 
     1.0000   1.0000   1.0000   1.0000   1.0000   1.0000   1.0000   1.0000
     1.0000   1.0000   1.0000   1.0000   1.0000   1.0000   1.0000   1.0000
     1.0000   1.0000   1.0000   1.0000   1.0000   1.0000   1.0000   1.0000
     1.0000   1.0000   1.0000   1.0000   1.0000   1.0000   1.0000   1.0000
     1.0000   1.0000   1.0000   1.0000   1.0000   1.0000   1.0000   1.0000
     1.0000   1.0000   1.0000   1.0000   1.0000   1.0000   1.0000   1.0000
     1.0000   1.0000   1.0000   1.0000   1.0000   1.0000   1.0000   1.0000
     1.0000   1.0000   1.0000   1.0000   1.0000   1.0000   1.0000   1.0000
     1.0000   1.0000   1.0000   1.0000   1.0000   1.0000   1.0000   1.0000
     1.0000   1.0000   1.0000   1.0000   1.0000   1.0000

          k = 0.0000 0.5048 0.0000 ( 24269 PWs)   bands (ev):

   -35.5008 -35.5008 -35.5005 -35.5005 -35.4725 -35.4725 -35.4722 -35.4722
   -35.3925 -35.3925 -35.3586 -35.3586 -34.0412 -34.0411 -34.0409 -34.0409
   -34.0178 -34.0178 -34.0175 -34.0175 -34.0044 -34.0044 -34.0041 -34.0041
   -33.9300 -33.9300 -33.9149 -33.9149 -33.8857 -33.8857 -28.1324 -28.1324
   -28.1322 -28.1322 -28.1250 -28.1250 -28.1248 -28.1247 -26.8925 -26.8925
   -26.8923 -26.8923 -26.8852 -26.8852 -26.8851 -26.8850 -26.8827 -26.8826
   -26.8824 -26.8823  -9.2154  -9.2154  -8.9514  -8.9514  -8.6695  -8.6695
    -7.1131  -7.1130  -6.5937  -6.5937  -2.9596  -2.9596  -1.7932  -1.7930
    -1.5032  -1.5028  -1.1207  -1.1205  -0.8359  -0.8357  -0.2086  -0.2083
     0.2518   0.2521   0.8950   0.8952   1.1080   1.1081

     occupation numbers 
     1.0000   1.0000   1.0000   1.0000   1.0000   1.0000   1.0000   1.0000
     1.0000   1.0000   1.0000   1.0000   1.0000   1.0000   1.0000   1.0000
     1.0000   1.0000   1.0000   1.0000   1.0000   1.0000   1.0000   1.0000
     1.0000   1.0000   1.0000   1.0000   1.0000   1.0000   1.0000   1.0000
     1.0000   1.0000   1.0000   1.0000   1.0000   1.0000   1.0000   1.0000
     1.0000   1.0000   1.0000   1.0000   1.0000   1.0000   1.0000   1.0000
     1.0000   1.0000   1.0000   1.0000   1.0000   1.0000   1.0000   1.0000
     1.0000   1.0000   1.0000   1.0000   1.0000   1.0000   1.0000   1.0000
     1.0000   1.0000   1.0000   1.0000   1.0000   1.0000   1.0000   1.0000
     1.0000   1.0000   1.0000   1.0000   1.0000   1.0000

          k = 0.0000 0.5609 0.0000 ( 24287 PWs)   bands (ev):

   -35.5007 -35.5007 -35.5005 -35.5005 -35.4725 -35.4725 -35.4722 -35.4722
   -35.3925 -35.3925 -35.3586 -35.3586 -34.0411 -34.0411 -34.0409 -34.0409
   -34.0178 -34.0178 -34.0175 -34.0175 -34.0044 -34.0044 -34.0041 -34.0041
   -33.9300 -33.9300 -33.9149 -33.9149 -33.8857 -33.8857 -28.1324 -28.1324
   -28.1322 -28.1322 -28.1250 -28.1250 -28.1248 -28.1248 -26.8924 -26.8924
   -26.8923 -26.8922 -26.8853 -26.8853 -26.8851 -26.8851 -26.8826 -26.8826
   -26.8823 -26.8823  -8.9793  -8.9792  -8.8540  -8.8540  -8.7885  -8.7885
    -7.2302  -7.2302  -6.6905  -6.6905  -3.0366  -3.0366  -1.7411  -1.7409
    -1.6255  -1.6253  -1.1943  -1.1942  -0.8664  -0.8664  -0.2165  -0.2164
     0.2135   0.2136   0.8818   0.8819   1.0680   1.0680

     occupation numbers 
     1.0000   1.0000   1.0000   1.0000   1.0000   1.0000   1.0000   1.0000
     1.0000   1.0000   1.0000   1.0000   1.0000   1.0000   1.0000   1.0000
     1.0000   1.0000   1.0000   1.0000   1.0000   1.0000   1.0000   1.0000
     1.0000   1.0000   1.0000   1.0000   1.0000   1.0000   1.0000   1.0000
     1.0000   1.0000   1.0000   1.0000   1.0000   1.0000   1.0000   1.0000
     1.0000   1.0000   1.0000   1.0000   1.0000   1.0000   1.0000   1.0000
     1.0000   1.0000   1.0000   1.0000   1.0000   1.0000   1.0000   1.0000
     1.0000   1.0000   1.0000   1.0000   1.0000   1.0000   1.0000   1.0000
     1.0000   1.0000   1.0000   1.0000   1.0000   1.0000   1.0000   1.0000
     1.0000   1.0000   1.0000   1.0000   1.0000   1.0000

          k = 0.0476 0.0275 0.0000 ( 24148 PWs)   bands (ev):

   -35.5012 -35.5012 -35.5010 -35.5010 -35.4726 -35.4726 -35.4724 -35.4723
   -35.3926 -35.3926 -35.3591 -35.3591 -34.0419 -34.0419 -34.0417 -34.0417
   -34.0177 -34.0177 -34.0175 -34.0174 -34.0048 -34.0048 -34.0045 -34.0045
   -33.9302 -33.9302 -33.9149 -33.9149 -33.8865 -33.8865 -28.1333 -28.1333
   -28.1330 -28.1330 -28.1248 -28.1247 -28.1246 -28.1245 -26.8941 -26.8941
   -26.8938 -26.8938 -26.8847 -26.8846 -26.8845 -26.8844 -26.8829 -26.8829
   -26.8827 -26.8827 -10.6120 -10.6120 -10.0820 -10.0820  -9.0087  -9.0087
    -6.2694  -6.2694  -4.9065  -4.9065  -0.5381  -0.5378  -0.2362  -0.2357
     0.2203   0.2207   0.2845   0.2856   0.4675   0.4682   0.7390   0.7407
     1.0045   1.0055   1.2115   1.2124   1.5628   1.5634

     occupation numbers 
     1.0000   1.0000   1.0000   1.0000   1.0000   1.0000   1.0000   1.0000
     1.0000   1.0000   1.0000   1.0000   1.0000   1.0000   1.0000   1.0000
     1.0000   1.0000   1.0000   1.0000   1.0000   1.0000   1.0000   1.0000
     1.0000   1.0000   1.0000   1.0000   1.0000   1.0000   1.0000   1.0000
     1.0000   1.0000   1.0000   1.0000   1.0000   1.0000   1.0000   1.0000
     1.0000   1.0000   1.0000   1.0000   1.0000   1.0000   1.0000   1.0000
     1.0000   1.0000   1.0000   1.0000   1.0000   1.0000   1.0000   1.0000
     1.0000   1.0000   1.0000   1.0000   1.0000   1.0000   1.0000   1.0000
     1.0000   1.0000   1.0000   1.0000   1.0000   1.0000   1.0000   1.0000
     1.0000   1.0000   1.0000   1.0000   1.0000   1.0000

          k = 0.0476 0.0836 0.0000 ( 24165 PWs)   bands (ev):

   -35.5012 -35.5012 -35.5009 -35.5009 -35.4726 -35.4726 -35.4723 -35.4723
   -35.3926 -35.3926 -35.3590 -35.3590 -34.0419 -34.0419 -34.0416 -34.0416
   -34.0177 -34.0177 -34.0175 -34.0174 -34.0048 -34.0047 -34.0045 -34.0045
   -33.9302 -33.9302 -33.9149 -33.9149 -33.8865 -33.8865 -28.1333 -28.1332
   -28.1330 -28.1330 -28.1248 -28.1247 -28.1246 -28.1245 -26.8940 -26.8940
   -26.8937 -26.8937 -26.8847 -26.8846 -26.8845 -26.8844 -26.8829 -26.8828
   -26.8827 -26.8827 -10.5728 -10.5728 -10.0460 -10.0460  -8.9867  -8.9867
    -6.2749  -6.2749  -4.9718  -4.9718  -0.6188  -0.6184  -0.4671  -0.4664
    -0.0486  -0.0478   0.1940   0.1948   0.3634   0.3640   0.6186   0.6194
     0.9765   0.9767   1.3243   1.3246   1.6799   1.6803

     occupation numbers 
     1.0000   1.0000   1.0000   1.0000   1.0000   1.0000   1.0000   1.0000
     1.0000   1.0000   1.0000   1.0000   1.0000   1.0000   1.0000   1.0000
     1.0000   1.0000   1.0000   1.0000   1.0000   1.0000   1.0000   1.0000
     1.0000   1.0000   1.0000   1.0000   1.0000   1.0000   1.0000   1.0000
     1.0000   1.0000   1.0000   1.0000   1.0000   1.0000   1.0000   1.0000
     1.0000   1.0000   1.0000   1.0000   1.0000   1.0000   1.0000   1.0000
     1.0000   1.0000   1.0000   1.0000   1.0000   1.0000   1.0000   1.0000
     1.0000   1.0000   1.0000   1.0000   1.0000   1.0000   1.0000   1.0000
     1.0000   1.0000   1.0000   1.0000   1.0000   1.0000   1.0000   1.0000
     1.0000   1.0000   1.0000   1.0000   1.0000   1.0000

          k = 0.0476 0.1397 0.0000 ( 24179 PWs)   bands (ev):

   -35.5012 -35.5012 -35.5009 -35.5009 -35.4726 -35.4726 -35.4723 -35.4723
   -35.3926 -35.3926 -35.3590 -35.3590 -34.0418 -34.0418 -34.0416 -34.0416
   -34.0177 -34.0177 -34.0175 -34.0174 -34.0047 -34.0047 -34.0045 -34.0044
   -33.9302 -33.9302 -33.9149 -33.9149 -33.8864 -33.8864 -28.1332 -28.1332
   -28.1329 -28.1329 -28.1248 -28.1247 -28.1246 -28.1245 -26.8938 -26.8938
   -26.8936 -26.8936 -26.8847 -26.8846 -26.8846 -26.8845 -26.8830 -26.8828
   -26.8827 -26.8826 -10.4944 -10.4944  -9.9744  -9.9744  -8.9439  -8.9439
    -6.2892  -6.2892  -5.1005  -5.1005  -0.9069  -0.9066  -0.6579  -0.6577
    -0.4081  -0.4075  -0.0341  -0.0335   0.2399   0.2402   0.4556   0.4561
     0.8917   0.8921   1.5042   1.5045   1.6472   1.6475

     occupation numbers 
     1.0000   1.0000   1.0000   1.0000   1.0000   1.0000   1.0000   1.0000
     1.0000   1.0000   1.0000   1.0000   1.0000   1.0000   1.0000   1.0000
     1.0000   1.0000   1.0000   1.0000   1.0000   1.0000   1.0000   1.0000
     1.0000   1.0000   1.0000   1.0000   1.0000   1.0000   1.0000   1.0000
     1.0000   1.0000   1.0000   1.0000   1.0000   1.0000   1.0000   1.0000
     1.0000   1.0000   1.0000   1.0000   1.0000   1.0000   1.0000   1.0000
     1.0000   1.0000   1.0000   1.0000   1.0000   1.0000   1.0000   1.0000
     1.0000   1.0000   1.0000   1.0000   1.0000   1.0000   1.0000   1.0000
     1.0000   1.0000   1.0000   1.0000   1.0000   1.0000   1.0000   1.0000
     1.0000   1.0000   1.0000   1.0000   1.0000   1.0000

          k = 0.0476 0.1958 0.0000 ( 24199 PWs)   bands (ev):

   -35.5011 -35.5011 -35.5008 -35.5008 -35.4726 -35.4726 -35.4723 -35.4723
   -35.3926 -35.3926 -35.3589 -35.3589 -34.0417 -34.0417 -34.0415 -34.0415
   -34.0178 -34.0177 -34.0175 -34.0174 -34.0047 -34.0047 -34.0044 -34.0044
   -33.9301 -33.9301 -33.9149 -33.9149 -33.8863 -33.8863 -28.1331 -28.1330
   -28.1328 -28.1328 -28.1249 -28.1248 -28.1247 -28.1245 -26.8936 -26.8936
   -26.8934 -26.8934 -26.8848 -26.8847 -26.8846 -26.8845 -26.8830 -26.8829
   -26.8827 -26.8826 -10.3780 -10.3780  -9.8689  -9.8689  -8.8837  -8.8837
    -6.3202  -6.3201  -5.2894  -5.2894  -1.3232  -1.3229  -0.8471  -0.8470
    -0.7130  -0.7129  -0.2688  -0.2682   0.0256   0.0260   0.2998   0.3004
     0.8664   0.8669   1.3234   1.3237   1.7289   1.7292

     occupation numbers 
     1.0000   1.0000   1.0000   1.0000   1.0000   1.0000   1.0000   1.0000
     1.0000   1.0000   1.0000   1.0000   1.0000   1.0000   1.0000   1.0000
     1.0000   1.0000   1.0000   1.0000   1.0000   1.0000   1.0000   1.0000
     1.0000   1.0000   1.0000   1.0000   1.0000   1.0000   1.0000   1.0000
     1.0000   1.0000   1.0000   1.0000   1.0000   1.0000   1.0000   1.0000
     1.0000   1.0000   1.0000   1.0000   1.0000   1.0000   1.0000   1.0000
     1.0000   1.0000   1.0000   1.0000   1.0000   1.0000   1.0000   1.0000
     1.0000   1.0000   1.0000   1.0000   1.0000   1.0000   1.0000   1.0000
     1.0000   1.0000   1.0000   1.0000   1.0000   1.0000   1.0000   1.0000
     1.0000   1.0000   1.0000   1.0000   1.0000   1.0000

          k = 0.0476 0.2518 0.0000 ( 24243 PWs)   bands (ev):

   -35.5010 -35.5010 -35.5008 -35.5008 -35.4726 -35.4726 -35.4723 -35.4723
   -35.3926 -35.3926 -35.3589 -35.3589 -34.0416 -34.0416 -34.0414 -34.0413
   -34.0178 -34.0177 -34.0175 -34.0174 -34.0047 -34.0046 -34.0044 -34.0043
   -33.9301 -33.9301 -33.9149 -33.9149 -33.8862 -33.8862 -28.1330 -28.1329
   -28.1327 -28.1327 -28.1249 -28.1248 -28.1247 -28.1246 -26.8934 -26.8933
   -26.8932 -26.8931 -26.8849 -26.8848 -26.8847 -26.8846 -26.8830 -26.8828
   -26.8827 -26.8825 -10.2252 -10.2252  -9.7322  -9.7322  -8.8115  -8.8115
    -6.3787  -6.3787  -5.5290  -5.5290  -1.7437  -1.7435  -1.1264  -1.1261
    -0.8912  -0.8908  -0.5056  -0.5051  -0.2209  -0.2206   0.2187   0.2191
     0.7860   0.7864   1.0827   1.0830   1.7498   1.7501

     occupation numbers 
     1.0000   1.0000   1.0000   1.0000   1.0000   1.0000   1.0000   1.0000
     1.0000   1.0000   1.0000   1.0000   1.0000   1.0000   1.0000   1.0000
     1.0000   1.0000   1.0000   1.0000   1.0000   1.0000   1.0000   1.0000
     1.0000   1.0000   1.0000   1.0000   1.0000   1.0000   1.0000   1.0000
     1.0000   1.0000   1.0000   1.0000   1.0000   1.0000   1.0000   1.0000
     1.0000   1.0000   1.0000   1.0000   1.0000   1.0000   1.0000   1.0000
     1.0000   1.0000   1.0000   1.0000   1.0000   1.0000   1.0000   1.0000
     1.0000   1.0000   1.0000   1.0000   1.0000   1.0000   1.0000   1.0000
     1.0000   1.0000   1.0000   1.0000   1.0000   1.0000   1.0000   1.0000
     1.0000   1.0000   1.0000   1.0000   1.0000   1.0000

          k = 0.0476 0.3079 0.0000 ( 24255 PWs)   bands (ev):

   -35.5010 -35.5010 -35.5007 -35.5007 -35.4726 -35.4725 -35.4723 -35.4722
   -35.3926 -35.3926 -35.3588 -35.3588 -34.0415 -34.0415 -34.0412 -34.0412
   -34.0178 -34.0177 -34.0175 -34.0174 -34.0046 -34.0045 -34.0043 -34.0043
   -33.9301 -33.9301 -33.9149 -33.9149 -33.8861 -33.8861 -28.1328 -28.1327
   -28.1326 -28.1325 -28.1250 -28.1248 -28.1247 -28.1246 -26.8931 -26.8931
   -26.8929 -26.8929 -26.8850 -26.8849 -26.8848 -26.8847 -26.8829 -26.8828
   -26.8826 -26.8825 -10.0386 -10.0386  -9.5689  -9.5689  -8.7358  -8.7358
    -6.4773  -6.4773  -5.8013  -5.8013  -2.1239  -2.1237  -1.3885  -1.3882
    -1.0402  -1.0396  -0.7375  -0.7370  -0.4098  -0.4096   0.1411   0.1413
     0.6028   0.6031   0.9638   0.9639   1.6582   1.6585

     occupation numbers 
     1.0000   1.0000   1.0000   1.0000   1.0000   1.0000   1.0000   1.0000
     1.0000   1.0000   1.0000   1.0000   1.0000   1.0000   1.0000   1.0000
     1.0000   1.0000   1.0000   1.0000   1.0000   1.0000   1.0000   1.0000
     1.0000   1.0000   1.0000   1.0000   1.0000   1.0000   1.0000   1.0000
     1.0000   1.0000   1.0000   1.0000   1.0000   1.0000   1.0000   1.0000
     1.0000   1.0000   1.0000   1.0000   1.0000   1.0000   1.0000   1.0000
     1.0000   1.0000   1.0000   1.0000   1.0000   1.0000   1.0000   1.0000
     1.0000   1.0000   1.0000   1.0000   1.0000   1.0000   1.0000   1.0000
     1.0000   1.0000   1.0000   1.0000   1.0000   1.0000   1.0000   1.0000
     1.0000   1.0000   1.0000   1.0000   1.0000   1.0000

          k = 0.0476 0.3640 0.0000 ( 24284 PWs)   bands (ev):

   -35.5009 -35.5009 -35.5006 -35.5006 -35.4726 -35.4725 -35.4723 -35.4722
   -35.3926 -35.3926 -35.3587 -35.3587 -34.0414 -34.0414 -34.0411 -34.0411
   -34.0178 -34.0177 -34.0175 -34.0174 -34.0045 -34.0045 -34.0043 -34.0042
   -33.9300 -33.9300 -33.9149 -33.9149 -33.8860 -33.8860 -28.1327 -28.1326
   -28.1325 -28.1324 -28.1250 -28.1249 -28.1247 -28.1246 -26.8929 -26.8928
   -26.8927 -26.8926 -26.8851 -26.8850 -26.8849 -26.8848 -26.8829 -26.8827
   -26.8826 -26.8824  -9.8224  -9.8224  -9.3863  -9.3863  -8.6687  -8.6686
    -6.6256  -6.6256  -6.0793  -6.0793  -2.4437  -2.4436  -1.5937  -1.5935
    -1.1987  -1.1981  -0.9268  -0.9264  -0.5402  -0.5401   0.0120   0.0123
     0.4446   0.4453   0.9177   0.9180   1.5002   1.5005

     occupation numbers 
     1.0000   1.0000   1.0000   1.0000   1.0000   1.0000   1.0000   1.0000
     1.0000   1.0000   1.0000   1.0000   1.0000   1.0000   1.0000   1.0000
     1.0000   1.0000   1.0000   1.0000   1.0000   1.0000   1.0000   1.0000
     1.0000   1.0000   1.0000   1.0000   1.0000   1.0000   1.0000   1.0000
     1.0000   1.0000   1.0000   1.0000   1.0000   1.0000   1.0000   1.0000
     1.0000   1.0000   1.0000   1.0000   1.0000   1.0000   1.0000   1.0000
     1.0000   1.0000   1.0000   1.0000   1.0000   1.0000   1.0000   1.0000
     1.0000   1.0000   1.0000   1.0000   1.0000   1.0000   1.0000   1.0000
     1.0000   1.0000   1.0000   1.0000   1.0000   1.0000   1.0000   1.0000
     1.0000   1.0000   1.0000   1.0000   1.0000   1.0000

          k = 0.0476 0.4201 0.0000 ( 24295 PWs)   bands (ev):

   -35.5008 -35.5008 -35.5006 -35.5006 -35.4725 -35.4725 -35.4723 -35.4722
   -35.3926 -35.3926 -35.3587 -35.3587 -34.0413 -34.0412 -34.0410 -34.0410
   -34.0178 -34.0177 -34.0175 -34.0175 -34.0045 -34.0044 -34.0042 -34.0041
   -33.9300 -33.9300 -33.9149 -33.9149 -33.8859 -33.8859 -28.1326 -28.1325
   -28.1324 -28.1323 -28.1250 -28.1249 -28.1248 -28.1247 -26.8927 -26.8926
   -26.8925 -26.8924 -26.8852 -26.8851 -26.8850 -26.8849 -26.8828 -26.8827
   -26.8825 -26.8824  -9.5833  -9.5833  -9.1963  -9.1963  -8.6272  -8.6272
    -6.8190  -6.8190  -6.3329  -6.3329  -2.6966  -2.6965  -1.7283  -1.7281
    -1.3560  -1.3557  -1.0711  -1.0709  -0.6368  -0.6367  -0.1434  -0.1430
     0.3625   0.3633   0.8975   0.8977   1.3315   1.3317

     occupation numbers 
     1.0000   1.0000   1.0000   1.0000   1.0000   1.0000   1.0000   1.0000
[...]
   -26.8822 -26.8822  -8.9004  -8.9003  -8.8891  -8.8891  -8.8606  -8.8606
    -7.2681  -7.2681  -6.7282  -6.7282  -3.0293  -3.0293  -1.7422  -1.7411
    -1.6499  -1.6489  -1.2494  -1.2489  -0.7727  -0.7719  -0.2645  -0.2639
     0.3125   0.3129   0.9127   0.9128   1.1742   1.1743

     occupation numbers 
     1.0000   1.0000   1.0000   1.0000   1.0000   1.0000   1.0000   1.0000
     1.0000   1.0000   1.0000   1.0000   1.0000   1.0000   1.0000   1.0000
     1.0000   1.0000   1.0000   1.0000   1.0000   1.0000   1.0000   1.0000
     1.0000   1.0000   1.0000   1.0000   1.0000   1.0000   1.0000   1.0000
     1.0000   1.0000   1.0000   1.0000   1.0000   1.0000   1.0000   1.0000
     1.0000   1.0000   1.0000   1.0000   1.0000   1.0000   1.0000   1.0000
     1.0000   1.0000   1.0000   1.0000   1.0000   1.0000   1.0000   1.0000
     1.0000   1.0000   1.0000   1.0000   1.0000   1.0000   1.0000   1.0000
     1.0000   1.0000   1.0000   1.0000   1.0000   1.0000   1.0000   1.0000
     1.0000   1.0000   1.0000   1.0000   1.0000   1.0000

          k = 0.4762-0.2859 0.0000 ( 24301 PWs)   bands (ev):

   -35.5008 -35.5008 -35.5005 -35.5005 -35.4725 -35.4725 -35.4722 -35.4722
   -35.3925 -35.3925 -35.3586 -35.3586 -34.0411 -34.0411 -34.0409 -34.0409
   -34.0177 -34.0177 -34.0175 -34.0175 -34.0044 -34.0044 -34.0041 -34.0041
   -33.9299 -33.9299 -33.9149 -33.9149 -33.8858 -33.8858 -28.1325 -28.1325
   -28.1323 -28.1323 -28.1250 -28.1250 -28.1247 -28.1247 -26.8926 -26.8925
   -26.8924 -26.8924 -26.8854 -26.8854 -26.8852 -26.8851 -26.8825 -26.8825
   -26.8822 -26.8822  -9.0063  -9.0063  -8.8848  -8.8848  -8.8152  -8.8152
    -7.2504  -7.2504  -6.6941  -6.6941  -3.0331  -3.0331  -1.7368  -1.7366
    -1.6130  -1.6127  -1.1503  -1.1502  -0.7927  -0.7927  -0.1900  -0.1899
     0.2542   0.2543   0.9302   0.9302   1.1523   1.1523

     occupation numbers 
     1.0000   1.0000   1.0000   1.0000   1.0000   1.0000   1.0000   1.0000
     1.0000   1.0000   1.0000   1.0000   1.0000   1.0000   1.0000   1.0000
     1.0000   1.0000   1.0000   1.0000   1.0000   1.0000   1.0000   1.0000
     1.0000   1.0000   1.0000   1.0000   1.0000   1.0000   1.0000   1.0000
     1.0000   1.0000   1.0000   1.0000   1.0000   1.0000   1.0000   1.0000
     1.0000   1.0000   1.0000   1.0000   1.0000   1.0000   1.0000   1.0000
     1.0000   1.0000   1.0000   1.0000   1.0000   1.0000   1.0000   1.0000
     1.0000   1.0000   1.0000   1.0000   1.0000   1.0000   1.0000   1.0000
     1.0000   1.0000   1.0000   1.0000   1.0000   1.0000   1.0000   1.0000
     1.0000   1.0000   1.0000   1.0000   1.0000   1.0000

          k = 0.4762-0.2298 0.0000 ( 24284 PWs)   bands (ev):

   -35.5008 -35.5008 -35.5005 -35.5005 -35.4725 -35.4725 -35.4722 -35.4722
   -35.3925 -35.3925 -35.3586 -35.3586 -34.0412 -34.0411 -34.0409 -34.0409
   -34.0178 -34.0177 -34.0175 -34.0174 -34.0044 -34.0044 -34.0041 -34.0041
   -33.9299 -33.9299 -33.9149 -33.9149 -33.8858 -33.8858 -28.1326 -28.1324
   -28.1323 -28.1322 -28.1250 -28.1249 -28.1247 -28.1247 -26.8926 -26.8925
   -26.8924 -26.8923 -26.8854 -26.8853 -26.8852 -26.8851 -26.8825 -26.8825
   -26.8822 -26.8822  -9.1126  -9.1126  -8.9139  -8.9139  -8.7351  -8.7351
    -7.2064  -7.2064  -6.6802  -6.6802  -2.9904  -2.9904  -1.7872  -1.7869
    -1.5642  -1.5640  -1.2304  -1.2298  -0.7436  -0.7428  -0.2608  -0.2602
     0.3255   0.3260   0.9235   0.9236   1.1951   1.1952

     occupation numbers 
     1.0000   1.0000   1.0000   1.0000   1.0000   1.0000   1.0000   1.0000
     1.0000   1.0000   1.0000   1.0000   1.0000   1.0000   1.0000   1.0000
     1.0000   1.0000   1.0000   1.0000   1.0000   1.0000   1.0000   1.0000
     1.0000   1.0000   1.0000   1.0000   1.0000   1.0000   1.0000   1.0000
     1.0000   1.0000   1.0000   1.0000   1.0000   1.0000   1.0000   1.0000
     1.0000   1.0000   1.0000   1.0000   1.0000   1.0000   1.0000   1.0000
     1.0000   1.0000   1.0000   1.0000   1.0000   1.0000   1.0000   1.0000
     1.0000   1.0000   1.0000   1.0000   1.0000   1.0000   1.0000   1.0000
     1.0000   1.0000   1.0000   1.0000   1.0000   1.0000   1.0000   1.0000
     1.0000   1.0000   1.0000   1.0000   1.0000   1.0000

          k = 0.4762-0.1738 0.0000 ( 24277 PWs)   bands (ev):

   -35.5008 -35.5007 -35.5005 -35.5005 -35.4725 -35.4725 -35.4722 -35.4722
   -35.3925 -35.3925 -35.3586 -35.3586 -34.0412 -34.0411 -34.0409 -34.0409
   -34.0178 -34.0177 -34.0175 -34.0174 -34.0044 -34.0044 -34.0042 -34.0041
   -33.9299 -33.9299 -33.9149 -33.9149 -33.8858 -33.8858 -28.1326 -28.1325
   -28.1323 -28.1322 -28.1250 -28.1249 -28.1248 -28.1247 -26.8927 -26.8925
   -26.8924 -26.8922 -26.8855 -26.8854 -26.8852 -26.8850 -26.8826 -26.8825
   -26.8823 -26.8822  -9.2027  -9.2027  -8.9455  -8.9455  -8.6642  -8.6642
    -7.1413  -7.1412  -6.6878  -6.6878  -2.9053  -2.9052  -1.8175  -1.8169
    -1.6265  -1.6259  -1.3551  -1.3548  -0.6941  -0.6938  -0.3733  -0.3729
     0.4092   0.4099   0.8991   0.8993   1.3527   1.3529

     occupation numbers 
     1.0000   1.0000   1.0000   1.0000   1.0000   1.0000   1.0000   1.0000
     1.0000   1.0000   1.0000   1.0000   1.0000   1.0000   1.0000   1.0000
     1.0000   1.0000   1.0000   1.0000   1.0000   1.0000   1.0000   1.0000
     1.0000   1.0000   1.0000   1.0000   1.0000   1.0000   1.0000   1.0000
     1.0000   1.0000   1.0000   1.0000   1.0000   1.0000   1.0000   1.0000
     1.0000   1.0000   1.0000   1.0000   1.0000   1.0000   1.0000   1.0000
     1.0000   1.0000   1.0000   1.0000   1.0000   1.0000   1.0000   1.0000
     1.0000   1.0000   1.0000   1.0000   1.0000   1.0000   1.0000   1.0000
     1.0000   1.0000   1.0000   1.0000   1.0000   1.0000   1.0000   1.0000
     1.0000   1.0000   1.0000   1.0000   1.0000   1.0000

          k = 0.4762-0.1177 0.0000 ( 24293 PWs)   bands (ev):

   -35.5008 -35.5007 -35.5006 -35.5005 -35.4725 -35.4725 -35.4722 -35.4722
   -35.3925 -35.3925 -35.3587 -35.3587 -34.0412 -34.0411 -34.0410 -34.0409
   -34.0178 -34.0177 -34.0175 -34.0174 -34.0045 -34.0044 -34.0042 -34.0041
   -33.9299 -33.9299 -33.9149 -33.9149 -33.8858 -33.8858 -28.1327 -28.1325
   -28.1323 -28.1321 -28.1250 -28.1249 -28.1248 -28.1246 -26.8927 -26.8925
   -26.8923 -26.8922 -26.8856 -26.8854 -26.8852 -26.8850 -26.8826 -26.8825
   -26.8823 -26.8822  -9.2714  -9.2714  -8.9741  -8.9741  -8.6097  -8.6097
    -7.0637  -7.0637  -6.7164  -6.7164  -2.7824  -2.7823  -1.9525  -1.9522
    -1.6429  -1.6424  -1.4335  -1.4332  -0.7656  -0.7652  -0.4352  -0.4346
     0.4855   0.4861   0.9535   0.9537   1.4707   1.4709

     occupation numbers 
     1.0000   1.0000   1.0000   1.0000   1.0000   1.0000   1.0000   1.0000
     1.0000   1.0000   1.0000   1.0000   1.0000   1.0000   1.0000   1.0000
     1.0000   1.0000   1.0000   1.0000   1.0000   1.0000   1.0000   1.0000
     1.0000   1.0000   1.0000   1.0000   1.0000   1.0000   1.0000   1.0000
     1.0000   1.0000   1.0000   1.0000   1.0000   1.0000   1.0000   1.0000
     1.0000   1.0000   1.0000   1.0000   1.0000   1.0000   1.0000   1.0000
     1.0000   1.0000   1.0000   1.0000   1.0000   1.0000   1.0000   1.0000
     1.0000   1.0000   1.0000   1.0000   1.0000   1.0000   1.0000   1.0000
     1.0000   1.0000   1.0000   1.0000   1.0000   1.0000   1.0000   1.0000
     1.0000   1.0000   1.0000   1.0000   1.0000   1.0000

          k = 0.4762-0.0616 0.0000 ( 24311 PWs)   bands (ev):

   -35.5008 -35.5007 -35.5006 -35.5005 -35.4725 -35.4725 -35.4722 -35.4722
   -35.3925 -35.3925 -35.3587 -35.3587 -34.0412 -34.0411 -34.0410 -34.0409
   -34.0178 -34.0177 -34.0175 -34.0174 -34.0045 -34.0044 -34.0042 -34.0042
   -33.9299 -33.9299 -33.9149 -33.9149 -33.8858 -33.8858 -28.1327 -28.1326
   -28.1323 -28.1321 -28.1250 -28.1249 -28.1248 -28.1246 -26.8927 -26.8925
   -26.8923 -26.8921 -26.8856 -26.8855 -26.8852 -26.8850 -26.8826 -26.8825
   -26.8824 -26.8823  -9.3154  -9.3154  -8.9952  -8.9952  -8.5772  -8.5772
    -6.9899  -6.9899  -6.7585  -6.7585  -2.6243  -2.6243  -2.1856  -2.1855
    -1.5574  -1.5572  -1.4375  -1.4374  -0.9767  -0.9763  -0.4249  -0.4246
     0.5815   0.5819   1.0625   1.0627   1.4319   1.4322

     occupation numbers 
     1.0000   1.0000   1.0000   1.0000   1.0000   1.0000   1.0000   1.0000
     1.0000   1.0000   1.0000   1.0000   1.0000   1.0000   1.0000   1.0000
     1.0000   1.0000   1.0000   1.0000   1.0000   1.0000   1.0000   1.0000
     1.0000   1.0000   1.0000   1.0000   1.0000   1.0000   1.0000   1.0000
     1.0000   1.0000   1.0000   1.0000   1.0000   1.0000   1.0000   1.0000
     1.0000   1.0000   1.0000   1.0000   1.0000   1.0000   1.0000   1.0000
     1.0000   1.0000   1.0000   1.0000   1.0000   1.0000   1.0000   1.0000
     1.0000   1.0000   1.0000   1.0000   1.0000   1.0000   1.0000   1.0000
     1.0000   1.0000   1.0000   1.0000   1.0000   1.0000   1.0000   1.0000
     1.0000   1.0000   1.0000   1.0000   1.0000   1.0000

          k = 0.4762-0.0055 0.0000 ( 24295 PWs)   bands (ev):

   -35.5008 -35.5007 -35.5006 -35.5005 -35.4725 -35.4725 -35.4723 -35.4722
   -35.3925 -35.3925 -35.3587 -35.3587 -34.0412 -34.0412 -34.0410 -34.0409
   -34.0178 -34.0177 -34.0175 -34.0174 -34.0045 -34.0044 -34.0042 -34.0042
   -33.9299 -33.9299 -33.9149 -33.9149 -33.8859 -33.8859 -28.1328 -28.1326
   -28.1323 -28.1321 -28.1250 -28.1249 -28.1248 -28.1246 -26.8927 -26.8925
   -26.8923 -26.8921 -26.8856 -26.8855 -26.8852 -26.8850 -26.8826 -26.8825
   -26.8824 -26.8823  -9.3327  -9.3326  -9.0058  -9.0058  -8.5696  -8.5696
    -6.9579  -6.9579  -6.7821  -6.7821  -2.4795  -2.4793  -2.3596  -2.3594
    -1.5424  -1.5422  -1.3293  -1.3290  -1.1428  -1.1424  -0.4145  -0.4144
     0.6354   0.6356   1.1521   1.1522   1.3560   1.3563

     occupation numbers 
     1.0000   1.0000   1.0000   1.0000   1.0000   1.0000   1.0000   1.0000
     1.0000   1.0000   1.0000   1.0000   1.0000   1.0000   1.0000   1.0000
     1.0000   1.0000   1.0000   1.0000   1.0000   1.0000   1.0000   1.0000
     1.0000   1.0000   1.0000   1.0000   1.0000   1.0000   1.0000   1.0000
     1.0000   1.0000   1.0000   1.0000   1.0000   1.0000   1.0000   1.0000
     1.0000   1.0000   1.0000   1.0000   1.0000   1.0000   1.0000   1.0000
     1.0000   1.0000   1.0000   1.0000   1.0000   1.0000   1.0000   1.0000
     1.0000   1.0000   1.0000   1.0000   1.0000   1.0000   1.0000   1.0000
     1.0000   1.0000   1.0000   1.0000   1.0000   1.0000   1.0000   1.0000
     1.0000   1.0000   1.0000   1.0000   1.0000   1.0000

          k = 0.4762 0.0506 0.0000 ( 24283 PWs)   bands (ev):

   -35.5008 -35.5008 -35.5006 -35.5005 -35.4725 -35.4725 -35.4723 -35.4722
   -35.3925 -35.3925 -35.3587 -35.3587 -34.0412 -34.0412 -34.0410 -34.0409
   -34.0178 -34.0177 -34.0175 -34.0174 -34.0045 -34.0045 -34.0042 -34.0042
   -33.9299 -33.9299 -33.9149 -33.9149 -33.8859 -33.8859 -28.1328 -28.1326
   -28.1323 -28.1322 -28.1250 -28.1249 -28.1248 -28.1246 -26.8927 -26.8926
   -26.8923 -26.8922 -26.8856 -26.8855 -26.8851 -26.8850 -26.8826 -26.8825
   -26.8824 -26.8822  -9.3225  -9.3225  -9.0047  -9.0047  -8.5874  -8.5874
    -7.0032  -7.0032  -6.7536  -6.7536  -2.6283  -2.6283  -2.1749  -2.1748
    -1.5482  -1.5474  -1.4285  -1.4276  -0.9672  -0.9670  -0.4153  -0.4152
     0.5952   0.5954   1.0782   1.0784   1.4587   1.4589

     occupation numbers 
     1.0000   1.0000   1.0000   1.0000   1.0000   1.0000   1.0000   1.0000
     1.0000   1.0000   1.0000   1.0000   1.0000   1.0000   1.0000   1.0000
     1.0000   1.0000   1.0000   1.0000   1.0000   1.0000   1.0000   1.0000
     1.0000   1.0000   1.0000   1.0000   1.0000   1.0000   1.0000   1.0000
     1.0000   1.0000   1.0000   1.0000   1.0000   1.0000   1.0000   1.0000
     1.0000   1.0000   1.0000   1.0000   1.0000   1.0000   1.0000   1.0000
     1.0000   1.0000   1.0000   1.0000   1.0000   1.0000   1.0000   1.0000
     1.0000   1.0000   1.0000   1.0000   1.0000   1.0000   1.0000   1.0000
     1.0000   1.0000   1.0000   1.0000   1.0000   1.0000   1.0000   1.0000
     1.0000   1.0000   1.0000   1.0000   1.0000   1.0000

          k = 0.4762 0.1067 0.0000 ( 24294 PWs)   bands (ev):

   -35.5008 -35.5008 -35.5006 -35.5005 -35.4725 -35.4725 -35.4723 -35.4722
   -35.3925 -35.3925 -35.3587 -35.3587 -34.0412 -34.0412 -34.0410 -34.0409
   -34.0178 -34.0177 -34.0175 -34.0174 -34.0045 -34.0045 -34.0042 -34.0042
   -33.9299 -33.9299 -33.9149 -33.9149 -33.8859 -33.8859 -28.1328 -28.1326
   -28.1324 -28.1322 -28.1250 -28.1249 -28.1247 -28.1246 -26.8928 -26.8926
   -26.8924 -26.8923 -26.8856 -26.8854 -26.8852 -26.8850 -26.8826 -26.8825
   -26.8823 -26.8822  -9.2853  -9.2853  -8.9924  -8.9924  -8.6287  -8.6287
    -7.0817  -7.0817  -6.7138  -6.7138  -2.7837  -2.7837  -1.9476  -1.9475
    -1.6257  -1.6253  -1.4002  -1.3997  -0.7663  -0.7661  -0.3980  -0.3978
     0.5110   0.5113   0.9804   0.9805   1.5266   1.5268

     occupation numbers 
     1.0000   1.0000   1.0000   1.0000   1.0000   1.0000   1.0000   1.0000
     1.0000   1.0000   1.0000   1.0000   1.0000   1.0000   1.0000   1.0000
     1.0000   1.0000   1.0000   1.0000   1.0000   1.0000   1.0000   1.0000
     1.0000   1.0000   1.0000   1.0000   1.0000   1.0000   1.0000   1.0000
     1.0000   1.0000   1.0000   1.0000   1.0000   1.0000   1.0000   1.0000
     1.0000   1.0000   1.0000   1.0000   1.0000   1.0000   1.0000   1.0000
     1.0000   1.0000   1.0000   1.0000   1.0000   1.0000   1.0000   1.0000
     1.0000   1.0000   1.0000   1.0000   1.0000   1.0000   1.0000   1.0000
     1.0000   1.0000   1.0000   1.0000   1.0000   1.0000   1.0000   1.0000
     1.0000   1.0000   1.0000   1.0000   1.0000   1.0000

          k = 0.4762 0.1628 0.0000 ( 24312 PWs)   bands (ev):

   -35.5008 -35.5008 -35.5006 -35.5005 -35.4725 -35.4725 -35.4723 -35.4722
   -35.3925 -35.3925 -35.3587 -35.3587 -34.0412 -34.0412 -34.0410 -34.0409
   -34.0177 -34.0177 -34.0175 -34.0174 -34.0045 -34.0045 -34.0042 -34.0042
   -33.9299 -33.9299 -33.9149 -33.9149 -33.8859 -33.8859 -28.1327 -28.1326
   -28.1325 -28.1323 -28.1250 -28.1249 -28.1247 -28.1246 -26.8928 -26.8926
   -26.8925 -26.8924 -26.8855 -26.8854 -26.8852 -26.8850 -26.8825 -26.8825
   -26.8822 -26.8822  -9.2229  -9.2229  -8.9715  -8.9715  -8.6895  -8.6895
    -7.1605  -7.1605  -6.6887  -6.6887  -2.9050  -2.9050  -1.8246  -1.8244
    -1.6023  -1.6019  -1.3054  -1.3051  -0.6759  -0.6756  -0.3275  -0.3272
     0.4394   0.4399   0.9426   0.9428   1.4255   1.4256

     occupation numbers 
     1.0000   1.0000   1.0000   1.0000   1.0000   1.0000   1.0000   1.0000
     1.0000   1.0000   1.0000   1.0000   1.0000   1.0000   1.0000   1.0000
     1.0000   1.0000   1.0000   1.0000   1.0000   1.0000   1.0000   1.0000
     1.0000   1.0000   1.0000   1.0000   1.0000   1.0000   1.0000   1.0000
     1.0000   1.0000   1.0000   1.0000   1.0000   1.0000   1.0000   1.0000
     1.0000   1.0000   1.0000   1.0000   1.0000   1.0000   1.0000   1.0000
     1.0000   1.0000   1.0000   1.0000   1.0000   1.0000   1.0000   1.0000
     1.0000   1.0000   1.0000   1.0000   1.0000   1.0000   1.0000   1.0000
     1.0000   1.0000   1.0000   1.0000   1.0000   1.0000   1.0000   1.0000
     1.0000   1.0000   1.0000   1.0000   1.0000   1.0000

          k = 0.4762 0.2188 0.0000 ( 24317 PWs)   bands (ev):

   -35.5008 -35.5008 -35.5005 -35.5005 -35.4725 -35.4725 -35.4722 -35.4722
   -35.3925 -35.3925 -35.3587 -35.3587 -34.0412 -34.0412 -34.0410 -34.0409
   -34.0177 -34.0177 -34.0174 -34.0174 -34.0045 -34.0045 -34.0042 -34.0042
   -33.9299 -33.9299 -33.9149 -33.9149 -33.8859 -33.8859 -28.1327 -28.1326
   -28.1325 -28.1323 -28.1250 -28.1249 -28.1247 -28.1246 -26.8928 -26.8927
   -26.8926 -26.8925 -26.8854 -26.8854 -26.8851 -26.8851 -26.8825 -26.8824
   -26.8822 -26.8821  -9.1382  -9.1382  -8.9459  -8.9459  -8.7637  -8.7637
    -7.2254  -7.2254  -6.6835  -6.6835  -2.9891  -2.9891  -1.7902  -1.7899
    -1.5578  -1.5573  -1.1689  -1.1685  -0.6807  -0.6805  -0.2315  -0.2313
     0.3600   0.3605   0.9837   0.9839   1.2683   1.2684

     occupation numbers 
     1.0000   1.0000   1.0000   1.0000   1.0000   1.0000   1.0000   1.0000
     1.0000   1.0000   1.0000   1.0000   1.0000   1.0000   1.0000   1.0000
     1.0000   1.0000   1.0000   1.0000   1.0000   1.0000   1.0000   1.0000
     1.0000   1.0000   1.0000   1.0000   1.0000   1.0000   1.0000   1.0000
     1.0000   1.0000   1.0000   1.0000   1.0000   1.0000   1.0000   1.0000
     1.0000   1.0000   1.0000   1.0000   1.0000   1.0000   1.0000   1.0000
     1.0000   1.0000   1.0000   1.0000   1.0000   1.0000   1.0000   1.0000
     1.0000   1.0000   1.0000   1.0000   1.0000   1.0000   1.0000   1.0000
     1.0000   1.0000   1.0000   1.0000   1.0000   1.0000   1.0000   1.0000
     1.0000   1.0000   1.0000   1.0000   1.0000   1.0000

     highest occupied level (ev):     1.8032

!    total energy              =    -806.67429133 Ry
     estimated scf accuracy    <       0.00000004 Ry

     The total energy is the sum of the following terms:
     one-electron contribution =   -3390.35418332 Ry
     hartree contribution      =    1690.32943143 Ry
     xc contribution           =     -87.17092958 Ry
     ewald contribution        =     980.61955469 Ry
     Dispersion Correction     =      -0.09816455 Ry

     convergence has been achieved in  14 iterations

     Writing all to output data dir tmp/Sb2Te3-uatsx-c5-soc-2.0.save/ :
     XML data file, charge density, pseudopotentials, collected wavefunctions

     init_run     :     57.90s CPU     31.39s WALL (       1 calls)
     electrons    :   3537.57s CPU   1863.93s WALL (       1 calls)

     Called by init_run:
     wfcinit      :     56.61s CPU     30.11s WALL (       1 calls)
     wfcinit:wfcr :     53.71s CPU     27.90s WALL (     221 calls)
     potinit      :      0.26s CPU      0.23s WALL (       1 calls)
     hinit0       :      0.84s CPU      0.86s WALL (       1 calls)

     Called by electrons:
     c_bands      :   3170.70s CPU   1677.29s WALL (      15 calls)
     sum_band     :    364.78s CPU    184.90s WALL (      15 calls)
     v_of_rho     :      1.08s CPU      0.73s WALL (      15 calls)
     v_h          :      0.09s CPU      0.06s WALL (      15 calls)
     v_xc         :      0.99s CPU      0.67s WALL (      15 calls)
     mix_rho      :      0.55s CPU      0.36s WALL (      15 calls)
     energy_londo :      0.02s CPU      0.01s WALL (       1 calls)

     Called by c_bands:
     init_us_2    :     15.07s CPU      9.27s WALL (    6851 calls)
     cegterg      :   3057.78s CPU   1609.42s WALL (    3315 calls)

     Called by sum_band:
     sum_band:wei :      0.00s CPU      0.00s WALL (      15 calls)
     sum_band:loo :    364.47s CPU    184.72s WALL (      15 calls)
     sum_band:buf :      5.77s CPU      3.11s WALL (    3315 calls)
     sum_band:ini :      8.83s CPU      4.50s WALL (    3315 calls)

     Called by *egterg:
     cdiaghg      :    250.96s CPU    161.32s WALL (   19897 calls)
     cegterg:over :    146.33s CPU     77.43s WALL (   16803 calls)
     cegterg:upda :     75.42s CPU     36.30s WALL (   16803 calls)
     cegterg:last :    113.77s CPU     57.22s WALL (    8668 calls)
     h_psi        :   2406.70s CPU   1235.78s WALL (   20339 calls)
     g_psi        :     10.12s CPU      6.09s WALL (   16803 calls)

     Called by h_psi:
     h_psi:calbec :    142.01s CPU     72.36s WALL (   20339 calls)
     vloc_psi     :   2153.36s CPU   1096.93s WALL (   20339 calls)
     add_vuspsi   :    104.35s CPU     62.48s WALL (   20339 calls)

     General routines
     calbec       :    141.87s CPU     72.30s WALL (   20339 calls)
     fft          :      2.21s CPU      1.74s WALL (     349 calls)
     ffts         :      0.25s CPU      0.20s WALL (     120 calls)
     fftw         :   1865.28s CPU    958.25s WALL ( 3731608 calls)
     interpolate  :      0.46s CPU      0.33s WALL (      60 calls)

     Parallel routines

     PWSCF        :      1h 0m CPU  33m29.16s WALL


   This run was terminated on:  18:56:30  22Aug2025            

=------------------------------------------------------------------------------=
   JOB DONE.
=------------------------------------------------------------------------------=
