
     Program BANDS v.7.4.1 starts on 23Aug2025 at  4: 2:54 

     This program is part of the open-source Quantum ESPRESSO suite
     for quantum simulation of materials; please cite
         "P. Giannozzi et al., J. Phys.:Condens. Matter 21 395502 (2009);
         "P. Giannozzi et al., J. Phys.:Condens. Matter 29 465901 (2017);
         "P. Giannozzi et al., J. Chem. Phys. 152 154105 (2020);
          URL http://www.quantum-espresso.org", 
     in publications or presentations arising from this work. More details at
     http://www.quantum-espresso.org/quote

     Parallel version (MPI & OpenMP), running on      48 processor cores
     Number of MPI processes:                24
     Threads/MPI process:                     2

     MPI processes distributed on     2 nodes
     R & G space division:  proc/nbgrp/npool/nimage =      24
     1484 MiB available memory on the printing compute node when the environment starts


     Reading xml data from directory:

     tmp/Sb2Te3-uatsx-c5-soc-5.0.save/
Error reading attribute index: expected integer, found *
Error reading attribute index: expected integer, found *

     IMPORTANT: XC functional enforced from input :
     Exchange-correlation= PBE
                           (   1   4   3   4   0   0   0)
     Any further DFT definition will be discarded
     Please, verify this is what you really want


     Parallelization info
     --------------------
     sticks:   dense  smooth     PW     G-vecs:    dense   smooth      PW
     Min         140      55     15                32920     8311    1231
     Max         141      56     16                32928     8340    1250
     Sum        3363    1343    375               790163   200001   29781

     Using Slab Decomposition

     Reading collected, re-writing distributed wavefunctions
     high-symmetry point:  0.0000 0.0000 0.0000   x coordinate   0.0000
     high-symmetry point:  0.5000 0.2887 0.0000   x coordinate   0.5774
     high-symmetry point:  0.3333 0.5966 0.0000   x coordinate   0.9275
     high-symmetry point:  0.0000 0.0000 0.0000   x coordinate   1.6109

     Plottable bands (eV) written to file ./bands/Sb2Te3-uatsx-c5-soc-5.0.bands.gnu
     Bands written to file ./bands/Sb2Te3-uatsx-c5-soc-5.0.bands

 **************************************************************************

                    xk=(   0.00000,   0.00000,   0.00000  )

     double point group C_1 (1)    
     there are  2 classes and  1 irreducible representations
     the character table:

       E     -E   
                  
G_2    1.00 -1.00

     the symmetry operations in each class and the name of the first element:

     E             1
                                                                 
     -E           -1
                                                                 

     Band symmetry, C_1 (1)     double point group:

     e(  1 -  2) =    -35.70268  eV     2   -->   2 G_2            
     e(  3 -  4) =    -35.70063  eV     2   -->   2 G_2            
     e(  5 -  6) =    -35.66627  eV     2   -->   2 G_2            
     e(  7 -  8) =    -35.66422  eV     2   -->   2 G_2            
     e(  9 - 10) =    -35.59739  eV     2   -->   2 G_2            
     e( 11 - 12) =    -35.56728  eV     2   -->   2 G_2            
     e( 13 - 14) =    -34.24478  eV     2   -->   2 G_2            
     e( 15 - 16) =    -34.24274  eV     2   -->   2 G_2            
     e( 17 - 18) =    -34.21440  eV     2   -->   2 G_2            
     e( 19 - 20) =    -34.21233  eV     2   -->   2 G_2            
     e( 21 - 22) =    -34.19745  eV     2   -->   2 G_2            
     e( 23 - 24) =    -34.19542  eV     2   -->   2 G_2            
     e( 25 - 26) =    -34.13650  eV     2   -->   2 G_2            
     e( 27 - 28) =    -34.11759  eV     2   -->   2 G_2            
     e( 29 - 30) =    -34.09684  eV     2   -->   2 G_2            
     e( 31 - 32) =    -28.35746  eV     2   -->   2 G_2            
     e( 33 - 34) =    -28.35618  eV     2   -->   2 G_2            
     e( 35 - 36) =    -28.34875  eV     2   -->   2 G_2            
     e( 37 - 38) =    -28.34749  eV     2   -->   2 G_2            
     e( 39 - 40) =    -27.11780  eV     2   -->   2 G_2            
     e( 41 - 42) =    -27.11652  eV     2   -->   2 G_2            
     e( 43 - 44) =    -27.10987  eV     2   -->   2 G_2            
     e( 45 - 46) =    -27.10860  eV     2   -->   2 G_2            
     e( 47 - 48) =    -27.10566  eV     2   -->   2 G_2            
     e( 49 - 50) =    -27.10440  eV     2   -->   2 G_2            
     e( 51 - 52) =    -10.74951  eV     2   -->   2 G_2            
     e( 53 - 54) =    -10.20807  eV     2   -->   2 G_2            
     e( 55 - 56) =     -9.13981  eV     2   -->   2 G_2            
     e( 57 - 58) =     -6.41390  eV     2   -->   2 G_2            
     e( 59 - 60) =     -5.09772  eV     2   -->   2 G_2            
     e( 61 - 62) =     -0.72678  eV     2   -->   2 G_2            
     e( 63 - 64) =     -0.32599  eV     2   -->   2 G_2            
     e( 65 - 66) =     -0.01149  eV     2   -->   2 G_2            
     e( 67 - 68) =      0.21881  eV     2   -->   2 G_2            
     e( 69 - 70) =      0.33762  eV     2   -->   2 G_2            
     e( 71 - 72) =      0.39131  eV     2   -->   2 G_2            
     e( 73 - 74) =      0.71050  eV     2   -->   2 G_2            
     e( 75 - 76) =      0.92969  eV     2   -->   2 G_2            
     e( 77 - 78) =      1.15620  eV     2   -->   2 G_2            
     e( 79 - 80) =      1.71127  eV     2   -->   2 G_2            
     e( 81 - 82) =      2.43204  eV     2   -->   2 G_2            
     e( 83 - 84) =      2.83597  eV     2   -->   2 G_2            
     e( 85 - 86) =      2.97864  eV     2   -->   2 G_2            
     e( 87 - 88) =      3.70384  eV     2   -->   2 G_2            
     e( 89 - 90) =      3.97744  eV     2   -->   2 G_2            
     e( 91 - 92) =      6.04628  eV     2   -->   2 G_2            
     e( 93 - 94) =      6.22435  eV     2   -->   2 G_2            
     e( 95 - 96) =      6.89441  eV     2   -->   2 G_2            
     e( 97 - 98) =      7.07659  eV     2   -->   2 G_2            
     e( 99 -100) =      7.39233  eV     2   -->   2 G_2            
     e(101 -102) =      7.74819  eV     2   -->   2 G_2            
     e(103 -104) =      8.17115  eV     2   -->   2 G_2            
     e(105 -106) =      8.38819  eV     2   -->   2 G_2            
     e(107 -108) =      8.43290  eV     2   -->   2 G_2            
     e(109 -110) =      8.52576  eV     2   -->   2 G_2            
     e(111 -112) =      9.10733  eV     2   -->   2 G_2            
     e(113 -114) =      9.29586  eV     2   -->   2 G_2            
     e(115 -116) =      9.53383  eV     2   -->   2 G_2            
     e(117 -118) =      9.88112  eV     2   -->   2 G_2            
     e(119 -120) =      9.90209  eV     2   -->   2 G_2            
     e(121 -122) =     10.36908  eV     2   -->   2 G_2            
     e(123 -124) =     10.66668  eV     2   -->   2 G_2            
     e(125 -126) =     11.18557  eV     2   -->   2 G_2            
     e(127 -128) =     11.24189  eV     2   -->   2 G_2            
     e(129 -130) =     11.39337  eV     2   -->   2 G_2            
     e(131 -132) =     11.56850  eV     2   -->   2 G_2            
     e(133 -134) =     12.66356  eV     2   -->   2 G_2            
     e(135 -136) =     12.70579  eV     2   -->   2 G_2            
     e(137 -138) =     13.46210  eV     2   -->   2 G_2            
     e(139 -140) =     13.75631  eV     2   -->   2 G_2            
     e(141 -142) =     14.02891  eV     2   -->   2 G_2            
     e(143 -144) =     14.08214  eV     2   -->   2 G_2            
     e(145 -146) =     14.31326  eV     2   -->   2 G_2            
     e(147 -148) =     14.85857  eV     2   -->   2 G_2            
     e(149 -150) =     15.21827  eV     2   -->   2 G_2            
     e(151 -152) =     15.54701  eV     2   -->   2 G_2            
     e(153 -154) =     15.76333  eV     2   -->   2 G_2            
     e(155 -156) =     15.90617  eV     2   -->   2 G_2            
     e(157 -158) =     15.93295  eV     2   -->   2 G_2            
     e(159 -160) =     16.16563  eV     2   -->   2 G_2            
     e(161 -162) =     16.45239  eV     2   -->   2 G_2            
     e(163 -164) =     16.45521  eV     2   -->   2 G_2            
     e(165 -166) =     16.58668  eV     2   -->   2 G_2            
     e(167 -168) =     16.63766  eV     2   -->   2 G_2            
     e(169 -170) =     16.76869  eV     2   -->   2 G_2            
     e(171 -172) =     16.94360  eV     2   -->   2 G_2            
     e(173 -174) =     17.00034  eV     2   -->   2 G_2            
     e(175 -176) =     17.09547  eV     2   -->   2 G_2            
     e(177 -178) =     17.24151  eV     2   -->   2 G_2            
     e(179 -180) =     17.36978  eV     2   -->   2 G_2            
     e(181 -182) =     17.43581  eV     2   -->   2 G_2            
     e(183 -184) =     17.59549  eV     2   -->   2 G_2            
     e(185 -186) =     17.68235  eV     2   -->   2 G_2            
     e(187 -188) =     17.89332  eV     2   -->   2 G_2            
     e(189 -190) =     18.43851  eV     2   -->   2 G_2            
     e(191 -192) =     18.47064  eV     2   -->   2 G_2            
     e(193 -194) =     18.58187  eV     2   -->   2 G_2            
     e(195 -196) =     18.77288  eV     2   -->   2 G_2            
     e(197 -198) =     18.97554  eV     2   -->   2 G_2            
     e(199 -200) =     19.03629  eV     2   -->   2 G_2            

 **************************************************************************

 **************************************************************************

                    xk=(   0.00714,   0.00412,   0.00000  )

     Band symmetry, C_1 (1)     double point group:

     e(  1 -  2) =    -35.70268  eV     2   -->   2 G_2            
     e(  3 -  4) =    -35.70063  eV     2   -->   2 G_2            
     e(  5 -  6) =    -35.66627  eV     2   -->   2 G_2            
     e(  7 -  8) =    -35.66422  eV     2   -->   2 G_2            
     e(  9 - 10) =    -35.59739  eV     2   -->   2 G_2            
     e( 11 - 12) =    -35.56728  eV     2   -->   2 G_2            
     e( 13 - 14) =    -34.24478  eV     2   -->   2 G_2            
     e( 15 - 16) =    -34.24274  eV     2   -->   2 G_2            
     e( 17 - 18) =    -34.21440  eV     2   -->   2 G_2            
     e( 19 - 20) =    -34.21233  eV     2   -->   2 G_2            
     e( 21 - 22) =    -34.19745  eV     2   -->   2 G_2            
     e( 23 - 24) =    -34.19542  eV     2   -->   2 G_2            
     e( 25 - 26) =    -34.13650  eV     2   -->   2 G_2            
     e( 27 - 28) =    -34.11759  eV     2   -->   2 G_2            
     e( 29 - 30) =    -34.09684  eV     2   -->   2 G_2            
     e( 31 - 32) =    -28.35746  eV     2   -->   2 G_2            
     e( 33 - 34) =    -28.35618  eV     2   -->   2 G_2            
     e( 35 - 36) =    -28.34876  eV     2   -->   2 G_2            
     e( 37 - 38) =    -28.34749  eV     2   -->   2 G_2            
     e( 39 - 40) =    -27.11780  eV     2   -->   2 G_2            
     e( 41 - 42) =    -27.11652  eV     2   -->   2 G_2            
     e( 43 - 44) =    -27.10987  eV     2   -->   2 G_2            
     e( 45 - 46) =    -27.10860  eV     2   -->   2 G_2            
     e( 47 - 48) =    -27.10566  eV     2   -->   2 G_2            
     e( 49 - 50) =    -27.10440  eV     2   -->   2 G_2            
     e( 51 - 52) =    -10.74911  eV     2   -->   2 G_2            
     e( 53 - 54) =    -10.20771  eV     2   -->   2 G_2            
     e( 55 - 56) =     -9.13960  eV     2   -->   2 G_2            
     e( 57 - 58) =     -6.41403  eV     2   -->   2 G_2            
     e( 59 - 60) =     -5.09859  eV     2   -->   2 G_2            
     e( 61 - 62) =     -0.72765  eV     2   -->   2 G_2            
     e( 63 - 63) =     -0.33250  eV     1   --> G_2            
     e( 64 - 64) =     -0.33234  eV     1   --> G_2            
     e( 65 - 65) =     -0.01032  eV     1   --> G_2            
     e( 66 - 66) =     -0.01013  eV     1   --> G_2            
     e( 67 - 67) =      0.21024  eV     1   --> G_2            
     e( 68 - 68) =      0.21065  eV     1   --> G_2            
     e( 69 - 69) =      0.33115  eV     1   --> G_2            
     e( 70 - 70) =      0.33131  eV     1   --> G_2            
     e( 71 - 71) =      0.40208  eV     1   --> G_2            
     e( 72 - 72) =      0.40271  eV     1   --> G_2            
     e( 73 - 73) =      0.71212  eV     1   --> G_2            
     e( 74 - 74) =      0.71230  eV     1   --> G_2            
     e( 75 - 75) =      0.92791  eV     1   --> G_2            
     e( 76 - 76) =      0.92807  eV     1   --> G_2            
     e( 77 - 78) =      1.15701  eV     2   -->   2 G_2            
     e( 79 - 80) =      1.71820  eV     2   -->   2 G_2            
     e( 81 - 82) =      2.43034  eV     2   -->   2 G_2            
     e( 83 - 83) =      2.82834  eV     1   --> G_2            
     e( 84 - 84) =      2.82866  eV     1   --> G_2            
     e( 85 - 85) =      2.98805  eV     1   --> G_2            
     e( 86 - 86) =      2.98842  eV     1   --> G_2            
     e( 87 - 88) =      3.70543  eV     2   -->   2 G_2            
     e( 89 - 90) =      3.97718  eV     2   -->   2 G_2            
     e( 91 - 92) =      6.04700  eV     2   -->   2 G_2            
     e( 93 - 94) =      6.22439  eV     2   -->   2 G_2            
     e( 95 - 96) =      6.89458  eV     2   -->   2 G_2            
     e( 97 - 98) =      7.07477  eV     2   -->   2 G_2            
     e( 99 -100) =      7.39200  eV     2   -->   2 G_2            
     e(101 -102) =      7.74800  eV     2   -->   2 G_2            
     e(103 -104) =      8.17371  eV     2   -->   2 G_2            
     e(105 -105) =      8.38317  eV     1   --> G_2            
     e(106 -106) =      8.38339  eV     1   --> G_2            
     e(107 -107) =      8.43788  eV     1   --> G_2            
     e(108 -108) =      8.43820  eV     1   --> G_2            
     e(109 -109) =      8.52386  eV     1   --> G_2            
     e(110 -110) =      8.52396  eV     1   --> G_2            
     e(111 -112) =      9.10462  eV     2   -->   2 G_2            
     e(113 -114) =      9.30348  eV     2   -->   2 G_2            
     e(115 -116) =      9.53582  eV     2   -->   2 G_2            
     e(117 -118) =      9.87738  eV     2   -->   2 G_2            
     e(119 -120) =      9.90467  eV     2   -->   2 G_2            
     e(121 -122) =     10.36994  eV     2   -->   2 G_2            
     e(123 -124) =     10.66929  eV     2   -->   2 G_2            
     e(125 -125) =     11.16292  eV     1   --> G_2            
     e(126 -126) =     11.16314  eV     1   --> G_2            
     e(127 -127) =     11.25063  eV     1   --> G_2            
     e(128 -128) =     11.25092  eV     1   --> G_2            
     e(129 -129) =     11.40293  eV     1   --> G_2            
     e(130 -130) =     11.40304  eV     1   --> G_2            
     e(131 -132) =     11.57604  eV     2   -->   2 G_2            
     e(133 -134) =     12.66188  eV     2   -->   2 G_2            
     e(135 -136) =     12.70663  eV     2   -->   2 G_2            
     e(137 -138) =     13.45339  eV     2   -->   2 G_2            
     e(139 -140) =     13.76285  eV     2   -->   2 G_2            
     e(141 -142) =     14.01414  eV     2   -->   2 G_2            
     e(143 -144) =     14.09699  eV     2   -->   2 G_2            
     e(145 -146) =     14.31600  eV     2   -->   2 G_2            
     e(147 -148) =     14.85794  eV     2   -->   2 G_2            
     e(149 -150) =     15.19703  eV     2   -->   2 G_2            
     e(151 -152) =     15.56260  eV     2   -->   2 G_2            
     e(153 -154) =     15.76493  eV     2   -->   2 G_2            
     e(155 -156) =     15.88792  eV     2   -->   2 G_2            
     e(157 -158) =     15.95113  eV     2   -->   2 G_2            
     e(159 -160) =     16.16205  eV     2   -->   2 G_2            
     e(161 -162) =     16.38978  eV     2   -->   2 G_2            
     e(163 -164) =     16.47685  eV     2   -->   2 G_2            
     e(165 -166) =     16.56580  eV     2   -->   2 G_2            
     e(167 -168) =     16.64814  eV     2   -->   2 G_2            
     e(169 -170) =     16.81420  eV     2   -->   2 G_2            
     e(171 -172) =     16.94049  eV     2   -->   2 G_2            
     e(173 -174) =     16.99755  eV     2   -->   2 G_2            
     e(175 -176) =     17.11391  eV     2   -->   2 G_2            
     e(177 -178) =     17.23411  eV     2   -->   2 G_2            
     e(179 -180) =     17.37812  eV     2   -->   2 G_2            
     e(181 -182) =     17.42549  eV     2   -->   2 G_2            
     e(183 -184) =     17.61359  eV     2   -->   2 G_2            
     e(185 -186) =     17.67558  eV     2   -->   2 G_2            
     e(187 -188) =     17.90466  eV     2   -->   2 G_2            
     e(189 -190) =     18.36091  eV     2   -->   2 G_2            
     e(191 -192) =     18.47428  eV     2   -->   2 G_2            
     e(193 -194) =     18.60633  eV     2   -->   2 G_2            
     e(195 -196) =     18.81874  eV     2   -->   2 G_2            
     e(197 -198) =     18.94249  eV     2   -->   2 G_2            
     e(199 -200) =     19.06643  eV     2   -->   2 G_2            

 **************************************************************************

 **************************************************************************

                    xk=(   0.01429,   0.00825,   0.00000  )

     Band symmetry, C_1 (1)     double point group:

     e(  1 -  2) =    -35.70268  eV     2   -->   2 G_2            
     e(  3 -  4) =    -35.70063  eV     2   -->   2 G_2            
     e(  5 -  6) =    -35.66627  eV     2   -->   2 G_2            
     e(  7 -  8) =    -35.66422  eV     2   -->   2 G_2            
     e(  9 - 10) =    -35.59739  eV     2   -->   2 G_2            
     e( 11 - 12) =    -35.56728  eV     2   -->   2 G_2            
     e( 13 - 14) =    -34.24478  eV     2   -->   2 G_2            
     e( 15 - 16) =    -34.24274  eV     2   -->   2 G_2            
     e( 17 - 18) =    -34.21440  eV     2   -->   2 G_2            
     e( 19 - 20) =    -34.21233  eV     2   -->   2 G_2            
     e( 21 - 22) =    -34.19745  eV     2   -->   2 G_2            
     e( 23 - 24) =    -34.19542  eV     2   -->   2 G_2            
     e( 25 - 26) =    -34.13650  eV     2   -->   2 G_2            
     e( 27 - 28) =    -34.11759  eV     2   -->   2 G_2            
     e( 29 - 30) =    -34.09684  eV     2   -->   2 G_2            
     e( 31 - 32) =    -28.35746  eV     2   -->   2 G_2            
     e( 33 - 34) =    -28.35618  eV     2   -->   2 G_2            
     e( 35 - 36) =    -28.34876  eV     2   -->   2 G_2            
     e( 37 - 38) =    -28.34750  eV     2   -->   2 G_2            
     e( 39 - 40) =    -27.11780  eV     2   -->   2 G_2            
     e( 41 - 42) =    -27.11652  eV     2   -->   2 G_2            
     e( 43 - 44) =    -27.10988  eV     2   -->   2 G_2            
     e( 45 - 46) =    -27.10861  eV     2   -->   2 G_2            
     e( 47 - 48) =    -27.10566  eV     2   -->   2 G_2            
     e( 49 - 50) =    -27.10440  eV     2   -->   2 G_2            
     e( 51 - 52) =    -10.74790  eV     2   -->   2 G_2            
     e( 53 - 54) =    -10.20662  eV     2   -->   2 G_2            
     e( 55 - 56) =     -9.13899  eV     2   -->   2 G_2            
     e( 57 - 58) =     -6.41441  eV     2   -->   2 G_2            
     e( 59 - 60) =     -5.10120  eV     2   -->   2 G_2            
     e( 61 - 62) =     -0.73023  eV     2   -->   2 G_2            
     e( 63 - 63) =     -0.35116  eV     1   --> G_2            
     e( 64 - 64) =     -0.35085  eV     1   --> G_2            
     e( 65 - 65) =     -0.00731  eV     1   --> G_2            
     e( 66 - 66) =     -0.00696  eV     1   --> G_2            
     e( 67 - 67) =      0.18711  eV     1   --> G_2            
     e( 68 - 68) =      0.18782  eV     1   --> G_2            
     e( 69 - 70) =      0.32130  eV     2   -->   2 G_2            
     e( 71 - 71) =      0.42371  eV     1   --> G_2            
     e( 72 - 72) =      0.42461  eV     1   --> G_2            
     e( 73 - 73) =      0.71701  eV     1   --> G_2            
     e( 74 - 74) =      0.71737  eV     1   --> G_2            
     e( 75 - 75) =      0.92284  eV     1   --> G_2            
     e( 76 - 76) =      0.92317  eV     1   --> G_2            
     e( 77 - 78) =      1.16036  eV     2   -->   2 G_2            
     e( 79 - 79) =      1.73827  eV     1   --> G_2            
     e( 80 - 80) =      1.73843  eV     1   --> G_2            
     e( 81 - 81) =      2.42526  eV     1   --> G_2            
     e( 82 - 82) =      2.42538  eV     1   --> G_2            
     e( 83 - 83) =      2.81098  eV     1   --> G_2            
     e( 84 - 84) =      2.81147  eV     1   --> G_2            
     e( 85 - 85) =      3.01173  eV     1   --> G_2            
     e( 86 - 86) =      3.01231  eV     1   --> G_2            
     e( 87 - 87) =      3.71024  eV     1   --> G_2            
     e( 88 - 88) =      3.71036  eV     1   --> G_2            
     e( 89 - 90) =      3.97648  eV     2   -->   2 G_2            
     e( 91 - 92) =      6.04914  eV     2   -->   2 G_2            
     e( 93 - 94) =      6.22451  eV     2   -->   2 G_2            
     e( 95 - 96) =      6.89509  eV     2   -->   2 G_2            
     e( 97 - 98) =      7.06936  eV     2   -->   2 G_2            
     e( 99 -100) =      7.39107  eV     2   -->   2 G_2            
     e(101 -102) =      7.74756  eV     2   -->   2 G_2            
     e(103 -104) =      8.18108  eV     2   -->   2 G_2            
     e(105 -105) =      8.37222  eV     1   --> G_2            
     e(106 -106) =      8.37252  eV     1   --> G_2            
     e(107 -107) =      8.44849  eV     1   --> G_2            
     e(108 -108) =      8.44902  eV     1   --> G_2            
     e(109 -109) =      8.51964  eV     1   --> G_2            
     e(110 -110) =      8.51988  eV     1   --> G_2            
     e(111 -112) =      9.09757  eV     2   -->   2 G_2            
     e(113 -114) =      9.32489  eV     2   -->   2 G_2            
     e(115 -116) =      9.54170  eV     2   -->   2 G_2            
     e(117 -118) =      9.86791  eV     2   -->   2 G_2            
     e(119 -120) =      9.91096  eV     2   -->   2 G_2            
     e(121 -122) =     10.37275  eV     2   -->   2 G_2            
     e(123 -124) =     10.67660  eV     2   -->   2 G_2            
     e(125 -125) =     11.12127  eV     1   --> G_2            
     e(126 -126) =     11.12151  eV     1   --> G_2            
     e(127 -127) =     11.25263  eV     1   --> G_2            
     e(128 -128) =     11.25293  eV     1   --> G_2            
     e(129 -129) =     11.43234  eV     1   --> G_2            
     e(130 -130) =     11.43252  eV     1   --> G_2            
     e(131 -131) =     11.59694  eV     1   --> G_2            
     e(132 -132) =     11.59705  eV     1   --> G_2            
     e(133 -134) =     12.65696  eV     2   -->   2 G_2            
     e(135 -136) =     12.70904  eV     2   -->   2 G_2            
     e(137 -138) =     13.43015  eV     2   -->   2 G_2            
     e(139 -140) =     13.77849  eV     2   -->   2 G_2            
     e(141 -142) =     13.98969  eV     2   -->   2 G_2            
     e(143 -144) =     14.12240  eV     2   -->   2 G_2            
     e(145 -146) =     14.32480  eV     2   -->   2 G_2            
     e(147 -148) =     14.85223  eV     2   -->   2 G_2            
     e(149 -150) =     15.15187  eV     2   -->   2 G_2            
     e(151 -152) =     15.58625  eV     2   -->   2 G_2            
     e(153 -154) =     15.77809  eV     2   -->   2 G_2            
     e(155 -156) =     15.86045  eV     2   -->   2 G_2            
     e(157 -158) =     15.97285  eV     2   -->   2 G_2            
     e(159 -160) =     16.15265  eV     2   -->   2 G_2            
     e(161 -162) =     16.32579  eV     2   -->   2 G_2            
     e(163 -164) =     16.43975  eV     2   -->   2 G_2            
     e(165 -166) =     16.50704  eV     2   -->   2 G_2            
     e(167 -168) =     16.73356  eV     2   -->   2 G_2            
     e(169 -170) =     16.85549  eV     2   -->   2 G_2            
     e(171 -172) =     16.93021  eV     2   -->   2 G_2            
     e(173 -174) =     17.02414  eV     2   -->   2 G_2            
     e(175 -176) =     17.14616  eV     2   -->   2 G_2            
     e(177 -178) =     17.22583  eV     2   -->   2 G_2            
     e(179 -180) =     17.38284  eV     2   -->   2 G_2            
     e(181 -182) =     17.42054  eV     2   -->   2 G_2            
     e(183 -184) =     17.64763  eV     2   -->   2 G_2            
     e(185 -186) =     17.67031  eV     2   -->   2 G_2            
     e(187 -188) =     17.93054  eV     2   -->   2 G_2            
     e(189 -190) =     18.26844  eV     2   -->   2 G_2            
     e(191 -192) =     18.38916  eV     2   -->   2 G_2            
     e(193 -194) =     18.68057  eV     2   -->   2 G_2            
     e(195 -195) =     18.89574  eV     1   --> G_2            
     e(196 -196) =     18.89585  eV     1   --> G_2            
     e(197 -197) =     18.91479  eV     1   --> G_2            
     e(198 -198) =     18.91491  eV     1   --> G_2            
     e(199 -200) =     19.03639  eV     2   -->   2 G_2            

 **************************************************************************

 **************************************************************************

                    xk=(   0.02143,   0.01237,   0.00000  )

     Band symmetry, C_1 (1)     double point group:

     e(  1 -  2) =    -35.70268  eV     2   -->   2 G_2            
     e(  3 -  4) =    -35.70063  eV     2   -->   2 G_2            
     e(  5 -  6) =    -35.66627  eV     2   -->   2 G_2            
     e(  7 -  8) =    -35.66422  eV     2   -->   2 G_2            
     e(  9 - 10) =    -35.59739  eV     2   -->   2 G_2            
     e( 11 - 12) =    -35.56728  eV     2   -->   2 G_2            
     e( 13 - 14) =    -34.24478  eV     2   -->   2 G_2            
     e( 15 - 16) =    -34.24274  eV     2   -->   2 G_2            
     e( 17 - 18) =    -34.21440  eV     2   -->   2 G_2            
     e( 19 - 20) =    -34.21233  eV     2   -->   2 G_2            
     e( 21 - 22) =    -34.19745  eV     2   -->   2 G_2            
     e( 23 - 24) =    -34.19542  eV     2   -->   2 G_2            
     e( 25 - 26) =    -34.13650  eV     2   -->   2 G_2            
     e( 27 - 28) =    -34.11759  eV     2   -->   2 G_2            
     e( 29 - 30) =    -34.09684  eV     2   -->   2 G_2            
     e( 31 - 32) =    -28.35746  eV     2   -->   2 G_2            
     e( 33 - 34) =    -28.35618  eV     2   -->   2 G_2            
     e( 35 - 36) =    -28.34876  eV     2   -->   2 G_2            
     e( 37 - 38) =    -28.34750  eV     2   -->   2 G_2            
     e( 39 - 40) =    -27.11780  eV     2   -->   2 G_2            
     e( 41 - 42) =    -27.11652  eV     2   -->   2 G_2            
     e( 43 - 44) =    -27.10988  eV     2   -->   2 G_2            
     e( 45 - 46) =    -27.10861  eV     2   -->   2 G_2            
     e( 47 - 48) =    -27.10566  eV     2   -->   2 G_2            
     e( 49 - 50) =    -27.10440  eV     2   -->   2 G_2            
     e( 51 - 52) =    -10.74589  eV     2   -->   2 G_2            
     e( 53 - 54) =    -10.20481  eV     2   -->   2 G_2            
     e( 55 - 56) =     -9.13796  eV     2   -->   2 G_2            
     e( 57 - 58) =     -6.41505  eV     2   -->   2 G_2            
     e( 59 - 60) =     -5.10556  eV     2   -->   2 G_2            
     e( 61 - 62) =     -0.73453  eV     2   -->   2 G_2            
     e( 63 - 63) =     -0.38024  eV     1   --> G_2            
     e( 64 - 64) =     -0.37983  eV     1   --> G_2            
     e( 65 - 65) =     -0.00409  eV     1   --> G_2            
     e( 66 - 66) =     -0.00363  eV     1   --> G_2            
     e( 67 - 67) =      0.15435  eV     1   --> G_2            
     e( 68 - 68) =      0.15524  eV     1   --> G_2            
     e( 69 - 69) =      0.31338  eV     1   --> G_2            
     e( 70 - 70) =      0.31349  eV     1   --> G_2            
     e( 71 - 71) =      0.44534  eV     1   --> G_2            
     e( 72 - 72) =      0.44636  eV     1   --> G_2            
     e( 73 - 73) =      0.72452  eV     1   --> G_2            
     e( 74 - 74) =      0.72505  eV     1   --> G_2            
     e( 75 - 75) =      0.91530  eV     1   --> G_2            
     e( 76 - 76) =      0.91579  eV     1   --> G_2            
     e( 77 - 77) =      1.16811  eV     1   --> G_2            
     e( 78 - 78) =      1.16823  eV     1   --> G_2            
     e( 79 - 79) =      1.76940  eV     1   --> G_2            
     e( 80 - 80) =      1.76963  eV     1   --> G_2            
     e( 81 - 81) =      2.41670  eV     1   --> G_2            
     e( 82 - 82) =      2.41688  eV     1   --> G_2            
     e( 83 - 83) =      2.79161  eV     1   --> G_2            
     e( 84 - 84) =      2.79216  eV     1   --> G_2            
     e( 85 - 85) =      3.04225  eV     1   --> G_2            
     e( 86 - 86) =      3.04294  eV     1   --> G_2            
     e( 87 - 87) =      3.71812  eV     1   --> G_2            
     e( 88 - 88) =      3.71830  eV     1   --> G_2            
     e( 89 - 89) =      3.97554  eV     1   --> G_2            
     e( 90 - 90) =      3.97566  eV     1   --> G_2            
     e( 91 - 92) =      6.05269  eV     2   -->   2 G_2            
     e( 93 - 94) =      6.22470  eV     2   -->   2 G_2            
     e( 95 - 96) =      6.89577  eV     2   -->   2 G_2            
     e( 97 - 98) =      7.06052  eV     2   -->   2 G_2            
     e( 99 -100) =      7.38967  eV     2   -->   2 G_2            
     e(101 -102) =      7.74728  eV     2   -->   2 G_2            
     e(103 -104) =      8.19222  eV     2   -->   2 G_2            
     e(105 -105) =      8.35925  eV     1   --> G_2            
     e(106 -106) =      8.35957  eV     1   --> G_2            
     e(107 -107) =      8.45746  eV     1   --> G_2            
     e(108 -108) =      8.45817  eV     1   --> G_2            
     e(109 -109) =      8.51789  eV     1   --> G_2            
     e(110 -110) =      8.51826  eV     1   --> G_2            
     e(111 -112) =      9.08822  eV     2   -->   2 G_2            
     e(113 -114) =      9.35680  eV     2   -->   2 G_2            
     e(115 -116) =      9.55115  eV     2   -->   2 G_2            
     e(117 -118) =      9.85442  eV     2   -->   2 G_2            
     e(119 -120) =      9.92002  eV     2   -->   2 G_2            
     e(121 -122) =     10.37807  eV     2   -->   2 G_2            
     e(123 -124) =     10.68715  eV     2   -->   2 G_2            
     e(125 -125) =     11.07696  eV     1   --> G_2            
     e(126 -126) =     11.07717  eV     1   --> G_2            
     e(127 -127) =     11.24026  eV     1   --> G_2            
     e(128 -128) =     11.24051  eV     1   --> G_2            
     e(129 -129) =     11.47685  eV     1   --> G_2            
     e(130 -130) =     11.47705  eV     1   --> G_2            
     e(131 -131) =     11.62757  eV     1   --> G_2            
     e(132 -132) =     11.62773  eV     1   --> G_2            
     e(133 -134) =     12.64897  eV     2   -->   2 G_2            
     e(135 -136) =     12.71288  eV     2   -->   2 G_2            
     e(137 -138) =     13.39806  eV     2   -->   2 G_2            
     e(139 -140) =     13.79393  eV     2   -->   2 G_2            
     e(141 -142) =     13.96998  eV     2   -->   2 G_2            
     e(143 -144) =     14.14683  eV     2   -->   2 G_2            
     e(145 -146) =     14.34072  eV     2   -->   2 G_2            
     e(147 -148) =     14.83028  eV     2   -->   2 G_2            
     e(149 -150) =     15.11413  eV     2   -->   2 G_2            
     e(151 -152) =     15.58613  eV     2   -->   2 G_2            
     e(153 -154) =     15.80156  eV     2   -->   2 G_2            
     e(155 -156) =     15.83630  eV     2   -->   2 G_2            
     e(157 -158) =     15.98154  eV     2   -->   2 G_2            
     e(159 -160) =     16.14635  eV     2   -->   2 G_2            
     e(161 -162) =     16.28429  eV     2   -->   2 G_2            
     e(163 -164) =     16.34163  eV     2   -->   2 G_2            
     e(165 -166) =     16.49937  eV     2   -->   2 G_2            
     e(167 -168) =     16.80515  eV     2   -->   2 G_2            
     e(169 -170) =     16.85195  eV     2   -->   2 G_2            
     e(171 -172) =     16.94433  eV     2   -->   2 G_2            
     e(173 -174) =     17.07200  eV     2   -->   2 G_2            
     e(175 -176) =     17.16054  eV     2   -->   2 G_2            
     e(177 -178) =     17.24909  eV     2   -->   2 G_2            
     e(179 -180) =     17.38117  eV     2   -->   2 G_2            
     e(181 -182) =     17.43255  eV     2   -->   2 G_2            
     e(183 -184) =     17.65310  eV     2   -->   2 G_2            
     e(185 -186) =     17.71002  eV     2   -->   2 G_2            
     e(187 -188) =     17.95294  eV     2   -->   2 G_2            
     e(189 -190) =     18.19495  eV     2   -->   2 G_2            
     e(191 -192) =     18.28433  eV     2   -->   2 G_2            
     e(193 -194) =     18.71763  eV     2   -->   2 G_2            
     e(195 -196) =     18.90868  eV     2   -->   2 G_2            
     e(197 -198) =     18.97358  eV     2   -->   2 G_2            
     e(199 -200) =     19.01846  eV     2   -->   2 G_2            

 **************************************************************************

 **************************************************************************

                    xk=(   0.02857,   0.01650,   0.00000  )

     Band symmetry, C_1 (1)     double point group:

     e(  1 -  2) =    -35.70268  eV     2   -->   2 G_2            
     e(  3 -  4) =    -35.70063  eV     2   -->   2 G_2            
     e(  5 -  6) =    -35.66627  eV     2   -->   2 G_2            
     e(  7 -  8) =    -35.66422  eV     2   -->   2 G_2            
     e(  9 - 10) =    -35.59739  eV     2   -->   2 G_2            
     e( 11 - 12) =    -35.56728  eV     2   -->   2 G_2            
     e( 13 - 14) =    -34.24477  eV     2   -->   2 G_2            
     e( 15 - 16) =    -34.24274  eV     2   -->   2 G_2            
     e( 17 - 18) =    -34.21440  eV     2   -->   2 G_2            
     e( 19 - 20) =    -34.21233  eV     2   -->   2 G_2            
     e( 21 - 22) =    -34.19745  eV     2   -->   2 G_2            
     e( 23 - 24) =    -34.19542  eV     2   -->   2 G_2            
     e( 25 - 26) =    -34.13650  eV     2   -->   2 G_2            
     e( 27 - 28) =    -34.11759  eV     2   -->   2 G_2            
     e( 29 - 30) =    -34.09684  eV     2   -->   2 G_2            
     e( 31 - 32) =    -28.35746  eV     2   -->   2 G_2            
     e( 33 - 34) =    -28.35619  eV     2   -->   2 G_2            
     e( 35 - 36) =    -28.34876  eV     2   -->   2 G_2            
     e( 37 - 38) =    -28.34750  eV     2   -->   2 G_2            
     e( 39 - 40) =    -27.11779  eV     2   -->   2 G_2            
     e( 41 - 42) =    -27.11651  eV     2   -->   2 G_2            
     e( 43 - 44) =    -27.10989  eV     2   -->   2 G_2            
     e( 45 - 46) =    -27.10862  eV     2   -->   2 G_2            
     e( 47 - 48) =    -27.10566  eV     2   -->   2 G_2            
     e( 49 - 50) =    -27.10440  eV     2   -->   2 G_2            
     e( 51 - 52) =    -10.74308  eV     2   -->   2 G_2            
     e( 53 - 54) =    -10.20228  eV     2   -->   2 G_2            
     e( 55 - 56) =     -9.13653  eV     2   -->   2 G_2            
     e( 57 - 58) =     -6.41596  eV     2   -->   2 G_2            
     e( 59 - 60) =     -5.11165  eV     2   -->   2 G_2            
     e( 61 - 62) =     -0.74055  eV     2   -->   2 G_2            
     e( 63 - 63) =     -0.41779  eV     1   --> G_2            
     e( 64 - 64) =     -0.41729  eV     1   --> G_2            
     e( 65 - 65) =     -0.00260  eV     1   --> G_2            
     e( 66 - 66) =     -0.00207  eV     1   --> G_2            
     e( 67 - 67) =      0.11665  eV     1   --> G_2            
     e( 68 - 68) =      0.11763  eV     1   --> G_2            
     e( 69 - 69) =      0.30671  eV     1   --> G_2            
     e( 70 - 70) =      0.30690  eV     1   --> G_2            
     e( 71 - 71) =      0.46272  eV     1   --> G_2            
     e( 72 - 72) =      0.46379  eV     1   --> G_2            
     e( 73 - 73) =      0.73305  eV     1   --> G_2            
     e( 74 - 74) =      0.73374  eV     1   --> G_2            
     e( 75 - 75) =      0.90778  eV     1   --> G_2            
     e( 76 - 76) =      0.90842  eV     1   --> G_2            
     e( 77 - 77) =      1.18173  eV     1   --> G_2            
     e( 78 - 78) =      1.18190  eV     1   --> G_2            
     e( 79 - 79) =      1.80893  eV     1   --> G_2            
     e( 80 - 80) =      1.80922  eV     1   --> G_2            
     e( 81 - 81) =      2.40478  eV     1   --> G_2            
     e( 82 - 82) =      2.40499  eV     1   --> G_2            
     e( 83 - 83) =      2.77485  eV     1   --> G_2            
     e( 84 - 84) =      2.77540  eV     1   --> G_2            
     e( 85 - 85) =      3.07528  eV     1   --> G_2            
     e( 86 - 86) =      3.07602  eV     1   --> G_2            
     e( 87 - 87) =      3.72881  eV     1   --> G_2            
     e( 88 - 88) =      3.72903  eV     1   --> G_2            
     e( 89 - 89) =      3.97473  eV     1   --> G_2            
     e( 90 - 90) =      3.97487  eV     1   --> G_2            
     e( 91 - 92) =      6.05764  eV     2   -->   2 G_2            
     e( 93 - 94) =      6.22492  eV     2   -->   2 G_2            
     e( 95 - 96) =      6.89634  eV     2   -->   2 G_2            
     e( 97 - 98) =      7.04861  eV     2   -->   2 G_2            
     e( 99 -100) =      7.38803  eV     2   -->   2 G_2            
     e(101 -102) =      7.74769  eV     2   -->   2 G_2            
     e(103 -104) =      8.20532  eV     2   -->   2 G_2            
     e(105 -105) =      8.34594  eV     1   --> G_2            
     e(106 -106) =      8.34626  eV     1   --> G_2            
     e(107 -107) =      8.45883  eV     1   --> G_2            
     e(108 -108) =      8.45955  eV     1   --> G_2            
     e(109 -109) =      8.52543  eV     1   --> G_2            
     e(110 -110) =      8.52581  eV     1   --> G_2            
     e(111 -112) =      9.07817  eV     2   -->   2 G_2            
     e(113 -114) =      9.39574  eV     2   -->   2 G_2            
     e(115 -116) =      9.56371  eV     2   -->   2 G_2            
     e(117 -118) =      9.83805  eV     2   -->   2 G_2            
     e(119 -120) =      9.93204  eV     2   -->   2 G_2            
     e(121 -122) =     10.38654  eV     2   -->   2 G_2            
     e(123 -124) =     10.69860  eV     2   -->   2 G_2            
     e(125 -125) =     11.03499  eV     1   --> G_2            
     e(126 -126) =     11.03518  eV     1   --> G_2            
     e(127 -127) =     11.21992  eV     1   --> G_2            
     e(128 -128) =     11.22012  eV     1   --> G_2            
     e(129 -129) =     11.52909  eV     1   --> G_2            
     e(130 -130) =     11.52933  eV     1   --> G_2            
     e(131 -131) =     11.66488  eV     1   --> G_2            
     e(132 -132) =     11.66507  eV     1   --> G_2            
     e(133 -134) =     12.63809  eV     2   -->   2 G_2            
     e(135 -136) =     12.71804  eV     2   -->   2 G_2            
     e(137 -138) =     13.36194  eV     2   -->   2 G_2            
     e(139 -140) =     13.79914  eV     2   -->   2 G_2            
     e(141 -142) =     13.96150  eV     2   -->   2 G_2            
     e(143 -144) =     14.16919  eV     2   -->   2 G_2            
     e(145 -146) =     14.36349  eV     2   -->   2 G_2            
     e(147 -148) =     14.78247  eV     2   -->   2 G_2            
     e(149 -150) =     15.10391  eV     2   -->   2 G_2            
     e(151 -152) =     15.56142  eV     2   -->   2 G_2            
     e(153 -154) =     15.76576  eV     2   -->   2 G_2            
     e(155 -156) =     15.84953  eV     2   -->   2 G_2            
     e(157 -158) =     15.99234  eV     2   -->   2 G_2            
     e(159 -160) =     16.14912  eV     2   -->   2 G_2            
     e(161 -162) =     16.23358  eV     2   -->   2 G_2            
     e(163 -164) =     16.27816  eV     2   -->   2 G_2            
     e(165 -166) =     16.50121  eV     2   -->   2 G_2            
     e(167 -168) =     16.78805  eV     2   -->   2 G_2            
     e(169 -170) =     16.86556  eV     2   -->   2 G_2            
     e(171 -172) =     17.00399  eV     2   -->   2 G_2            
     e(173 -174) =     17.10254  eV     2   -->   2 G_2            
     e(175 -176) =     17.14879  eV     2   -->   2 G_2            
     e(177 -178) =     17.31279  eV     2   -->   2 G_2            
     e(179 -180) =     17.40228  eV     2   -->   2 G_2            
     e(181 -182) =     17.44272  eV     2   -->   2 G_2            
     e(183 -184) =     17.66806  eV     2   -->   2 G_2            
     e(185 -186) =     17.75267  eV     2   -->   2 G_2            
     e(187 -188) =     17.95398  eV     2   -->   2 G_2            
     e(189 -190) =     18.14782  eV     2   -->   2 G_2            
     e(191 -192) =     18.19483  eV     2   -->   2 G_2            
     e(193 -194) =     18.69458  eV     2   -->   2 G_2            
     e(195 -196) =     18.93634  eV     2   -->   2 G_2            
     e(197 -198) =     18.96453  eV     2   -->   2 G_2            
     e(199 -200) =     19.08839  eV     2   -->   2 G_2            

 **************************************************************************

 **************************************************************************

                    xk=(   0.03571,   0.02062,   0.00000  )

     Band symmetry, C_1 (1)     double point group:

     e(  1 -  2) =    -35.70268  eV     2   -->   2 G_2            
     e(  3 -  4) =    -35.70063  eV     2   -->   2 G_2            
     e(  5 -  6) =    -35.66627  eV     2   -->   2 G_2            
     e(  7 -  8) =    -35.66422  eV     2   -->   2 G_2            
     e(  9 - 10) =    -35.59739  eV     2   -->   2 G_2            
     e( 11 - 12) =    -35.56728  eV     2   -->   2 G_2            
     e( 13 - 14) =    -34.24477  eV     2   -->   2 G_2            
     e( 15 - 16) =    -34.24274  eV     2   -->   2 G_2            
     e( 17 - 18) =    -34.21440  eV     2   -->   2 G_2            
     e( 19 - 20) =    -34.21233  eV     2   -->   2 G_2            
     e( 21 - 22) =    -34.19745  eV     2   -->   2 G_2            
     e( 23 - 24) =    -34.19542  eV     2   -->   2 G_2            
     e( 25 - 26) =    -34.13650  eV     2   -->   2 G_2            
     e( 27 - 28) =    -34.11759  eV     2   -->   2 G_2            
     e( 29 - 30) =    -34.09683  eV     2   -->   2 G_2            
     e( 31 - 32) =    -28.35746  eV     2   -->   2 G_2            
     e( 33 - 34) =    -28.35619  eV     2   -->   2 G_2            
     e( 35 - 36) =    -28.34876  eV     2   -->   2 G_2            
     e( 37 - 38) =    -28.34750  eV     2   -->   2 G_2            
     e( 39 - 40) =    -27.11779  eV     2   -->   2 G_2            
     e( 41 - 42) =    -27.11651  eV     2   -->   2 G_2            
     e( 43 - 44) =    -27.10990  eV     2   -->   2 G_2            
     e( 45 - 46) =    -27.10863  eV     2   -->   2 G_2            
     e( 47 - 48) =    -27.10567  eV     2   -->   2 G_2            
     e( 49 - 50) =    -27.10440  eV     2   -->   2 G_2            
     e( 51 - 52) =    -10.73946  eV     2   -->   2 G_2            
     e( 53 - 54) =    -10.19902  eV     2   -->   2 G_2            
     e( 55 - 56) =     -9.13469  eV     2   -->   2 G_2            
     e( 57 - 58) =     -6.41713  eV     2   -->   2 G_2            
     e( 59 - 60) =     -5.11946  eV     2   -->   2 G_2            
     e( 61 - 62) =     -0.74832  eV     2   -->   2 G_2            
     e( 63 - 63) =     -0.46200  eV     1   --> G_2            
     e( 64 - 64) =     -0.46144  eV     1   --> G_2            
     e( 65 - 65) =     -0.00488  eV     1   --> G_2            
     e( 66 - 66) =     -0.00435  eV     1   --> G_2            
     e( 67 - 67) =      0.07753  eV     1   --> G_2            
     e( 68 - 68) =      0.07853  eV     1   --> G_2            
     e( 69 - 69) =      0.29999  eV     1   --> G_2            
     e( 70 - 70) =      0.30023  eV     1   --> G_2            
     e( 71 - 71) =      0.47398  eV     1   --> G_2            
     e( 72 - 72) =      0.47506  eV     1   --> G_2            
     e( 73 - 73) =      0.74000  eV     1   --> G_2            
     e( 74 - 74) =      0.74079  eV     1   --> G_2            
     e( 75 - 75) =      0.90455  eV     1   --> G_2            
     e( 76 - 76) =      0.90529  eV     1   --> G_2            
     e( 77 - 77) =      1.20141  eV     1   --> G_2            
     e( 78 - 78) =      1.20163  eV     1   --> G_2            
     e( 79 - 79) =      1.85408  eV     1   --> G_2            
     e( 80 - 80) =      1.85443  eV     1   --> G_2            
     e( 81 - 81) =      2.39013  eV     1   --> G_2            
     e( 82 - 82) =      2.39036  eV     1   --> G_2            
     e( 83 - 83) =      2.76299  eV     1   --> G_2            
     e( 84 - 84) =      2.76351  eV     1   --> G_2            
     e( 85 - 85) =      3.10865  eV     1   --> G_2            
     e( 86 - 86) =      3.10942  eV     1   --> G_2            
     e( 87 - 87) =      3.74187  eV     1   --> G_2            
     e( 88 - 88) =      3.74212  eV     1   --> G_2            
     e( 89 - 89) =      3.97454  eV     1   --> G_2            
     e( 90 - 90) =      3.97472  eV     1   --> G_2            
     e( 91 - 92) =      6.06396  eV     2   -->   2 G_2            
     e( 93 - 94) =      6.22516  eV     2   -->   2 G_2            
     e( 95 - 96) =      6.89629  eV     2   -->   2 G_2            
     e( 97 - 98) =      7.03431  eV     2   -->   2 G_2            
     e( 99 -100) =      7.38636  eV     2   -->   2 G_2            
     e(101 -102) =      7.74928  eV     2   -->   2 G_2            
     e(103 -104) =      8.21725  eV     2   -->   2 G_2            
     e(105 -105) =      8.33425  eV     1   --> G_2            
     e(106 -106) =      8.33454  eV     1   --> G_2            
     e(107 -107) =      8.45357  eV     1   --> G_2            
     e(108 -108) =      8.45417  eV     1   --> G_2            
     e(109 -109) =      8.54291  eV     1   --> G_2            
     e(110 -110) =      8.54318  eV     1   --> G_2            
     e(111 -112) =      9.06833  eV     2   -->   2 G_2            
     e(113 -114) =      9.43837  eV     2   -->   2 G_2            
     e(115 -116) =      9.57884  eV     2   -->   2 G_2            
     e(117 -118) =      9.82049  eV     2   -->   2 G_2            
     e(119 -120) =      9.94744  eV     2   -->   2 G_2            
     e(121 -122) =     10.39866  eV     2   -->   2 G_2            
     e(123 -124) =     10.70776  eV     2   -->   2 G_2            
     e(125 -125) =     10.99878  eV     1   --> G_2            
     e(126 -126) =     10.99896  eV     1   --> G_2            
     e(127 -127) =     11.19645  eV     1   --> G_2            
     e(128 -128) =     11.19662  eV     1   --> G_2            
     e(129 -129) =     11.58455  eV     1   --> G_2            
     e(130 -130) =     11.58483  eV     1   --> G_2            
     e(131 -131) =     11.70689  eV     1   --> G_2            
     e(132 -132) =     11.70713  eV     1   --> G_2            
     e(133 -134) =     12.62446  eV     2   -->   2 G_2            
     e(135 -136) =     12.72455  eV     2   -->   2 G_2            
     e(137 -138) =     13.32492  eV     2   -->   2 G_2            
     e(139 -140) =     13.78979  eV     2   -->   2 G_2            
     e(141 -142) =     13.96470  eV     2   -->   2 G_2            
     e(143 -144) =     14.19180  eV     2   -->   2 G_2            
     e(145 -146) =     14.39009  eV     2   -->   2 G_2            
     e(147 -148) =     14.71504  eV     2   -->   2 G_2            
     e(149 -150) =     15.12046  eV     2   -->   2 G_2            
     e(151 -152) =     15.52154  eV     2   -->   2 G_2            
     e(153 -154) =     15.70055  eV     2   -->   2 G_2            
     e(155 -156) =     15.83357  eV     2   -->   2 G_2            
     e(157 -158) =     16.03563  eV     2   -->   2 G_2            
     e(159 -160) =     16.10538  eV     2   -->   2 G_2            
     e(161 -162) =     16.19800  eV     2   -->   2 G_2            
     e(163 -164) =     16.28135  eV     2   -->   2 G_2            
     e(165 -166) =     16.50888  eV     2   -->   2 G_2            
     e(167 -168) =     16.74931  eV     2   -->   2 G_2            
     e(169 -170) =     16.85281  eV     2   -->   2 G_2            
     e(171 -172) =     17.07788  eV     2   -->   2 G_2            
     e(173 -174) =     17.10137  eV     2   -->   2 G_2            
     e(175 -176) =     17.15583  eV     2   -->   2 G_2            
     e(177 -178) =     17.36397  eV     2   -->   2 G_2            
     e(179 -180) =     17.44106  eV     2   -->   2 G_2            
     e(181 -182) =     17.48286  eV     2   -->   2 G_2            
     e(183 -184) =     17.68807  eV     2   -->   2 G_2            
     e(185 -186) =     17.77894  eV     2   -->   2 G_2            
     e(187 -188) =     17.95399  eV     2   -->   2 G_2            
     e(189 -190) =     18.05201  eV     2   -->   2 G_2            
     e(191 -192) =     18.20281  eV     2   -->   2 G_2            
     e(193 -194) =     18.64831  eV     2   -->   2 G_2            
     e(195 -196) =     18.89204  eV     2   -->   2 G_2            
     e(197 -198) =     19.00059  eV     2   -->   2 G_2            
     e(199 -200) =     19.15461  eV     2   -->   2 G_2            

 **************************************************************************

 **************************************************************************

                    xk=(   0.04286,   0.02474,   0.00000  )

     Band symmetry, C_1 (1)     double point group:

     e(  1 -  2) =    -35.70267  eV     2   -->   2 G_2            
     e(  3 -  4) =    -35.70063  eV     2   -->   2 G_2            
     e(  5 -  6) =    -35.66627  eV     2   -->   2 G_2            
     e(  7 -  8) =    -35.66422  eV     2   -->   2 G_2            
     e(  9 - 10) =    -35.59739  eV     2   -->   2 G_2            
     e( 11 - 12) =    -35.56727  eV     2   -->   2 G_2            
     e( 13 - 14) =    -34.24477  eV     2   -->   2 G_2            
     e( 15 - 16) =    -34.24273  eV     2   -->   2 G_2            
     e( 17 - 18) =    -34.21440  eV     2   -->   2 G_2            
     e( 19 - 20) =    -34.21233  eV     2   -->   2 G_2            
     e( 21 - 22) =    -34.19745  eV     2   -->   2 G_2            
     e( 23 - 24) =    -34.19542  eV     2   -->   2 G_2            
     e( 25 - 26) =    -34.13650  eV     2   -->   2 G_2            
     e( 27 - 28) =    -34.11759  eV     2   -->   2 G_2            
     e( 29 - 30) =    -34.09683  eV     2   -->   2 G_2            
     e( 31 - 32) =    -28.35746  eV     2   -->   2 G_2            
     e( 33 - 34) =    -28.35619  eV     2   -->   2 G_2            
     e( 35 - 36) =    -28.34876  eV     2   -->   2 G_2            
     e( 37 - 38) =    -28.34750  eV     2   -->   2 G_2            
     e( 39 - 40) =    -27.11779  eV     2   -->   2 G_2            
     e( 41 - 42) =    -27.11651  eV     2   -->   2 G_2            
     e( 43 - 44) =    -27.10990  eV     2   -->   2 G_2            
     e( 45 - 46) =    -27.10863  eV     2   -->   2 G_2            
     e( 47 - 48) =    -27.10567  eV     2   -->   2 G_2            
     e( 49 - 50) =    -27.10441  eV     2   -->   2 G_2            
     e( 51 - 52) =    -10.73504  eV     2   -->   2 G_2            
     e( 53 - 54) =    -10.19504  eV     2   -->   2 G_2            
     e( 55 - 56) =     -9.13244  eV     2   -->   2 G_2            
     e( 57 - 58) =     -6.41858  eV     2   -->   2 G_2            
     e( 59 - 60) =     -5.12900  eV     2   -->   2 G_2            
     e( 61 - 62) =     -0.75789  eV     2   -->   2 G_2            
     e( 63 - 63) =     -0.51138  eV     1   --> G_2            
     e( 64 - 64) =     -0.51075  eV     1   --> G_2            
     e( 65 - 65) =     -0.01418  eV     1   --> G_2            
     e( 66 - 66) =     -0.01381  eV     1   --> G_2            
     e( 67 - 67) =      0.04111  eV     1   --> G_2            
     e( 68 - 68) =      0.04199  eV     1   --> G_2            
     e( 69 - 69) =      0.29210  eV     1   --> G_2            
     e( 70 - 70) =      0.29239  eV     1   --> G_2            
     e( 71 - 71) =      0.47837  eV     1   --> G_2            
     e( 72 - 72) =      0.47941  eV     1   --> G_2            
     e( 73 - 73) =      0.74312  eV     1   --> G_2            
     e( 74 - 74) =      0.74393  eV     1   --> G_2            
     e( 75 - 75) =      0.90980  eV     1   --> G_2            
     e( 76 - 76) =      0.91056  eV     1   --> G_2            
     e( 77 - 77) =      1.22627  eV     1   --> G_2            
     e( 78 - 78) =      1.22654  eV     1   --> G_2            
     e( 79 - 79) =      1.90219  eV     1   --> G_2            
     e( 80 - 80) =      1.90260  eV     1   --> G_2            
     e( 81 - 81) =      2.37419  eV     1   --> G_2            
     e( 82 - 82) =      2.37442  eV     1   --> G_2            
     e( 83 - 83) =      2.75697  eV     1   --> G_2            
     e( 84 - 84) =      2.75743  eV     1   --> G_2            
     e( 85 - 85) =      3.14120  eV     1   --> G_2            
     e( 86 - 86) =      3.14198  eV     1   --> G_2            
     e( 87 - 87) =      3.75665  eV     1   --> G_2            
     e( 88 - 88) =      3.75692  eV     1   --> G_2            
     e( 89 - 89) =      3.97573  eV     1   --> G_2            
     e( 90 - 90) =      3.97592  eV     1   --> G_2            
     e( 91 - 92) =      6.07161  eV     2   -->   2 G_2            
     e( 93 - 94) =      6.22535  eV     2   -->   2 G_2            
     e( 95 - 96) =      6.89467  eV     2   -->   2 G_2            
     e( 97 - 98) =      7.01879  eV     2   -->   2 G_2            
     e( 99 -100) =      7.38490  eV     2   -->   2 G_2            
     e(101 -102) =      7.75247  eV     2   -->   2 G_2            
     e(103 -104) =      8.22291  eV     2   -->   2 G_2            
     e(105 -105) =      8.32827  eV     1   --> G_2            
     e(106 -106) =      8.32852  eV     1   --> G_2            
     e(107 -107) =      8.44681  eV     1   --> G_2            
     e(108 -108) =      8.44731  eV     1   --> G_2            
     e(109 -109) =      8.56638  eV     1   --> G_2            
     e(110 -110) =      8.56657  eV     1   --> G_2            
     e(111 -112) =      9.05923  eV     2   -->   2 G_2            
     e(113 -114) =      9.48079  eV     2   -->   2 G_2            
     e(115 -116) =      9.59616  eV     2   -->   2 G_2            
     e(117 -118) =      9.80442  eV     2   -->   2 G_2            
     e(119 -120) =      9.96662  eV     2   -->   2 G_2            
     e(121 -122) =     10.41470  eV     2   -->   2 G_2            
     e(123 -124) =     10.71083  eV     2   -->   2 G_2            
     e(125 -125) =     10.97184  eV     1   --> G_2            
     e(126 -126) =     10.97200  eV     1   --> G_2            
     e(127 -127) =     11.17253  eV     1   --> G_2            
     e(128 -128) =     11.17267  eV     1   --> G_2            
     e(129 -129) =     11.64076  eV     1   --> G_2            
     e(130 -130) =     11.64106  eV     1   --> G_2            
     e(131 -131) =     11.75250  eV     1   --> G_2            
     e(132 -132) =     11.75277  eV     1   --> G_2            
     e(133 -134) =     12.60831  eV     2   -->   2 G_2            
     e(135 -136) =     12.73246  eV     2   -->   2 G_2            
     e(137 -138) =     13.28898  eV     2   -->   2 G_2            
     e(139 -140) =     13.76971  eV     2   -->   2 G_2            
     e(141 -142) =     13.97268  eV     2   -->   2 G_2            
     e(143 -144) =     14.21747  eV     2   -->   2 G_2            
     e(145 -146) =     14.41317  eV     2   -->   2 G_2            
     e(147 -148) =     14.64494  eV     2   -->   2 G_2            
     e(149 -150) =     15.15334  eV     2   -->   2 G_2            
     e(151 -152) =     15.46849  eV     2   -->   2 G_2            
     e(153 -154) =     15.62734  eV     2   -->   2 G_2            
     e(155 -156) =     15.79166  eV     2   -->   2 G_2            
     e(157 -158) =     16.00959  eV     2   -->   2 G_2            
     e(159 -160) =     16.10029  eV     2   -->   2 G_2            
     e(161 -162) =     16.21383  eV     2   -->   2 G_2            
     e(163 -164) =     16.30255  eV     2   -->   2 G_2            
     e(165 -166) =     16.52334  eV     2   -->   2 G_2            
     e(167 -168) =     16.71366  eV     2   -->   2 G_2            
     e(169 -170) =     16.82420  eV     2   -->   2 G_2            
     e(171 -172) =     17.05959  eV     2   -->   2 G_2            
     e(173 -174) =     17.11008  eV     2   -->   2 G_2            
     e(175 -176) =     17.23308  eV     2   -->   2 G_2            
     e(177 -178) =     17.37201  eV     2   -->   2 G_2            
     e(179 -180) =     17.48020  eV     2   -->   2 G_2            
     e(181 -182) =     17.57218  eV     2   -->   2 G_2            
     e(183 -184) =     17.68625  eV     2   -->   2 G_2            
     e(185 -186) =     17.81064  eV     2   -->   2 G_2            
     e(187 -188) =     17.93879  eV     2   -->   2 G_2            
     e(189 -190) =     17.99586  eV     2   -->   2 G_2            
     e(191 -192) =     18.24775  eV     2   -->   2 G_2            
     e(193 -194) =     18.59637  eV     2   -->   2 G_2            
     e(195 -196) =     18.84687  eV     2   -->   2 G_2            
     e(197 -198) =     18.99498  eV     2   -->   2 G_2            
     e(199 -200) =     19.15250  eV     2   -->   2 G_2            

 **************************************************************************

 **************************************************************************

                    xk=(   0.05000,   0.02887,   0.00000  )

     Band symmetry, C_1 (1)     double point group:

     e(  1 -  2) =    -35.70267  eV     2   -->   2 G_2            
     e(  3 -  4) =    -35.70063  eV     2   -->   2 G_2            
     e(  5 -  6) =    -35.66627  eV     2   -->   2 G_2            
     e(  7 -  8) =    -35.66422  eV     2   -->   2 G_2            
     e(  9 - 10) =    -35.59739  eV     2   -->   2 G_2            
     e( 11 - 12) =    -35.56727  eV     2   -->   2 G_2            
     e( 13 - 14) =    -34.24477  eV     2   -->   2 G_2            
     e( 15 - 16) =    -34.24273  eV     2   -->   2 G_2            
     e( 17 - 18) =    -34.21440  eV     2   -->   2 G_2            
     e( 19 - 20) =    -34.21233  eV     2   -->   2 G_2            
     e( 21 - 22) =    -34.19745  eV     2   -->   2 G_2            
     e( 23 - 24) =    -34.19542  eV     2   -->   2 G_2            
     e( 25 - 26) =    -34.13650  eV     2   -->   2 G_2            
     e( 27 - 28) =    -34.11759  eV     2   -->   2 G_2            
     e( 29 - 30) =    -34.09683  eV     2   -->   2 G_2            
     e( 31 - 32) =    -28.35746  eV     2   -->   2 G_2            
     e( 33 - 34) =    -28.35619  eV     2   -->   2 G_2            
     e( 35 - 36) =    -28.34877  eV     2   -->   2 G_2            
     e( 37 - 38) =    -28.34751  eV     2   -->   2 G_2            
     e( 39 - 40) =    -27.11778  eV     2   -->   2 G_2            
     e( 41 - 42) =    -27.11650  eV     2   -->   2 G_2            
     e( 43 - 44) =    -27.10991  eV     2   -->   2 G_2            
     e( 45 - 46) =    -27.10864  eV     2   -->   2 G_2            
     e( 47 - 48) =    -27.10567  eV     2   -->   2 G_2            
     e( 49 - 50) =    -27.10441  eV     2   -->   2 G_2            
     e( 51 - 52) =    -10.72981  eV     2   -->   2 G_2            
     e( 53 - 54) =    -10.19035  eV     2   -->   2 G_2            
     e( 55 - 56) =     -9.12980  eV     2   -->   2 G_2            
     e( 57 - 58) =     -6.42033  eV     2   -->   2 G_2            
     e( 59 - 60) =     -5.14024  eV     2   -->   2 G_2            
     e( 61 - 62) =     -0.76941  eV     2   -->   2 G_2            
     e( 63 - 63) =     -0.56463  eV     1   --> G_2            
     e( 64 - 64) =     -0.56393  eV     1   --> G_2            
     e( 65 - 65) =     -0.03702  eV     1   --> G_2            
     e( 66 - 66) =     -0.03662  eV     1   --> G_2            
     e( 67 - 67) =      0.01427  eV     1   --> G_2            
     e( 68 - 68) =      0.01488  eV     1   --> G_2            
     e( 69 - 69) =      0.28205  eV     1   --> G_2            
     e( 70 - 70) =      0.28237  eV     1   --> G_2            
     e( 71 - 71) =      0.47585  eV     1   --> G_2            
     e( 72 - 72) =      0.47680  eV     1   --> G_2            
     e( 73 - 73) =      0.74282  eV     1   --> G_2            
     e( 74 - 74) =      0.74357  eV     1   --> G_2            
     e( 75 - 75) =      0.92476  eV     1   --> G_2            
     e( 76 - 76) =      0.92547  eV     1   --> G_2            
     e( 77 - 77) =      1.25480  eV     1   --> G_2            
     e( 78 - 78) =      1.25509  eV     1   --> G_2            
     e( 79 - 79) =      1.95049  eV     1   --> G_2            
     e( 80 - 80) =      1.95096  eV     1   --> G_2            
     e( 81 - 81) =      2.35936  eV     1   --> G_2            
     e( 82 - 82) =      2.35961  eV     1   --> G_2            
     e( 83 - 83) =      2.75691  eV     1   --> G_2            
     e( 84 - 84) =      2.75730  eV     1   --> G_2            
     e( 85 - 85) =      3.17227  eV     1   --> G_2            
     e( 86 - 86) =      3.17305  eV     1   --> G_2            
     e( 87 - 87) =      3.77226  eV     1   --> G_2            
     e( 88 - 88) =      3.77252  eV     1   --> G_2            
     e( 89 - 89) =      3.97922  eV     1   --> G_2            
     e( 90 - 90) =      3.97943  eV     1   --> G_2            
     e( 91 - 92) =      6.08054  eV     2   -->   2 G_2            
     e( 93 - 94) =      6.22543  eV     2   -->   2 G_2            
     e( 95 - 96) =      6.88997  eV     2   -->   2 G_2            
     e( 97 - 98) =      7.00395  eV     2   -->   2 G_2            
     e( 99 -100) =      7.38383  eV     2   -->   2 G_2            
     e(101 -102) =      7.75751  eV     2   -->   2 G_2            
     e(103 -103) =      8.21746  eV     1   --> G_2            
     e(104 -104) =      8.21759  eV     1   --> G_2            
     e(105 -105) =      8.33241  eV     1   --> G_2            
     e(106 -106) =      8.33260  eV     1   --> G_2            
     e(107 -107) =      8.44147  eV     1   --> G_2            
     e(108 -108) =      8.44190  eV     1   --> G_2            
     e(109 -109) =      8.59348  eV     1   --> G_2            
     e(110 -110) =      8.59361  eV     1   --> G_2            
     e(111 -112) =      9.05125  eV     2   -->   2 G_2            
     e(113 -114) =      9.51731  eV     2   -->   2 G_2            
     e(115 -116) =      9.61616  eV     2   -->   2 G_2            
     e(117 -118) =      9.79388  eV     2   -->   2 G_2            
     e(119 -120) =      9.98986  eV     2   -->   2 G_2            
     e(121 -122) =     10.43470  eV     2   -->   2 G_2            
     e(123 -124) =     10.70452  eV     2   -->   2 G_2            
     e(125 -125) =     10.95708  eV     1   --> G_2            
     e(126 -126) =     10.95721  eV     1   --> G_2            
     e(127 -127) =     11.14973  eV     1   --> G_2            
     e(128 -128) =     11.14986  eV     1   --> G_2            
     e(129 -129) =     11.69614  eV     1   --> G_2            
     e(130 -130) =     11.69647  eV     1   --> G_2            
     e(131 -131) =     11.80099  eV     1   --> G_2            
     e(132 -132) =     11.80128  eV     1   --> G_2            
     e(133 -134) =     12.59002  eV     2   -->   2 G_2            
     e(135 -136) =     12.74183  eV     2   -->   2 G_2            
     e(137 -138) =     13.25537  eV     2   -->   2 G_2            
     e(139 -140) =     13.74427  eV     2   -->   2 G_2            
     e(141 -142) =     13.97819  eV     2   -->   2 G_2            
     e(143 -144) =     14.24681  eV     2   -->   2 G_2            
     e(145 -146) =     14.41607  eV     2   -->   2 G_2            
     e(147 -148) =     14.59636  eV     2   -->   2 G_2            
     e(149 -150) =     15.19329  eV     2   -->   2 G_2            
     e(151 -152) =     15.39865  eV     2   -->   2 G_2            
     e(153 -154) =     15.56096  eV     2   -->   2 G_2            
     e(155 -156) =     15.73435  eV     2   -->   2 G_2            
     e(157 -158) =     15.93188  eV     2   -->   2 G_2            
     e(159 -160) =     16.13968  eV     2   -->   2 G_2            
     e(161 -162) =     16.24185  eV     2   -->   2 G_2            
     e(163 -164) =     16.33294  eV     2   -->   2 G_2            
     e(165 -166) =     16.54241  eV     2   -->   2 G_2            
     e(167 -168) =     16.68906  eV     2   -->   2 G_2            
     e(169 -170) =     16.79064  eV     2   -->   2 G_2            
     e(171 -172) =     17.01669  eV     2   -->   2 G_2            
     e(173 -174) =     17.10519  eV     2   -->   2 G_2            
     e(175 -176) =     17.32665  eV     2   -->   2 G_2            
     e(177 -178) =     17.37147  eV     2   -->   2 G_2            
     e(179 -180) =     17.48800  eV     2   -->   2 G_2            
     e(181 -182) =     17.66723  eV     2   -->   2 G_2            
     e(183 -184) =     17.70397  eV     2   -->   2 G_2            
     e(185 -186) =     17.81166  eV     2   -->   2 G_2            
     e(187 -188) =     17.89748  eV     2   -->   2 G_2            
     e(189 -190) =     18.04971  eV     2   -->   2 G_2            
     e(191 -192) =     18.30241  eV     2   -->   2 G_2            
     e(193 -194) =     18.54370  eV     2   -->   2 G_2            
     e(195 -196) =     18.80418  eV     2   -->   2 G_2            
     e(197 -198) =     18.96367  eV     2   -->   2 G_2            
     e(199 -200) =     19.11197  eV     2   -->   2 G_2            

 **************************************************************************

 **************************************************************************

                    xk=(   0.05714,   0.03299,   0.00000  )

     Band symmetry, C_1 (1)     double point group:

     e(  1 -  2) =    -35.70267  eV     2   -->   2 G_2            
     e(  3 -  4) =    -35.70063  eV     2   -->   2 G_2            
     e(  5 -  6) =    -35.66627  eV     2   -->   2 G_2            
     e(  7 -  8) =    -35.66422  eV     2   -->   2 G_2            
     e(  9 - 10) =    -35.59739  eV     2   -->   2 G_2            
     e( 11 - 12) =    -35.56727  eV     2   -->   2 G_2            
     e( 13 - 14) =    -34.24476  eV     2   -->   2 G_2            
     e( 15 - 16) =    -34.24273  eV     2   -->   2 G_2            
     e( 17 - 18) =    -34.21440  eV     2   -->   2 G_2            
     e( 19 - 20) =    -34.21233  eV     2   -->   2 G_2            
     e( 21 - 22) =    -34.19745  eV     2   -->   2 G_2            
     e( 23 - 24) =    -34.19542  eV     2   -->   2 G_2            
     e( 25 - 26) =    -34.13650  eV     2   -->   2 G_2            
     e( 27 - 28) =    -34.11759  eV     2   -->   2 G_2            
     e( 29 - 30) =    -34.09682  eV     2   -->   2 G_2            
     e( 31 - 32) =    -28.35746  eV     2   -->   2 G_2            
     e( 33 - 34) =    -28.35619  eV     2   -->   2 G_2            
     e( 35 - 36) =    -28.34877  eV     2   -->   2 G_2            
     e( 37 - 38) =    -28.34751  eV     2   -->   2 G_2            
     e( 39 - 40) =    -27.11777  eV     2   -->   2 G_2            
     e( 41 - 42) =    -27.11649  eV     2   -->   2 G_2            
     e( 43 - 44) =    -27.10992  eV     2   -->   2 G_2            
     e( 45 - 46) =    -27.10865  eV     2   -->   2 G_2            
     e( 47 - 48) =    -27.10567  eV     2   -->   2 G_2            
     e( 49 - 50) =    -27.10441  eV     2   -->   2 G_2            
     e( 51 - 52) =    -10.72379  eV     2   -->   2 G_2            
     e( 53 - 54) =    -10.18494  eV     2   -->   2 G_2            
     e( 55 - 56) =     -9.12677  eV     2   -->   2 G_2            
     e( 57 - 58) =     -6.42237  eV     2   -->   2 G_2            
     e( 59 - 60) =     -5.15317  eV     2   -->   2 G_2            
     e( 61 - 61) =     -0.78322  eV     1   --> G_2            
     e( 62 - 62) =     -0.78309  eV     1   --> G_2            
     e( 63 - 63) =     -0.62045  eV     1   --> G_2            
     e( 64 - 64) =     -0.61967  eV     1   --> G_2            
     e( 65 - 65) =     -0.07323  eV     1   --> G_2            
     e( 66 - 66) =     -0.07251  eV     1   --> G_2            
     e( 67 - 67) =     -0.00293  eV     1   --> G_2            
     e( 68 - 68) =     -0.00238  eV     1   --> G_2            
     e( 69 - 69) =      0.26889  eV     1   --> G_2            
     e( 70 - 70) =      0.26924  eV     1   --> G_2            
     e( 71 - 71) =      0.46711  eV     1   --> G_2            
     e( 72 - 72) =      0.46795  eV     1   --> G_2            
     e( 73 - 73) =      0.74187  eV     1   --> G_2            
     e( 74 - 74) =      0.74252  eV     1   --> G_2            
     e( 75 - 75) =      0.94749  eV     1   --> G_2            
     e( 76 - 76) =      0.94811  eV     1   --> G_2            
     e( 77 - 77) =      1.28517  eV     1   --> G_2            
     e( 78 - 78) =      1.28548  eV     1   --> G_2            
     e( 79 - 79) =      1.99591  eV     1   --> G_2            
     e( 80 - 80) =      1.99644  eV     1   --> G_2            
     e( 81 - 81) =      2.34913  eV     1   --> G_2            
     e( 82 - 82) =      2.34940  eV     1   --> G_2            
     e( 83 - 83) =      2.76245  eV     1   --> G_2            
     e( 84 - 84) =      2.76277  eV     1   --> G_2            
     e( 85 - 85) =      3.20152  eV     1   --> G_2            
     e( 86 - 86) =      3.20229  eV     1   --> G_2            
     e( 87 - 87) =      3.78759  eV     1   --> G_2            
     e( 88 - 88) =      3.78784  eV     1   --> G_2            
     e( 89 - 89) =      3.98613  eV     1   --> G_2            
     e( 90 - 90) =      3.98634  eV     1   --> G_2            
     e( 91 - 92) =      6.09071  eV     2   -->   2 G_2            
     e( 93 - 94) =      6.22532  eV     2   -->   2 G_2            
     e( 95 - 96) =      6.88022  eV     2   -->   2 G_2            
     e( 97 - 98) =      6.99221  eV     2   -->   2 G_2            
     e( 99 -100) =      7.38329  eV     2   -->   2 G_2            
     e(101 -102) =      7.76456  eV     2   -->   2 G_2            
     e(103 -103) =      8.20187  eV     1   --> G_2            
     e(104 -104) =      8.20201  eV     1   --> G_2            
     e(105 -105) =      8.34574  eV     1   --> G_2            
     e(106 -106) =      8.34590  eV     1   --> G_2            
     e(107 -107) =      8.43841  eV     1   --> G_2            
     e(108 -108) =      8.43878  eV     1   --> G_2            
     e(109 -109) =      8.62319  eV     1   --> G_2            
     e(110 -110) =      8.62330  eV     1   --> G_2            
     e(111 -112) =      9.04472  eV     2   -->   2 G_2            
     e(113 -114) =      9.54016  eV     2   -->   2 G_2            
     e(115 -116) =      9.64076  eV     2   -->   2 G_2            
     e(117 -118) =      9.79387  eV     2   -->   2 G_2            
     e(119 -120) =     10.01731  eV     2   -->   2 G_2            
     e(121 -122) =     10.45846  eV     2   -->   2 G_2            
     e(123 -124) =     10.68839  eV     2   -->   2 G_2            
     e(125 -125) =     10.95478  eV     1   --> G_2            
     e(126 -126) =     10.95488  eV     1   --> G_2            
     e(127 -127) =     11.12912  eV     1   --> G_2            
     e(128 -128) =     11.12924  eV     1   --> G_2            
     e(129 -129) =     11.74963  eV     1   --> G_2            
     e(130 -130) =     11.74996  eV     1   --> G_2            
     e(131 -131) =     11.85171  eV     1   --> G_2            
     e(132 -132) =     11.85200  eV     1   --> G_2            
     e(133 -134) =     12.57023  eV     2   -->   2 G_2            
     e(135 -136) =     12.75273  eV     2   -->   2 G_2            
     e(137 -138) =     13.22489  eV     2   -->   2 G_2            
     e(139 -140) =     13.71666  eV     2   -->   2 G_2            
     e(141 -142) =     13.97640  eV     2   -->   2 G_2            
     e(143 -144) =     14.27533  eV     2   -->   2 G_2            
     e(145 -146) =     14.38570  eV     2   -->   2 G_2            
     e(147 -148) =     14.59135  eV     2   -->   2 G_2            
     e(149 -150) =     15.23029  eV     2   -->   2 G_2            
     e(151 -152) =     15.31232  eV     2   -->   2 G_2            
     e(153 -154) =     15.50984  eV     2   -->   2 G_2            
     e(155 -156) =     15.66686  eV     2   -->   2 G_2            
     e(157 -158) =     15.86928  eV     2   -->   2 G_2            
     e(159 -160) =     16.15753  eV     2   -->   2 G_2            
     e(161 -162) =     16.27406  eV     2   -->   2 G_2            
     e(163 -164) =     16.36710  eV     2   -->   2 G_2            
     e(165 -166) =     16.55618  eV     2   -->   2 G_2            
     e(167 -168) =     16.68218  eV     2   -->   2 G_2            
     e(169 -170) =     16.76441  eV     2   -->   2 G_2            
     e(171 -172) =     16.97347  eV     2   -->   2 G_2            
     e(173 -174) =     17.08275  eV     2   -->   2 G_2            
     e(175 -176) =     17.33838  eV     2   -->   2 G_2            
     e(177 -178) =     17.42309  eV     2   -->   2 G_2            
     e(179 -180) =     17.48528  eV     2   -->   2 G_2            
     e(181 -182) =     17.69102  eV     2   -->   2 G_2            
     e(183 -184) =     17.76381  eV     2   -->   2 G_2            
     e(185 -186) =     17.79137  eV     2   -->   2 G_2            
     e(187 -188) =     17.97065  eV     2   -->   2 G_2            
     e(189 -190) =     18.11541  eV     2   -->   2 G_2            
     e(191 -192) =     18.35895  eV     2   -->   2 G_2            
     e(193 -194) =     18.49269  eV     2   -->   2 G_2            
     e(195 -196) =     18.76612  eV     2   -->   2 G_2            
     e(197 -198) =     18.92194  eV     2   -->   2 G_2            
     e(199 -200) =     19.06535  eV     2   -->   2 G_2            

 **************************************************************************

 **************************************************************************

                    xk=(   0.06429,   0.03712,   0.00000  )

     Band symmetry, C_1 (1)     double point group:

     e(  1 -  2) =    -35.70267  eV     2   -->   2 G_2            
     e(  3 -  4) =    -35.70062  eV     2   -->   2 G_2            
     e(  5 -  6) =    -35.66627  eV     2   -->   2 G_2            
     e(  7 -  8) =    -35.66422  eV     2   -->   2 G_2            
     e(  9 - 10) =    -35.59739  eV     2   -->   2 G_2            
     e( 11 - 12) =    -35.56727  eV     2   -->   2 G_2            
     e( 13 - 14) =    -34.24476  eV     2   -->   2 G_2            
     e( 15 - 16) =    -34.24272  eV     2   -->   2 G_2            
     e( 17 - 18) =    -34.21440  eV     2   -->   2 G_2            
     e( 19 - 20) =    -34.21233  eV     2   -->   2 G_2            
     e( 21 - 22) =    -34.19745  eV     2   -->   2 G_2            
     e( 23 - 24) =    -34.19542  eV     2   -->   2 G_2            
     e( 25 - 26) =    -34.13649  eV     2   -->   2 G_2            
     e( 27 - 28) =    -34.11759  eV     2   -->   2 G_2            
     e( 29 - 30) =    -34.09682  eV     2   -->   2 G_2            
     e( 31 - 32) =    -28.35746  eV     2   -->   2 G_2            
     e( 33 - 34) =    -28.35619  eV     2   -->   2 G_2            
     e( 35 - 36) =    -28.34877  eV     2   -->   2 G_2            
     e( 37 - 38) =    -28.34751  eV     2   -->   2 G_2            
     e( 39 - 40) =    -27.11777  eV     2   -->   2 G_2            
     e( 41 - 42) =    -27.11649  eV     2   -->   2 G_2            
     e( 43 - 44) =    -27.10992  eV     2   -->   2 G_2            
     e( 45 - 46) =    -27.10865  eV     2   -->   2 G_2            
     e( 47 - 48) =    -27.10567  eV     2   -->   2 G_2            
     e( 49 - 50) =    -27.10441  eV     2   -->   2 G_2            
     e( 51 - 52) =    -10.71697  eV     2   -->   2 G_2            
     e( 53 - 54) =    -10.17881  eV     2   -->   2 G_2            
     e( 55 - 56) =     -9.12335  eV     2   -->   2 G_2            
     e( 57 - 58) =     -6.42473  eV     2   -->   2 G_2            
     e( 59 - 60) =     -5.16778  eV     2   -->   2 G_2            
     e( 61 - 61) =     -0.80025  eV     1   --> G_2            
     e( 62 - 62) =     -0.80002  eV     1   --> G_2            
     e( 63 - 63) =     -0.67713  eV     1   --> G_2            
     e( 64 - 64) =     -0.67621  eV     1   --> G_2            
     e( 65 - 65) =     -0.11493  eV     1   --> G_2            
     e( 66 - 66) =     -0.11407  eV     1   --> G_2            
     e( 67 - 67) =     -0.01760  eV     1   --> G_2            
     e( 68 - 68) =     -0.01704  eV     1   --> G_2            
     e( 69 - 69) =      0.25179  eV     1   --> G_2            
     e( 70 - 70) =      0.25218  eV     1   --> G_2            
     e( 71 - 71) =      0.45368  eV     1   --> G_2            
     e( 72 - 72) =      0.45437  eV     1   --> G_2            
     e( 73 - 73) =      0.74279  eV     1   --> G_2            
     e( 74 - 74) =      0.74335  eV     1   --> G_2            
     e( 75 - 75) =      0.97521  eV     1   --> G_2            
     e( 76 - 76) =      0.97576  eV     1   --> G_2            
     e( 77 - 77) =      1.31540  eV     1   --> G_2            
     e( 78 - 78) =      1.31571  eV     1   --> G_2            
     e( 79 - 79) =      2.03506  eV     1   --> G_2            
     e( 80 - 80) =      2.03564  eV     1   --> G_2            
     e( 81 - 81) =      2.34777  eV     1   --> G_2            
     e( 82 - 82) =      2.34810  eV     1   --> G_2            
     e( 83 - 83) =      2.77307  eV     1   --> G_2            
     e( 84 - 84) =      2.77333  eV     1   --> G_2            
     e( 85 - 85) =      3.22883  eV     1   --> G_2            
[...]
     e( 82 - 82) =      2.43197  eV     1   --> G_2            
     e( 83 - 83) =      2.79720  eV     1   --> G_2            
     e( 84 - 84) =      2.79771  eV     1   --> G_2            
     e( 85 - 85) =      3.02110  eV     1   --> G_2            
     e( 86 - 86) =      3.02182  eV     1   --> G_2            
     e( 87 - 87) =      3.71440  eV     1   --> G_2            
     e( 88 - 88) =      3.71458  eV     1   --> G_2            
     e( 89 - 90) =      3.97732  eV     2   -->   2 G_2            
     e( 91 - 92) =      6.05032  eV     2   -->   2 G_2            
     e( 93 - 94) =      6.22489  eV     2   -->   2 G_2            
     e( 95 - 96) =      6.89524  eV     2   -->   2 G_2            
     e( 97 - 98) =      7.07337  eV     2   -->   2 G_2            
     e( 99 -100) =      7.39150  eV     2   -->   2 G_2            
     e(101 -102) =      7.73006  eV     2   -->   2 G_2            
     e(103 -104) =      8.19167  eV     2   -->   2 G_2            
     e(105 -105) =      8.37398  eV     1   --> G_2            
     e(106 -106) =      8.37428  eV     1   --> G_2            
     e(107 -107) =      8.44568  eV     1   --> G_2            
     e(108 -108) =      8.44617  eV     1   --> G_2            
     e(109 -109) =      8.51913  eV     1   --> G_2            
     e(110 -110) =      8.51935  eV     1   --> G_2            
     e(111 -112) =      9.10312  eV     2   -->   2 G_2            
     e(113 -114) =      9.31973  eV     2   -->   2 G_2            
     e(115 -116) =      9.54311  eV     2   -->   2 G_2            
     e(117 -118) =      9.87172  eV     2   -->   2 G_2            
     e(119 -120) =      9.91715  eV     2   -->   2 G_2            
     e(121 -122) =     10.38167  eV     2   -->   2 G_2            
     e(123 -124) =     10.66491  eV     2   -->   2 G_2            
     e(125 -125) =     11.10723  eV     1   --> G_2            
     e(126 -126) =     11.10743  eV     1   --> G_2            
     e(127 -127) =     11.28763  eV     1   --> G_2            
     e(128 -128) =     11.28788  eV     1   --> G_2            
     e(129 -129) =     11.40191  eV     1   --> G_2            
     e(130 -130) =     11.40202  eV     1   --> G_2            
     e(131 -131) =     11.61852  eV     1   --> G_2            
     e(132 -132) =     11.61863  eV     1   --> G_2            
     e(133 -134) =     12.65621  eV     2   -->   2 G_2            
     e(135 -136) =     12.71589  eV     2   -->   2 G_2            
     e(137 -138) =     13.41757  eV     2   -->   2 G_2            
     e(139 -140) =     13.79612  eV     2   -->   2 G_2            
     e(141 -142) =     14.00125  eV     2   -->   2 G_2            
     e(143 -144) =     14.06006  eV     2   -->   2 G_2            
     e(145 -146) =     14.35124  eV     2   -->   2 G_2            
     e(147 -148) =     14.86928  eV     2   -->   2 G_2            
     e(149 -150) =     15.14880  eV     2   -->   2 G_2            
     e(151 -152) =     15.61481  eV     2   -->   2 G_2            
     e(153 -154) =     15.78176  eV     2   -->   2 G_2            
     e(155 -156) =     15.83748  eV     2   -->   2 G_2            
     e(157 -158) =     15.91884  eV     2   -->   2 G_2            
     e(159 -160) =     16.17843  eV     2   -->   2 G_2            
     e(161 -162) =     16.32731  eV     2   -->   2 G_2            
     e(163 -164) =     16.43137  eV     2   -->   2 G_2            
     e(165 -166) =     16.52140  eV     2   -->   2 G_2            
     e(167 -168) =     16.72495  eV     2   -->   2 G_2            
     e(169 -170) =     16.89078  eV     2   -->   2 G_2            
     e(171 -172) =     16.96029  eV     2   -->   2 G_2            
     e(173 -174) =     17.05046  eV     2   -->   2 G_2            
     e(175 -176) =     17.06813  eV     2   -->   2 G_2            
     e(177 -178) =     17.23337  eV     2   -->   2 G_2            
     e(179 -180) =     17.31115  eV     2   -->   2 G_2            
     e(181 -182) =     17.33049  eV     2   -->   2 G_2            
     e(183 -184) =     17.62299  eV     2   -->   2 G_2            
     e(185 -186) =     17.77446  eV     2   -->   2 G_2            
     e(187 -188) =     18.02811  eV     2   -->   2 G_2            
     e(189 -190) =     18.27411  eV     2   -->   2 G_2            
     e(191 -192) =     18.39557  eV     2   -->   2 G_2            
     e(193 -194) =     18.69837  eV     2   -->   2 G_2            
     e(195 -196) =     18.85628  eV     2   -->   2 G_2            
     e(197 -198) =     18.93083  eV     2   -->   2 G_2            
     e(199 -200) =     19.06644  eV     2   -->   2 G_2            

 **************************************************************************

 **************************************************************************

                    xk=(   0.00476,   0.00852,   0.00000  )

     Band symmetry, C_1 (1)     double point group:

     e(  1 -  2) =    -35.70268  eV     2   -->   2 G_2            
     e(  3 -  4) =    -35.70063  eV     2   -->   2 G_2            
     e(  5 -  6) =    -35.66627  eV     2   -->   2 G_2            
     e(  7 -  8) =    -35.66422  eV     2   -->   2 G_2            
     e(  9 - 10) =    -35.59739  eV     2   -->   2 G_2            
     e( 11 - 12) =    -35.56728  eV     2   -->   2 G_2            
     e( 13 - 14) =    -34.24478  eV     2   -->   2 G_2            
     e( 15 - 16) =    -34.24274  eV     2   -->   2 G_2            
     e( 17 - 18) =    -34.21440  eV     2   -->   2 G_2            
     e( 19 - 20) =    -34.21233  eV     2   -->   2 G_2            
     e( 21 - 22) =    -34.19745  eV     2   -->   2 G_2            
     e( 23 - 24) =    -34.19542  eV     2   -->   2 G_2            
     e( 25 - 26) =    -34.13650  eV     2   -->   2 G_2            
     e( 27 - 28) =    -34.11759  eV     2   -->   2 G_2            
     e( 29 - 30) =    -34.09684  eV     2   -->   2 G_2            
     e( 31 - 32) =    -28.35746  eV     2   -->   2 G_2            
     e( 33 - 34) =    -28.35618  eV     2   -->   2 G_2            
     e( 35 - 36) =    -28.34876  eV     2   -->   2 G_2            
     e( 37 - 38) =    -28.34750  eV     2   -->   2 G_2            
     e( 39 - 40) =    -27.11780  eV     2   -->   2 G_2            
     e( 41 - 42) =    -27.11652  eV     2   -->   2 G_2            
     e( 43 - 44) =    -27.10987  eV     2   -->   2 G_2            
     e( 45 - 46) =    -27.10860  eV     2   -->   2 G_2            
     e( 47 - 48) =    -27.10566  eV     2   -->   2 G_2            
     e( 49 - 50) =    -27.10440  eV     2   -->   2 G_2            
     e( 51 - 52) =    -10.74895  eV     2   -->   2 G_2            
     e( 53 - 54) =    -10.20756  eV     2   -->   2 G_2            
     e( 55 - 56) =     -9.13951  eV     2   -->   2 G_2            
     e( 57 - 58) =     -6.41404  eV     2   -->   2 G_2            
     e( 59 - 60) =     -5.09880  eV     2   -->   2 G_2            
     e( 61 - 62) =     -0.72784  eV     2   -->   2 G_2            
     e( 63 - 63) =     -0.33341  eV     1   --> G_2            
     e( 64 - 64) =     -0.33328  eV     1   --> G_2            
     e( 65 - 65) =     -0.00952  eV     1   --> G_2            
     e( 66 - 66) =     -0.00934  eV     1   --> G_2            
     e( 67 - 67) =      0.20886  eV     1   --> G_2            
     e( 68 - 68) =      0.20933  eV     1   --> G_2            
     e( 69 - 69) =      0.32608  eV     1   --> G_2            
     e( 70 - 70) =      0.32622  eV     1   --> G_2            
     e( 71 - 71) =      0.40425  eV     1   --> G_2            
     e( 72 - 72) =      0.40477  eV     1   --> G_2            
     e( 73 - 73) =      0.71277  eV     1   --> G_2            
     e( 74 - 74) =      0.71293  eV     1   --> G_2            
     e( 75 - 75) =      0.92785  eV     1   --> G_2            
     e( 76 - 76) =      0.92797  eV     1   --> G_2            
     e( 77 - 78) =      1.15709  eV     2   -->   2 G_2            
     e( 79 - 80) =      1.71960  eV     2   -->   2 G_2            
     e( 81 - 82) =      2.43198  eV     2   -->   2 G_2            
     e( 83 - 83) =      2.82377  eV     1   --> G_2            
     e( 84 - 84) =      2.82414  eV     1   --> G_2            
     e( 85 - 85) =      2.99141  eV     1   --> G_2            
     e( 86 - 86) =      2.99189  eV     1   --> G_2            
     e( 87 - 88) =      3.70649  eV     2   -->   2 G_2            
     e( 89 - 90) =      3.97737  eV     2   -->   2 G_2            
     e( 91 - 92) =      6.04729  eV     2   -->   2 G_2            
     e( 93 - 94) =      6.22449  eV     2   -->   2 G_2            
     e( 95 - 96) =      6.89463  eV     2   -->   2 G_2            
     e( 97 - 98) =      7.07580  eV     2   -->   2 G_2            
     e( 99 -100) =      7.39210  eV     2   -->   2 G_2            
     e(101 -102) =      7.74338  eV     2   -->   2 G_2            
     e(103 -104) =      8.17665  eV     2   -->   2 G_2            
     e(105 -105) =      8.38372  eV     1   --> G_2            
     e(106 -106) =      8.38393  eV     1   --> G_2            
     e(107 -107) =      8.43692  eV     1   --> G_2            
     e(108 -108) =      8.43721  eV     1   --> G_2            
     e(109 -110) =      8.52380  eV     2   -->   2 G_2            
     e(111 -112) =      9.10615  eV     2   -->   2 G_2            
     e(113 -114) =      9.30202  eV     2   -->   2 G_2            
     e(115 -116) =      9.53629  eV     2   -->   2 G_2            
     e(117 -118) =      9.87826  eV     2   -->   2 G_2            
     e(119 -120) =      9.90623  eV     2   -->   2 G_2            
     e(121 -122) =     10.37220  eV     2   -->   2 G_2            
     e(123 -124) =     10.66628  eV     2   -->   2 G_2            
     e(125 -125) =     11.15657  eV     1   --> G_2            
     e(126 -126) =     11.15676  eV     1   --> G_2            
     e(127 -127) =     11.26341  eV     1   --> G_2            
     e(128 -128) =     11.26364  eV     1   --> G_2            
     e(129 -130) =     11.39332  eV     2   -->   2 G_2            
     e(131 -132) =     11.58237  eV     2   -->   2 G_2            
     e(133 -134) =     12.66155  eV     2   -->   2 G_2            
     e(135 -136) =     12.70849  eV     2   -->   2 G_2            
     e(137 -138) =     13.44954  eV     2   -->   2 G_2            
     e(139 -140) =     13.76782  eV     2   -->   2 G_2            
     e(141 -142) =     14.02518  eV     2   -->   2 G_2            
     e(143 -144) =     14.07175  eV     2   -->   2 G_2            
     e(145 -146) =     14.32388  eV     2   -->   2 G_2            
     e(147 -148) =     14.86303  eV     2   -->   2 G_2            
     e(149 -150) =     15.19512  eV     2   -->   2 G_2            
     e(151 -152) =     15.56983  eV     2   -->   2 G_2            
     e(153 -154) =     15.76817  eV     2   -->   2 G_2            
     e(155 -156) =     15.88387  eV     2   -->   2 G_2            
     e(157 -158) =     15.93104  eV     2   -->   2 G_2            
     e(159 -160) =     16.17260  eV     2   -->   2 G_2            
     e(161 -162) =     16.39034  eV     2   -->   2 G_2            
     e(163 -164) =     16.47207  eV     2   -->   2 G_2            
     e(165 -166) =     16.57362  eV     2   -->   2 G_2            
     e(167 -168) =     16.64246  eV     2   -->   2 G_2            
     e(169 -170) =     16.81983  eV     2   -->   2 G_2            
     e(171 -172) =     16.94994  eV     2   -->   2 G_2            
     e(173 -174) =     17.01425  eV     2   -->   2 G_2            
     e(175 -176) =     17.08702  eV     2   -->   2 G_2            
     e(177 -178) =     17.23961  eV     2   -->   2 G_2            
     e(179 -180) =     17.35202  eV     2   -->   2 G_2            
     e(181 -182) =     17.39139  eV     2   -->   2 G_2            
     e(183 -184) =     17.64485  eV     2   -->   2 G_2            
     e(185 -186) =     17.66965  eV     2   -->   2 G_2            
     e(187 -188) =     17.94071  eV     2   -->   2 G_2            
     e(189 -190) =     18.35837  eV     2   -->   2 G_2            
     e(191 -192) =     18.48081  eV     2   -->   2 G_2            
     e(193 -194) =     18.60734  eV     2   -->   2 G_2            
     e(195 -196) =     18.80715  eV     2   -->   2 G_2            
     e(197 -198) =     18.96704  eV     2   -->   2 G_2            
     e(199 -200) =     19.04141  eV     2   -->   2 G_2            

 **************************************************************************

 **************************************************************************

                    xk=(   0.00000,   0.00000,   0.00000  )

     Band symmetry, C_1 (1)     double point group:

     e(  1 -  2) =    -35.70268  eV     2   -->   2 G_2            
     e(  3 -  4) =    -35.70063  eV     2   -->   2 G_2            
     e(  5 -  6) =    -35.66627  eV     2   -->   2 G_2            
     e(  7 -  8) =    -35.66422  eV     2   -->   2 G_2            
     e(  9 - 10) =    -35.59739  eV     2   -->   2 G_2            
     e( 11 - 12) =    -35.56728  eV     2   -->   2 G_2            
     e( 13 - 14) =    -34.24478  eV     2   -->   2 G_2            
     e( 15 - 16) =    -34.24274  eV     2   -->   2 G_2            
     e( 17 - 18) =    -34.21440  eV     2   -->   2 G_2            
     e( 19 - 20) =    -34.21233  eV     2   -->   2 G_2            
     e( 21 - 22) =    -34.19745  eV     2   -->   2 G_2            
     e( 23 - 24) =    -34.19542  eV     2   -->   2 G_2            
     e( 25 - 26) =    -34.13650  eV     2   -->   2 G_2            
     e( 27 - 28) =    -34.11759  eV     2   -->   2 G_2            
     e( 29 - 30) =    -34.09684  eV     2   -->   2 G_2            
     e( 31 - 32) =    -28.35746  eV     2   -->   2 G_2            
     e( 33 - 34) =    -28.35618  eV     2   -->   2 G_2            
     e( 35 - 36) =    -28.34875  eV     2   -->   2 G_2            
     e( 37 - 38) =    -28.34749  eV     2   -->   2 G_2            
     e( 39 - 40) =    -27.11780  eV     2   -->   2 G_2            
     e( 41 - 42) =    -27.11652  eV     2   -->   2 G_2            
     e( 43 - 44) =    -27.10987  eV     2   -->   2 G_2            
     e( 45 - 46) =    -27.10860  eV     2   -->   2 G_2            
     e( 47 - 48) =    -27.10566  eV     2   -->   2 G_2            
     e( 49 - 50) =    -27.10440  eV     2   -->   2 G_2            
     e( 51 - 52) =    -10.74951  eV     2   -->   2 G_2            
     e( 53 - 54) =    -10.20807  eV     2   -->   2 G_2            
     e( 55 - 56) =     -9.13981  eV     2   -->   2 G_2            
     e( 57 - 58) =     -6.41390  eV     2   -->   2 G_2            
     e( 59 - 60) =     -5.09772  eV     2   -->   2 G_2            
     e( 61 - 62) =     -0.72678  eV     2   -->   2 G_2            
     e( 63 - 64) =     -0.32599  eV     2   -->   2 G_2            
     e( 65 - 66) =     -0.01149  eV     2   -->   2 G_2            
     e( 67 - 68) =      0.21881  eV     2   -->   2 G_2            
     e( 69 - 70) =      0.33762  eV     2   -->   2 G_2            
     e( 71 - 72) =      0.39131  eV     2   -->   2 G_2            
     e( 73 - 74) =      0.71050  eV     2   -->   2 G_2            
     e( 75 - 76) =      0.92969  eV     2   -->   2 G_2            
     e( 77 - 78) =      1.15620  eV     2   -->   2 G_2            
     e( 79 - 80) =      1.71127  eV     2   -->   2 G_2            
     e( 81 - 82) =      2.43204  eV     2   -->   2 G_2            
     e( 83 - 84) =      2.83597  eV     2   -->   2 G_2            
     e( 85 - 86) =      2.97864  eV     2   -->   2 G_2            
     e( 87 - 88) =      3.70384  eV     2   -->   2 G_2            
     e( 89 - 90) =      3.97744  eV     2   -->   2 G_2            
     e( 91 - 92) =      6.04628  eV     2   -->   2 G_2            
     e( 93 - 94) =      6.22435  eV     2   -->   2 G_2            
     e( 95 - 96) =      6.89441  eV     2   -->   2 G_2            
     e( 97 - 98) =      7.07659  eV     2   -->   2 G_2            
     e( 99 -100) =      7.39233  eV     2   -->   2 G_2            
     e(101 -102) =      7.74819  eV     2   -->   2 G_2            
     e(103 -104) =      8.17115  eV     2   -->   2 G_2            
     e(105 -106) =      8.38819  eV     2   -->   2 G_2            
     e(107 -108) =      8.43290  eV     2   -->   2 G_2            
     e(109 -110) =      8.52576  eV     2   -->   2 G_2            
     e(111 -112) =      9.10733  eV     2   -->   2 G_2            
     e(113 -114) =      9.29586  eV     2   -->   2 G_2            
     e(115 -116) =      9.53383  eV     2   -->   2 G_2            
     e(117 -118) =      9.88112  eV     2   -->   2 G_2            
     e(119 -120) =      9.90209  eV     2   -->   2 G_2            
     e(121 -122) =     10.36908  eV     2   -->   2 G_2            
     e(123 -124) =     10.66668  eV     2   -->   2 G_2            
     e(125 -126) =     11.18557  eV     2   -->   2 G_2            
     e(127 -128) =     11.24189  eV     2   -->   2 G_2            
     e(129 -130) =     11.39337  eV     2   -->   2 G_2            
     e(131 -132) =     11.56850  eV     2   -->   2 G_2            
     e(133 -134) =     12.66356  eV     2   -->   2 G_2            
     e(135 -136) =     12.70579  eV     2   -->   2 G_2            
     e(137 -138) =     13.46210  eV     2   -->   2 G_2            
     e(139 -140) =     13.75631  eV     2   -->   2 G_2            
     e(141 -142) =     14.02891  eV     2   -->   2 G_2            
     e(143 -144) =     14.08214  eV     2   -->   2 G_2            
     e(145 -146) =     14.31326  eV     2   -->   2 G_2            
     e(147 -148) =     14.85857  eV     2   -->   2 G_2            
     e(149 -150) =     15.21827  eV     2   -->   2 G_2            
     e(151 -152) =     15.54701  eV     2   -->   2 G_2            
     e(153 -154) =     15.76333  eV     2   -->   2 G_2            
     e(155 -156) =     15.90617  eV     2   -->   2 G_2            
     e(157 -158) =     15.93295  eV     2   -->   2 G_2            
     e(159 -160) =     16.16563  eV     2   -->   2 G_2            
     e(161 -162) =     16.45239  eV     2   -->   2 G_2            
     e(163 -164) =     16.45521  eV     2   -->   2 G_2            
     e(165 -166) =     16.58668  eV     2   -->   2 G_2            
     e(167 -168) =     16.63766  eV     2   -->   2 G_2            
     e(169 -170) =     16.76869  eV     2   -->   2 G_2            
     e(171 -172) =     16.94360  eV     2   -->   2 G_2            
     e(173 -174) =     17.00034  eV     2   -->   2 G_2            
     e(175 -176) =     17.09547  eV     2   -->   2 G_2            
     e(177 -178) =     17.24151  eV     2   -->   2 G_2            
     e(179 -180) =     17.36978  eV     2   -->   2 G_2            
     e(181 -182) =     17.43581  eV     2   -->   2 G_2            
     e(183 -184) =     17.59549  eV     2   -->   2 G_2            
     e(185 -186) =     17.68235  eV     2   -->   2 G_2            
     e(187 -188) =     17.89332  eV     2   -->   2 G_2            
     e(189 -190) =     18.43851  eV     2   -->   2 G_2            
     e(191 -192) =     18.47064  eV     2   -->   2 G_2            
     e(193 -194) =     18.58187  eV     2   -->   2 G_2            
     e(195 -196) =     18.77288  eV     2   -->   2 G_2            
     e(197 -198) =     18.97554  eV     2   -->   2 G_2            
     e(199 -200) =     19.03629  eV     2   -->   2 G_2            

 **************************************************************************

     BANDS        :      1h10m CPU      1h12m WALL


   This run was terminated on:   5:15:47  23Aug2025            

=------------------------------------------------------------------------------=
   JOB DONE.
=------------------------------------------------------------------------------=
