
     Program BANDS v.7.4.1 starts on 22Aug2025 at 17:15:40 

     This program is part of the open-source Quantum ESPRESSO suite
     for quantum simulation of materials; please cite
         "P. Giannozzi et al., J. Phys.:Condens. Matter 21 395502 (2009);
         "P. Giannozzi et al., J. Phys.:Condens. Matter 29 465901 (2017);
         "P. Giannozzi et al., J. Chem. Phys. 152 154105 (2020);
          URL http://www.quantum-espresso.org", 
     in publications or presentations arising from this work. More details at
     http://www.quantum-espresso.org/quote

     Parallel version (MPI & OpenMP), running on      48 processor cores
     Number of MPI processes:                24
     Threads/MPI process:                     2

     MPI processes distributed on     2 nodes
     R & G space division:  proc/nbgrp/npool/nimage =      24
     47429 MiB available memory on the printing compute node when the environment starts


     Reading xml data from directory:

     tmp/Sb2Te3-uatsx-c5-soc-1.0.save/
Error reading attribute index: expected integer, found *
Error reading attribute index: expected integer, found *

     IMPORTANT: XC functional enforced from input :
     Exchange-correlation= PBE
                           (   1   4   3   4   0   0   0)
     Any further DFT definition will be discarded
     Please, verify this is what you really want


     Parallelization info
     --------------------
     sticks:   dense  smooth     PW     G-vecs:    dense   smooth      PW
     Min         134      53     15                31668     8003    1193
     Max         135      54     16                31693     8032    1208
     Sum        3235    1285    365               760395   192371   28807

     Using Slab Decomposition

     Reading collected, re-writing distributed wavefunctions
     high-symmetry point:  0.0000 0.0000 0.0000   x coordinate   0.0000
     high-symmetry point:  0.5000 0.2887 0.0000   x coordinate   0.5774
     high-symmetry point:  0.3333 0.5812 0.0000   x coordinate   0.9140
     high-symmetry point:  0.0000 0.0000 0.0000   x coordinate   1.5840

     Plottable bands (eV) written to file ./bands/Sb2Te3-uatsx-c5-soc-1.0.bands.gnu
     Bands written to file ./bands/Sb2Te3-uatsx-c5-soc-1.0.bands

 **************************************************************************

                    xk=(   0.00000,   0.00000,   0.00000  )

     double point group C_1 (1)    
     there are  2 classes and  1 irreducible representations
     the character table:

       E     -E   
                  
G_2    1.00 -1.00

     the symmetry operations in each class and the name of the first element:

     E             1
                                                                 
     -E           -1
                                                                 

     Band symmetry, C_1 (1)     double point group:

     e(  1 -  2) =    -35.43584  eV     2   -->   2 G_2            
     e(  3 -  4) =    -35.42778  eV     2   -->   2 G_2            
     e(  5 -  6) =    -35.40974  eV     2   -->   2 G_2            
     e(  7 -  8) =    -35.40170  eV     2   -->   2 G_2            
     e(  9 - 10) =    -35.31714  eV     2   -->   2 G_2            
     e( 11 - 12) =    -35.28169  eV     2   -->   2 G_2            
     e( 13 - 14) =    -33.97608  eV     2   -->   2 G_2            
     e( 15 - 16) =    -33.96802  eV     2   -->   2 G_2            
     e( 17 - 18) =    -33.95393  eV     2   -->   2 G_2            
     e( 19 - 20) =    -33.94586  eV     2   -->   2 G_2            
     e( 21 - 22) =    -33.94215  eV     2   -->   2 G_2            
     e( 23 - 24) =    -33.93414  eV     2   -->   2 G_2            
     e( 25 - 26) =    -33.85459  eV     2   -->   2 G_2            
     e( 27 - 28) =    -33.83920  eV     2   -->   2 G_2            
     e( 29 - 30) =    -33.80859  eV     2   -->   2 G_2            
     e( 31 - 32) =    -28.05722  eV     2   -->   2 G_2            
     e( 33 - 34) =    -28.05092  eV     2   -->   2 G_2            
     e( 35 - 36) =    -28.04844  eV     2   -->   2 G_2            
     e( 37 - 38) =    -28.04223  eV     2   -->   2 G_2            
     e( 39 - 40) =    -26.81815  eV     2   -->   2 G_2            
     e( 41 - 42) =    -26.81185  eV     2   -->   2 G_2            
     e( 43 - 44) =    -26.80814  eV     2   -->   2 G_2            
     e( 45 - 46) =    -26.80691  eV     2   -->   2 G_2            
     e( 47 - 48) =    -26.80191  eV     2   -->   2 G_2            
     e( 49 - 50) =    -26.80071  eV     2   -->   2 G_2            
     e( 51 - 52) =    -10.58544  eV     2   -->   2 G_2            
     e( 53 - 54) =    -10.06040  eV     2   -->   2 G_2            
     e( 55 - 56) =     -8.97502  eV     2   -->   2 G_2            
     e( 57 - 58) =     -6.21573  eV     2   -->   2 G_2            
     e( 59 - 60) =     -4.79942  eV     2   -->   2 G_2            
     e( 61 - 62) =     -0.44287  eV     2   -->   2 G_2            
     e( 63 - 64) =      0.07827  eV     2   -->   2 G_2            
     e( 65 - 66) =      0.32206  eV     2   -->   2 G_2            
     e( 67 - 68) =      0.59293  eV     2   -->   2 G_2            
     e( 69 - 70) =      0.68204  eV     2   -->   2 G_2            
     e( 71 - 72) =      0.79195  eV     2   -->   2 G_2            
     e( 73 - 74) =      1.00637  eV     2   -->   2 G_2            
     e( 75 - 76) =      1.39281  eV     2   -->   2 G_2            
     e( 77 - 78) =      1.53238  eV     2   -->   2 G_2            
     e( 79 - 80) =      2.24388  eV     2   -->   2 G_2            
     e( 81 - 82) =      2.85411  eV     2   -->   2 G_2            
     e( 83 - 84) =      3.17537  eV     2   -->   2 G_2            
     e( 85 - 86) =      3.40516  eV     2   -->   2 G_2            
     e( 87 - 88) =      4.16749  eV     2   -->   2 G_2            
     e( 89 - 90) =      4.27117  eV     2   -->   2 G_2            
     e( 91 - 92) =      6.26451  eV     2   -->   2 G_2            
     e( 93 - 94) =      6.46182  eV     2   -->   2 G_2            
     e( 95 - 96) =      7.02857  eV     2   -->   2 G_2            
     e( 97 - 98) =      7.67981  eV     2   -->   2 G_2            
     e( 99 -100) =      7.73502  eV     2   -->   2 G_2            
     e(101 -102) =      7.88013  eV     2   -->   2 G_2            
     e(103 -104) =      8.46468  eV     2   -->   2 G_2            
     e(105 -106) =      8.72341  eV     2   -->   2 G_2            
     e(107 -108) =      8.86291  eV     2   -->   2 G_2            
     e(109 -110) =      9.03857  eV     2   -->   2 G_2            
     e(111 -112) =      9.18437  eV     2   -->   2 G_2            
     e(113 -114) =      9.72494  eV     2   -->   2 G_2            
     e(115 -116) =      9.78330  eV     2   -->   2 G_2            
     e(117 -118) =     10.09007  eV     2   -->   2 G_2            
     e(119 -120) =     10.20524  eV     2   -->   2 G_2            
     e(121 -122) =     10.59967  eV     2   -->   2 G_2            
     e(123 -124) =     11.19812  eV     2   -->   2 G_2            
     e(125 -126) =     11.35440  eV     2   -->   2 G_2            
     e(127 -128) =     11.58620  eV     2   -->   2 G_2            
     e(129 -130) =     11.65571  eV     2   -->   2 G_2            
     e(131 -132) =     11.75817  eV     2   -->   2 G_2            
     e(133 -134) =     12.85349  eV     2   -->   2 G_2            
     e(135 -136) =     12.93707  eV     2   -->   2 G_2            
     e(137 -138) =     14.03178  eV     2   -->   2 G_2            
     e(139 -140) =     14.17039  eV     2   -->   2 G_2            
     e(141 -142) =     14.25513  eV     2   -->   2 G_2            
     e(143 -144) =     14.34915  eV     2   -->   2 G_2            
     e(145 -146) =     14.45777  eV     2   -->   2 G_2            
     e(147 -148) =     15.16433  eV     2   -->   2 G_2            
     e(149 -150) =     15.92015  eV     2   -->   2 G_2            
     e(151 -152) =     16.06397  eV     2   -->   2 G_2            
     e(153 -154) =     16.12179  eV     2   -->   2 G_2            
     e(155 -156) =     16.24994  eV     2   -->   2 G_2            
     e(157 -158) =     16.35373  eV     2   -->   2 G_2            
     e(159 -160) =     16.41978  eV     2   -->   2 G_2            
     e(161 -162) =     16.78072  eV     2   -->   2 G_2            
     e(163 -164) =     17.21994  eV     2   -->   2 G_2            
     e(165 -166) =     17.29358  eV     2   -->   2 G_2            
     e(167 -168) =     17.35460  eV     2   -->   2 G_2            
     e(169 -170) =     17.42703  eV     2   -->   2 G_2            
     e(171 -172) =     17.48969  eV     2   -->   2 G_2            
     e(173 -174) =     17.59416  eV     2   -->   2 G_2            
     e(175 -176) =     17.67636  eV     2   -->   2 G_2            
     e(177 -178) =     17.67826  eV     2   -->   2 G_2            
     e(179 -180) =     17.77612  eV     2   -->   2 G_2            
     e(181 -182) =     17.79302  eV     2   -->   2 G_2            
     e(183 -184) =     17.87132  eV     2   -->   2 G_2            
     e(185 -186) =     18.00265  eV     2   -->   2 G_2            
     e(187 -188) =     18.26910  eV     2   -->   2 G_2            
     e(189 -190) =     19.18368  eV     2   -->   2 G_2            
     e(191 -192) =     19.27953  eV     2   -->   2 G_2            
     e(193 -194) =     19.30527  eV     2   -->   2 G_2            
     e(195 -196) =     19.35691  eV     2   -->   2 G_2            
     e(197 -198) =     19.40631  eV     2   -->   2 G_2            
     e(199 -200) =     19.54913  eV     2   -->   2 G_2            

 **************************************************************************

 **************************************************************************

                    xk=(   0.00714,   0.00412,   0.00000  )

     Band symmetry, C_1 (1)     double point group:

     e(  1 -  2) =    -35.43584  eV     2   -->   2 G_2            
     e(  3 -  4) =    -35.42778  eV     2   -->   2 G_2            
     e(  5 -  6) =    -35.40974  eV     2   -->   2 G_2            
     e(  7 -  8) =    -35.40170  eV     2   -->   2 G_2            
     e(  9 - 10) =    -35.31714  eV     2   -->   2 G_2            
     e( 11 - 12) =    -35.28169  eV     2   -->   2 G_2            
     e( 13 - 14) =    -33.97608  eV     2   -->   2 G_2            
     e( 15 - 16) =    -33.96802  eV     2   -->   2 G_2            
     e( 17 - 18) =    -33.95393  eV     2   -->   2 G_2            
     e( 19 - 20) =    -33.94586  eV     2   -->   2 G_2            
     e( 21 - 22) =    -33.94215  eV     2   -->   2 G_2            
     e( 23 - 24) =    -33.93414  eV     2   -->   2 G_2            
     e( 25 - 26) =    -33.85459  eV     2   -->   2 G_2            
     e( 27 - 28) =    -33.83920  eV     2   -->   2 G_2            
     e( 29 - 30) =    -33.80859  eV     2   -->   2 G_2            
     e( 31 - 32) =    -28.05722  eV     2   -->   2 G_2            
     e( 33 - 34) =    -28.05092  eV     2   -->   2 G_2            
     e( 35 - 36) =    -28.04844  eV     2   -->   2 G_2            
     e( 37 - 38) =    -28.04223  eV     2   -->   2 G_2            
     e( 39 - 40) =    -26.81815  eV     2   -->   2 G_2            
     e( 41 - 42) =    -26.81185  eV     2   -->   2 G_2            
     e( 43 - 44) =    -26.80814  eV     2   -->   2 G_2            
     e( 45 - 46) =    -26.80691  eV     2   -->   2 G_2            
     e( 47 - 48) =    -26.80192  eV     2   -->   2 G_2            
     e( 49 - 50) =    -26.80071  eV     2   -->   2 G_2            
     e( 51 - 52) =    -10.58500  eV     2   -->   2 G_2            
     e( 53 - 54) =    -10.06000  eV     2   -->   2 G_2            
     e( 55 - 56) =     -8.97477  eV     2   -->   2 G_2            
     e( 57 - 58) =     -6.21577  eV     2   -->   2 G_2            
     e( 59 - 60) =     -4.80016  eV     2   -->   2 G_2            
     e( 61 - 62) =     -0.44351  eV     2   -->   2 G_2            
     e( 63 - 63) =      0.07182  eV     1   --> G_2            
     e( 64 - 64) =      0.07270  eV     1   --> G_2            
     e( 65 - 65) =      0.32247  eV     1   --> G_2            
     e( 66 - 66) =      0.32345  eV     1   --> G_2            
     e( 67 - 67) =      0.59048  eV     1   --> G_2            
     e( 68 - 68) =      0.59097  eV     1   --> G_2            
     e( 69 - 69) =      0.66550  eV     1   --> G_2            
     e( 70 - 70) =      0.66835  eV     1   --> G_2            
     e( 71 - 71) =      0.79977  eV     1   --> G_2            
     e( 72 - 72) =      0.80305  eV     1   --> G_2            
     e( 73 - 73) =      1.00974  eV     1   --> G_2            
     e( 74 - 74) =      1.01039  eV     1   --> G_2            
     e( 75 - 75) =      1.38866  eV     1   --> G_2            
     e( 76 - 76) =      1.38913  eV     1   --> G_2            
     e( 77 - 77) =      1.53602  eV     1   --> G_2            
     e( 78 - 78) =      1.53639  eV     1   --> G_2            
     e( 79 - 79) =      2.24956  eV     1   --> G_2            
     e( 80 - 80) =      2.24995  eV     1   --> G_2            
     e( 81 - 81) =      2.85422  eV     1   --> G_2            
     e( 82 - 82) =      2.85454  eV     1   --> G_2            
     e( 83 - 83) =      3.16896  eV     1   --> G_2            
     e( 84 - 84) =      3.16976  eV     1   --> G_2            
     e( 85 - 85) =      3.41111  eV     1   --> G_2            
     e( 86 - 86) =      3.41195  eV     1   --> G_2            
     e( 87 - 87) =      4.17004  eV     1   --> G_2            
     e( 88 - 88) =      4.17022  eV     1   --> G_2            
     e( 89 - 89) =      4.27058  eV     1   --> G_2            
     e( 90 - 90) =      4.27076  eV     1   --> G_2            
     e( 91 - 92) =      6.26532  eV     2   -->   2 G_2            
     e( 93 - 94) =      6.46201  eV     2   -->   2 G_2            
     e( 95 - 96) =      7.02881  eV     2   -->   2 G_2            
     e( 97 - 98) =      7.67951  eV     2   -->   2 G_2            
     e( 99 -100) =      7.73164  eV     2   -->   2 G_2            
     e(101 -102) =      7.88053  eV     2   -->   2 G_2            
     e(103 -104) =      8.46801  eV     2   -->   2 G_2            
     e(105 -105) =      8.72236  eV     1   --> G_2            
     e(106 -106) =      8.72278  eV     1   --> G_2            
     e(107 -107) =      8.86051  eV     1   --> G_2            
     e(108 -108) =      8.86116  eV     1   --> G_2            
     e(109 -109) =      9.03815  eV     1   --> G_2            
     e(110 -110) =      9.03839  eV     1   --> G_2            
     e(111 -112) =      9.18345  eV     2   -->   2 G_2            
     e(113 -114) =      9.73013  eV     2   -->   2 G_2            
     e(115 -116) =      9.78570  eV     2   -->   2 G_2            
     e(117 -118) =     10.08915  eV     2   -->   2 G_2            
     e(119 -120) =     10.20811  eV     2   -->   2 G_2            
     e(121 -122) =     10.60251  eV     2   -->   2 G_2            
     e(123 -123) =     11.19629  eV     1   --> G_2            
     e(124 -124) =     11.19646  eV     1   --> G_2            
     e(125 -125) =     11.34855  eV     1   --> G_2            
     e(126 -126) =     11.34913  eV     1   --> G_2            
     e(127 -127) =     11.55798  eV     1   --> G_2            
     e(128 -128) =     11.55859  eV     1   --> G_2            
     e(129 -129) =     11.68449  eV     1   --> G_2            
     e(130 -130) =     11.68510  eV     1   --> G_2            
     e(131 -131) =     11.76760  eV     1   --> G_2            
     e(132 -132) =     11.76818  eV     1   --> G_2            
     e(133 -134) =     12.85320  eV     2   -->   2 G_2            
     e(135 -136) =     12.93841  eV     2   -->   2 G_2            
     e(137 -138) =     14.01729  eV     2   -->   2 G_2            
     e(139 -139) =     14.15168  eV     1   --> G_2            
     e(140 -140) =     14.15232  eV     1   --> G_2            
     e(141 -141) =     14.26994  eV     1   --> G_2            
     e(142 -142) =     14.27125  eV     1   --> G_2            
     e(143 -143) =     14.35982  eV     1   --> G_2            
     e(144 -144) =     14.36053  eV     1   --> G_2            
     e(145 -146) =     14.46276  eV     2   -->   2 G_2            
     e(147 -148) =     15.16814  eV     2   -->   2 G_2            
     e(149 -149) =     15.90120  eV     1   --> G_2            
     e(150 -150) =     15.90134  eV     1   --> G_2            
     e(151 -151) =     16.04765  eV     1   --> G_2            
     e(152 -152) =     16.04809  eV     1   --> G_2            
     e(153 -153) =     16.11206  eV     1   --> G_2            
     e(154 -154) =     16.11228  eV     1   --> G_2            
     e(155 -155) =     16.27490  eV     1   --> G_2            
     e(156 -156) =     16.27555  eV     1   --> G_2            
     e(157 -157) =     16.36601  eV     1   --> G_2            
     e(158 -158) =     16.36642  eV     1   --> G_2            
     e(159 -160) =     16.42114  eV     2   -->   2 G_2            
     e(161 -162) =     16.78597  eV     2   -->   2 G_2            
     e(163 -164) =     17.18132  eV     2   -->   2 G_2            
     e(165 -166) =     17.23868  eV     2   -->   2 G_2            
     e(167 -168) =     17.38803  eV     2   -->   2 G_2            
     e(169 -170) =     17.44454  eV     2   -->   2 G_2            
     e(171 -171) =     17.48998  eV     1   --> G_2            
     e(172 -172) =     17.49009  eV     1   --> G_2            
     e(173 -174) =     17.57199  eV     2   -->   2 G_2            
     e(175 -176) =     17.60823  eV     2   -->   2 G_2            
     e(177 -178) =     17.72509  eV     2   -->   2 G_2            
     e(179 -180) =     17.79323  eV     2   -->   2 G_2            
     e(181 -182) =     17.81599  eV     2   -->   2 G_2            
     e(183 -184) =     17.90443  eV     2   -->   2 G_2            
     e(185 -186) =     18.01712  eV     2   -->   2 G_2            
     e(187 -188) =     18.28172  eV     2   -->   2 G_2            
     e(189 -189) =     19.13072  eV     1   --> G_2            
     e(190 -190) =     19.13082  eV     1   --> G_2            
     e(191 -191) =     19.21809  eV     1   --> G_2            
     e(192 -192) =     19.21835  eV     1   --> G_2            
     e(193 -193) =     19.30287  eV     1   --> G_2            
     e(194 -194) =     19.30331  eV     1   --> G_2            
     e(195 -195) =     19.39531  eV     1   --> G_2            
     e(196 -196) =     19.39564  eV     1   --> G_2            
     e(197 -197) =     19.42744  eV     1   --> G_2            
     e(198 -198) =     19.42782  eV     1   --> G_2            
     e(199 -200) =     19.52144  eV     2   -->   2 G_2            

 **************************************************************************

 **************************************************************************

                    xk=(   0.01429,   0.00825,   0.00000  )

     Band symmetry, C_1 (1)     double point group:

     e(  1 -  2) =    -35.43584  eV     2   -->   2 G_2            
     e(  3 -  4) =    -35.42778  eV     2   -->   2 G_2            
     e(  5 -  6) =    -35.40974  eV     2   -->   2 G_2            
     e(  7 -  8) =    -35.40171  eV     2   -->   2 G_2            
     e(  9 - 10) =    -35.31714  eV     2   -->   2 G_2            
     e( 11 - 12) =    -35.28168  eV     2   -->   2 G_2            
     e( 13 - 14) =    -33.97608  eV     2   -->   2 G_2            
     e( 15 - 16) =    -33.96802  eV     2   -->   2 G_2            
     e( 17 - 18) =    -33.95393  eV     2   -->   2 G_2            
     e( 19 - 20) =    -33.94586  eV     2   -->   2 G_2            
     e( 21 - 22) =    -33.94215  eV     2   -->   2 G_2            
     e( 23 - 24) =    -33.93414  eV     2   -->   2 G_2            
     e( 25 - 26) =    -33.85459  eV     2   -->   2 G_2            
     e( 27 - 28) =    -33.83920  eV     2   -->   2 G_2            
     e( 29 - 30) =    -33.80859  eV     2   -->   2 G_2            
     e( 31 - 32) =    -28.05722  eV     2   -->   2 G_2            
     e( 33 - 34) =    -28.05092  eV     2   -->   2 G_2            
     e( 35 - 36) =    -28.04845  eV     2   -->   2 G_2            
     e( 37 - 38) =    -28.04224  eV     2   -->   2 G_2            
     e( 39 - 40) =    -26.81815  eV     2   -->   2 G_2            
     e( 41 - 42) =    -26.81185  eV     2   -->   2 G_2            
     e( 43 - 44) =    -26.80815  eV     2   -->   2 G_2            
     e( 45 - 46) =    -26.80692  eV     2   -->   2 G_2            
     e( 47 - 48) =    -26.80192  eV     2   -->   2 G_2            
     e( 49 - 50) =    -26.80071  eV     2   -->   2 G_2            
     e( 51 - 52) =    -10.58368  eV     2   -->   2 G_2            
     e( 53 - 54) =    -10.05878  eV     2   -->   2 G_2            
     e( 55 - 56) =     -8.97400  eV     2   -->   2 G_2            
     e( 57 - 58) =     -6.21589  eV     2   -->   2 G_2            
     e( 59 - 60) =     -4.80238  eV     2   -->   2 G_2            
     e( 61 - 62) =     -0.44541  eV     2   -->   2 G_2            
     e( 63 - 63) =      0.05412  eV     1   --> G_2            
     e( 64 - 64) =      0.05575  eV     1   --> G_2            
     e( 65 - 65) =      0.32407  eV     1   --> G_2            
     e( 66 - 66) =      0.32587  eV     1   --> G_2            
     e( 67 - 67) =      0.58247  eV     1   --> G_2            
     e( 68 - 68) =      0.58372  eV     1   --> G_2            
     e( 69 - 69) =      0.63157  eV     1   --> G_2            
     e( 70 - 70) =      0.63540  eV     1   --> G_2            
     e( 71 - 71) =      0.81685  eV     1   --> G_2            
     e( 72 - 72) =      0.82156  eV     1   --> G_2            
     e( 73 - 73) =      1.02025  eV     1   --> G_2            
     e( 74 - 74) =      1.02149  eV     1   --> G_2            
     e( 75 - 75) =      1.37714  eV     1   --> G_2            
     e( 76 - 76) =      1.37805  eV     1   --> G_2            
     e( 77 - 77) =      1.54747  eV     1   --> G_2            
     e( 78 - 78) =      1.54820  eV     1   --> G_2            
     e( 79 - 79) =      2.26626  eV     1   --> G_2            
     e( 80 - 80) =      2.26703  eV     1   --> G_2            
     e( 81 - 81) =      2.85483  eV     1   --> G_2            
     e( 82 - 82) =      2.85545  eV     1   --> G_2            
     e( 83 - 83) =      3.15308  eV     1   --> G_2            
     e( 84 - 84) =      3.15444  eV     1   --> G_2            
     e( 85 - 85) =      3.42774  eV     1   --> G_2            
     e( 86 - 86) =      3.42921  eV     1   --> G_2            
     e( 87 - 87) =      4.17773  eV     1   --> G_2            
     e( 88 - 88) =      4.17809  eV     1   --> G_2            
     e( 89 - 89) =      4.26912  eV     1   --> G_2            
     e( 90 - 90) =      4.26947  eV     1   --> G_2            
     e( 91 - 92) =      6.26778  eV     2   -->   2 G_2            
     e( 93 - 94) =      6.46259  eV     2   -->   2 G_2            
     e( 95 - 96) =      7.02953  eV     2   -->   2 G_2            
     e( 97 - 97) =      7.67816  eV     1   --> G_2            
     e( 98 - 98) =      7.67827  eV     1   --> G_2            
     e( 99 - 99) =      7.72214  eV     1   --> G_2            
     e(100 -100) =      7.72230  eV     1   --> G_2            
     e(101 -102) =      7.88195  eV     2   -->   2 G_2            
     e(103 -104) =      8.47768  eV     2   -->   2 G_2            
     e(105 -105) =      8.71942  eV     1   --> G_2            
     e(106 -106) =      8.72026  eV     1   --> G_2            
     e(107 -107) =      8.85388  eV     1   --> G_2            
     e(108 -108) =      8.85514  eV     1   --> G_2            
     e(109 -109) =      9.03799  eV     1   --> G_2            
     e(110 -110) =      9.03844  eV     1   --> G_2            
     e(111 -112) =      9.18094  eV     2   -->   2 G_2            
     e(113 -113) =      9.74479  eV     1   --> G_2            
     e(114 -114) =      9.74496  eV     1   --> G_2            
     e(115 -115) =      9.79292  eV     1   --> G_2            
     e(116 -116) =      9.79305  eV     1   --> G_2            
     e(117 -118) =     10.08678  eV     2   -->   2 G_2            
     e(119 -119) =     10.21677  eV     1   --> G_2            
     e(120 -120) =     10.21690  eV     1   --> G_2            
     e(121 -122) =     10.61108  eV     2   -->   2 G_2            
     e(123 -123) =     11.19048  eV     1   --> G_2            
     e(124 -124) =     11.19082  eV     1   --> G_2            
     e(125 -125) =     11.33275  eV     1   --> G_2            
     e(126 -126) =     11.33379  eV     1   --> G_2            
     e(127 -127) =     11.51487  eV     1   --> G_2            
     e(128 -128) =     11.51562  eV     1   --> G_2            
     e(129 -129) =     11.72993  eV     1   --> G_2            
     e(130 -130) =     11.73105  eV     1   --> G_2            
     e(131 -131) =     11.79657  eV     1   --> G_2            
     e(132 -132) =     11.79773  eV     1   --> G_2            
     e(133 -134) =     12.85242  eV     2   -->   2 G_2            
     e(135 -136) =     12.94241  eV     2   -->   2 G_2            
     e(137 -137) =     13.97983  eV     1   --> G_2            
     e(138 -138) =     13.97998  eV     1   --> G_2            
     e(139 -139) =     14.11445  eV     1   --> G_2            
     e(140 -140) =     14.11497  eV     1   --> G_2            
     e(141 -141) =     14.29623  eV     1   --> G_2            
     e(142 -142) =     14.29765  eV     1   --> G_2            
     e(143 -143) =     14.38760  eV     1   --> G_2            
     e(144 -144) =     14.38853  eV     1   --> G_2            
     e(145 -145) =     14.47963  eV     1   --> G_2            
     e(146 -146) =     14.47977  eV     1   --> G_2            
     e(147 -148) =     15.17822  eV     2   -->   2 G_2            
     e(149 -149) =     15.85134  eV     1   --> G_2            
     e(150 -150) =     15.85151  eV     1   --> G_2            
     e(151 -151) =     16.01184  eV     1   --> G_2            
     e(152 -152) =     16.01230  eV     1   --> G_2            
     e(153 -153) =     16.09570  eV     1   --> G_2            
     e(154 -154) =     16.09591  eV     1   --> G_2            
     e(155 -155) =     16.32237  eV     1   --> G_2            
     e(156 -156) =     16.32322  eV     1   --> G_2            
     e(157 -157) =     16.39730  eV     1   --> G_2            
     e(158 -158) =     16.39788  eV     1   --> G_2            
     e(159 -160) =     16.42771  eV     2   -->   2 G_2            
     e(161 -161) =     16.80220  eV     1   --> G_2            
     e(162 -162) =     16.80231  eV     1   --> G_2            
     e(163 -164) =     17.07003  eV     2   -->   2 G_2            
     e(165 -166) =     17.21312  eV     2   -->   2 G_2            
     e(167 -168) =     17.33538  eV     2   -->   2 G_2            
     e(169 -170) =     17.43338  eV     2   -->   2 G_2            
     e(171 -172) =     17.48610  eV     2   -->   2 G_2            
     e(173 -174) =     17.57120  eV     2   -->   2 G_2            
     e(175 -176) =     17.62543  eV     2   -->   2 G_2            
     e(177 -178) =     17.70453  eV     2   -->   2 G_2            
     e(179 -180) =     17.79271  eV     2   -->   2 G_2            
     e(181 -182) =     17.91784  eV     2   -->   2 G_2            
     e(183 -184) =     17.97901  eV     2   -->   2 G_2            
     e(185 -186) =     18.05890  eV     2   -->   2 G_2            
     e(187 -188) =     18.31747  eV     2   -->   2 G_2            
     e(189 -190) =     19.02509  eV     2   -->   2 G_2            
     e(191 -191) =     19.13900  eV     1   --> G_2            
     e(192 -192) =     19.13930  eV     1   --> G_2            
     e(193 -193) =     19.23950  eV     1   --> G_2            
     e(194 -194) =     19.23998  eV     1   --> G_2            
     e(195 -196) =     19.41560  eV     2   -->   2 G_2            
     e(197 -197) =     19.47595  eV     1   --> G_2            
     e(198 -198) =     19.47606  eV     1   --> G_2            
     e(199 -199) =     19.49470  eV     1   --> G_2            
     e(200 -200) =     19.49487  eV     1   --> G_2            

 **************************************************************************

 **************************************************************************

                    xk=(   0.02143,   0.01237,   0.00000  )

     Band symmetry, C_1 (1)     double point group:

     e(  1 -  2) =    -35.43584  eV     2   -->   2 G_2            
     e(  3 -  4) =    -35.42778  eV     2   -->   2 G_2            
     e(  5 -  6) =    -35.40974  eV     2   -->   2 G_2            
     e(  7 -  8) =    -35.40171  eV     2   -->   2 G_2            
     e(  9 - 10) =    -35.31714  eV     2   -->   2 G_2            
     e( 11 - 12) =    -35.28168  eV     2   -->   2 G_2            
     e( 13 - 14) =    -33.97608  eV     2   -->   2 G_2            
     e( 15 - 16) =    -33.96802  eV     2   -->   2 G_2            
     e( 17 - 18) =    -33.95393  eV     2   -->   2 G_2            
     e( 19 - 20) =    -33.94586  eV     2   -->   2 G_2            
     e( 21 - 22) =    -33.94215  eV     2   -->   2 G_2            
     e( 23 - 24) =    -33.93414  eV     2   -->   2 G_2            
     e( 25 - 26) =    -33.85459  eV     2   -->   2 G_2            
     e( 27 - 28) =    -33.83920  eV     2   -->   2 G_2            
     e( 29 - 30) =    -33.80858  eV     2   -->   2 G_2            
     e( 31 - 32) =    -28.05721  eV     2   -->   2 G_2            
     e( 33 - 34) =    -28.05092  eV     2   -->   2 G_2            
     e( 35 - 36) =    -28.04845  eV     2   -->   2 G_2            
     e( 37 - 38) =    -28.04224  eV     2   -->   2 G_2            
     e( 39 - 40) =    -26.81815  eV     2   -->   2 G_2            
     e( 41 - 42) =    -26.81184  eV     2   -->   2 G_2            
     e( 43 - 44) =    -26.80815  eV     2   -->   2 G_2            
     e( 45 - 46) =    -26.80692  eV     2   -->   2 G_2            
     e( 47 - 48) =    -26.80193  eV     2   -->   2 G_2            
     e( 49 - 50) =    -26.80071  eV     2   -->   2 G_2            
     e( 51 - 52) =    -10.58148  eV     2   -->   2 G_2            
     e( 53 - 54) =    -10.05676  eV     2   -->   2 G_2            
     e( 55 - 56) =     -8.97274  eV     2   -->   2 G_2            
     e( 57 - 58) =     -6.21610  eV     2   -->   2 G_2            
     e( 59 - 60) =     -4.80608  eV     2   -->   2 G_2            
     e( 61 - 62) =     -0.44862  eV     2   -->   2 G_2            
     e( 63 - 63) =      0.02688  eV     1   --> G_2            
     e( 64 - 64) =      0.02908  eV     1   --> G_2            
     e( 65 - 65) =      0.32521  eV     1   --> G_2            
     e( 66 - 66) =      0.32760  eV     1   --> G_2            
     e( 67 - 67) =      0.56148  eV     1   --> G_2            
     e( 68 - 68) =      0.56447  eV     1   --> G_2            
     e( 69 - 69) =      0.59910  eV     1   --> G_2            
     e( 70 - 70) =      0.60257  eV     1   --> G_2            
     e( 71 - 71) =      0.83179  eV     1   --> G_2            
     e( 72 - 72) =      0.83704  eV     1   --> G_2            
     e( 73 - 73) =      1.03666  eV     1   --> G_2            
     e( 74 - 74) =      1.03838  eV     1   --> G_2            
     e( 75 - 75) =      1.35996  eV     1   --> G_2            
     e( 76 - 76) =      1.36129  eV     1   --> G_2            
     e( 77 - 77) =      1.56663  eV     1   --> G_2            
     e( 78 - 78) =      1.56767  eV     1   --> G_2            
     e( 79 - 79) =      2.29194  eV     1   --> G_2            
     e( 80 - 80) =      2.29304  eV     1   --> G_2            
     e( 81 - 81) =      2.85586  eV     1   --> G_2            
     e( 82 - 82) =      2.85672  eV     1   --> G_2            
     e( 83 - 83) =      3.13278  eV     1   --> G_2            
     e( 84 - 84) =      3.13446  eV     1   --> G_2            
     e( 85 - 85) =      3.45076  eV     1   --> G_2            
     e( 86 - 86) =      3.45264  eV     1   --> G_2            
     e( 87 - 87) =      4.19007  eV     1   --> G_2            
     e( 88 - 88) =      4.19058  eV     1   --> G_2            
     e( 89 - 89) =      4.26724  eV     1   --> G_2            
     e( 90 - 90) =      4.26776  eV     1   --> G_2            
     e( 91 - 92) =      6.27186  eV     2   -->   2 G_2            
     e( 93 - 94) =      6.46357  eV     2   -->   2 G_2            
     e( 95 - 96) =      7.03066  eV     2   -->   2 G_2            
     e( 97 - 97) =      7.67354  eV     1   --> G_2            
     e( 98 - 98) =      7.67373  eV     1   --> G_2            
     e( 99 - 99) =      7.70922  eV     1   --> G_2            
     e(100 -100) =      7.70950  eV     1   --> G_2            
     e(101 -102) =      7.88485  eV     2   -->   2 G_2            
     e(103 -104) =      8.49279  eV     2   -->   2 G_2            
     e(105 -105) =      8.71391  eV     1   --> G_2            
     e(106 -106) =      8.71516  eV     1   --> G_2            
     e(107 -107) =      8.84326  eV     1   --> G_2            
     e(108 -108) =      8.84502  eV     1   --> G_2            
     e(109 -109) =      9.03999  eV     1   --> G_2            
     e(110 -110) =      9.04055  eV     1   --> G_2            
     e(111 -112) =      9.17732  eV     2   -->   2 G_2            
     e(113 -113) =      9.76612  eV     1   --> G_2            
     e(114 -114) =      9.76634  eV     1   --> G_2            
     e(115 -115) =      9.80484  eV     1   --> G_2            
     e(116 -116) =      9.80506  eV     1   --> G_2            
     e(117 -118) =     10.08408  eV     2   -->   2 G_2            
     e(119 -119) =     10.23112  eV     1   --> G_2            
     e(120 -120) =     10.23129  eV     1   --> G_2            
     e(121 -122) =     10.62548  eV     2   -->   2 G_2            
     e(123 -123) =     11.17934  eV     1   --> G_2            
     e(124 -124) =     11.17981  eV     1   --> G_2            
     e(125 -125) =     11.30979  eV     1   --> G_2            
     e(126 -126) =     11.31106  eV     1   --> G_2            
     e(127 -127) =     11.47618  eV     1   --> G_2            
     e(128 -128) =     11.47689  eV     1   --> G_2            
     e(129 -129) =     11.77363  eV     1   --> G_2            
     e(130 -130) =     11.77503  eV     1   --> G_2            
     e(131 -131) =     11.84269  eV     1   --> G_2            
     e(132 -132) =     11.84409  eV     1   --> G_2            
     e(133 -134) =     12.85123  eV     2   -->   2 G_2            
     e(135 -136) =     12.94899  eV     2   -->   2 G_2            
     e(137 -137) =     13.92941  eV     1   --> G_2            
     e(138 -138) =     13.92962  eV     1   --> G_2            
     e(139 -139) =     14.07189  eV     1   --> G_2            
     e(140 -140) =     14.07223  eV     1   --> G_2            
     e(141 -141) =     14.31658  eV     1   --> G_2            
     e(142 -142) =     14.31767  eV     1   --> G_2            
     e(143 -143) =     14.42476  eV     1   --> G_2            
     e(144 -144) =     14.42549  eV     1   --> G_2            
     e(145 -145) =     14.51072  eV     1   --> G_2            
     e(146 -146) =     14.51090  eV     1   --> G_2            
     e(147 -148) =     15.19026  eV     2   -->   2 G_2            
     e(149 -149) =     15.78708  eV     1   --> G_2            
     e(150 -150) =     15.78723  eV     1   --> G_2            
     e(151 -151) =     15.97002  eV     1   --> G_2            
     e(152 -152) =     15.97036  eV     1   --> G_2            
     e(153 -153) =     16.07827  eV     1   --> G_2            
     e(154 -154) =     16.07843  eV     1   --> G_2            
     e(155 -155) =     16.36086  eV     1   --> G_2            
     e(156 -156) =     16.36150  eV     1   --> G_2            
     e(157 -157) =     16.43036  eV     1   --> G_2            
     e(158 -158) =     16.43056  eV     1   --> G_2            
     e(159 -159) =     16.45306  eV     1   --> G_2            
     e(160 -160) =     16.45365  eV     1   --> G_2            
     e(161 -161) =     16.82821  eV     1   --> G_2            
     e(162 -162) =     16.82849  eV     1   --> G_2            
     e(163 -163) =     16.95314  eV     1   --> G_2            
     e(164 -164) =     16.95335  eV     1   --> G_2            
     e(165 -166) =     17.16159  eV     2   -->   2 G_2            
     e(167 -168) =     17.27519  eV     2   -->   2 G_2            
     e(169 -170) =     17.36878  eV     2   -->   2 G_2            
     e(171 -172) =     17.45405  eV     2   -->   2 G_2            
     e(173 -174) =     17.57223  eV     2   -->   2 G_2            
     e(175 -176) =     17.67720  eV     2   -->   2 G_2            
     e(177 -177) =     17.75338  eV     1   --> G_2            
     e(178 -178) =     17.75348  eV     1   --> G_2            
     e(179 -180) =     17.78229  eV     2   -->   2 G_2            
     e(181 -182) =     18.00864  eV     2   -->   2 G_2            
     e(183 -184) =     18.08058  eV     2   -->   2 G_2            
     e(185 -186) =     18.12255  eV     2   -->   2 G_2            
     e(187 -188) =     18.37210  eV     2   -->   2 G_2            
     e(189 -190) =     18.91087  eV     2   -->   2 G_2            
     e(191 -191) =     19.03983  eV     1   --> G_2            
     e(192 -192) =     19.04005  eV     1   --> G_2            
     e(193 -193) =     19.17158  eV     1   --> G_2            
     e(194 -194) =     19.17192  eV     1   --> G_2            
     e(195 -196) =     19.38417  eV     2   -->   2 G_2            
     e(197 -198) =     19.45466  eV     2   -->   2 G_2            
     e(199 -200) =     19.49981  eV     2   -->   2 G_2            

 **************************************************************************

 **************************************************************************

                    xk=(   0.02857,   0.01650,   0.00000  )

     Band symmetry, C_1 (1)     double point group:

     e(  1 -  2) =    -35.43584  eV     2   -->   2 G_2            
     e(  3 -  4) =    -35.42777  eV     2   -->   2 G_2            
     e(  5 -  6) =    -35.40974  eV     2   -->   2 G_2            
     e(  7 -  8) =    -35.40171  eV     2   -->   2 G_2            
     e(  9 - 10) =    -35.31713  eV     2   -->   2 G_2            
     e( 11 - 12) =    -35.28168  eV     2   -->   2 G_2            
     e( 13 - 14) =    -33.97608  eV     2   -->   2 G_2            
     e( 15 - 16) =    -33.96802  eV     2   -->   2 G_2            
     e( 17 - 18) =    -33.95393  eV     2   -->   2 G_2            
     e( 19 - 20) =    -33.94586  eV     2   -->   2 G_2            
     e( 21 - 22) =    -33.94215  eV     2   -->   2 G_2            
     e( 23 - 24) =    -33.93414  eV     2   -->   2 G_2            
     e( 25 - 26) =    -33.85459  eV     2   -->   2 G_2            
     e( 27 - 28) =    -33.83920  eV     2   -->   2 G_2            
     e( 29 - 30) =    -33.80858  eV     2   -->   2 G_2            
     e( 31 - 32) =    -28.05721  eV     2   -->   2 G_2            
     e( 33 - 34) =    -28.05092  eV     2   -->   2 G_2            
     e( 35 - 36) =    -28.04845  eV     2   -->   2 G_2            
     e( 37 - 38) =    -28.04224  eV     2   -->   2 G_2            
     e( 39 - 40) =    -26.81814  eV     2   -->   2 G_2            
     e( 41 - 42) =    -26.81184  eV     2   -->   2 G_2            
     e( 43 - 44) =    -26.80816  eV     2   -->   2 G_2            
     e( 45 - 46) =    -26.80692  eV     2   -->   2 G_2            
     e( 47 - 48) =    -26.80193  eV     2   -->   2 G_2            
     e( 49 - 50) =    -26.80071  eV     2   -->   2 G_2            
     e( 51 - 52) =    -10.57840  eV     2   -->   2 G_2            
     e( 53 - 54) =    -10.05393  eV     2   -->   2 G_2            
     e( 55 - 56) =     -8.97096  eV     2   -->   2 G_2            
     e( 57 - 58) =     -6.21641  eV     2   -->   2 G_2            
     e( 59 - 60) =     -4.81126  eV     2   -->   2 G_2            
     e( 61 - 62) =     -0.45320  eV     2   -->   2 G_2            
     e( 63 - 63) =     -0.00810  eV     1   --> G_2            
     e( 64 - 64) =     -0.00548  eV     1   --> G_2            
     e( 65 - 65) =      0.32413  eV     1   --> G_2            
     e( 66 - 66) =      0.32688  eV     1   --> G_2            
     e( 67 - 67) =      0.52029  eV     1   --> G_2            
     e( 68 - 68) =      0.52443  eV     1   --> G_2            
     e( 69 - 69) =      0.58101  eV     1   --> G_2            
     e( 70 - 70) =      0.58365  eV     1   --> G_2            
     e( 71 - 71) =      0.84095  eV     1   --> G_2            
     e( 72 - 72) =      0.84637  eV     1   --> G_2            
     e( 73 - 73) =      1.05634  eV     1   --> G_2            
     e( 74 - 74) =      1.05848  eV     1   --> G_2            
     e( 75 - 75) =      1.34050  eV     1   --> G_2            
     e( 76 - 76) =      1.34223  eV     1   --> G_2            
     e( 77 - 77) =      1.59255  eV     1   --> G_2            
     e( 78 - 78) =      1.59383  eV     1   --> G_2            
     e( 79 - 79) =      2.32373  eV     1   --> G_2            
     e( 80 - 80) =      2.32514  eV     1   --> G_2            
     e( 81 - 81) =      2.85728  eV     1   --> G_2            
     e( 82 - 82) =      2.85827  eV     1   --> G_2            
     e( 83 - 83) =      3.11282  eV     1   --> G_2            
     e( 84 - 84) =      3.11462  eV     1   --> G_2            
     e( 85 - 85) =      3.47660  eV     1   --> G_2            
     e( 86 - 86) =      3.47871  eV     1   --> G_2            
     e( 87 - 87) =      4.20578  eV     1   --> G_2            
     e( 88 - 88) =      4.20637  eV     1   --> G_2            
     e( 89 - 89) =      4.26617  eV     1   --> G_2            
     e( 90 - 90) =      4.26684  eV     1   --> G_2            
     e( 91 - 92) =      6.27753  eV     2   -->   2 G_2            
     e( 93 - 94) =      6.46493  eV     2   -->   2 G_2            
     e( 95 - 96) =      7.03209  eV     2   -->   2 G_2            
     e( 97 - 97) =      7.66001  eV     1   --> G_2            
     e( 98 - 98) =      7.66021  eV     1   --> G_2            
     e( 99 - 99) =      7.69949  eV     1   --> G_2            
     e(100 -100) =      7.69980  eV     1   --> G_2            
     e(101 -102) =      7.88963  eV     2   -->   2 G_2            
     e(103 -104) =      8.51213  eV     2   -->   2 G_2            
     e(105 -105) =      8.70453  eV     1   --> G_2            
     e(106 -106) =      8.70610  eV     1   --> G_2            
     e(107 -107) =      8.83022  eV     1   --> G_2            
     e(108 -108) =      8.83231  eV     1   --> G_2            
     e(109 -109) =      9.04578  eV     1   --> G_2            
     e(110 -110) =      9.04636  eV     1   --> G_2            
     e(111 -112) =      9.17318  eV     2   -->   2 G_2            
     e(113 -113) =      9.79003  eV     1   --> G_2            
     e(114 -114) =      9.79028  eV     1   --> G_2            
     e(115 -115) =      9.82118  eV     1   --> G_2            
     e(116 -116) =      9.82153  eV     1   --> G_2            
     e(117 -118) =     10.08310  eV     2   -->   2 G_2            
     e(119 -119) =     10.25101  eV     1   --> G_2            
     e(120 -120) =     10.25120  eV     1   --> G_2            
     e(121 -122) =     10.64582  eV     2   -->   2 G_2            
     e(123 -123) =     11.16111  eV     1   --> G_2            
     e(124 -124) =     11.16164  eV     1   --> G_2            
     e(125 -125) =     11.28310  eV     1   --> G_2            
     e(126 -126) =     11.28438  eV     1   --> G_2            
     e(127 -127) =     11.44596  eV     1   --> G_2            
     e(128 -128) =     11.44650  eV     1   --> G_2            
     e(129 -129) =     11.81691  eV     1   --> G_2            
     e(130 -130) =     11.81832  eV     1   --> G_2            
     e(131 -131) =     11.89855  eV     1   --> G_2            
     e(132 -132) =     11.89991  eV     1   --> G_2            
     e(133 -134) =     12.84977  eV     2   -->   2 G_2            
     e(135 -136) =     12.95804  eV     2   -->   2 G_2            
     e(137 -137) =     13.87276  eV     1   --> G_2            
     e(138 -138) =     13.87303  eV     1   --> G_2            
     e(139 -139) =     14.02769  eV     1   --> G_2            
     e(140 -140) =     14.02794  eV     1   --> G_2            
     e(141 -141) =     14.32808  eV     1   --> G_2            
     e(142 -142) =     14.32882  eV     1   --> G_2            
     e(143 -143) =     14.46685  eV     1   --> G_2            
     e(144 -144) =     14.46730  eV     1   --> G_2            
     e(145 -145) =     14.55398  eV     1   --> G_2            
     e(146 -146) =     14.55418  eV     1   --> G_2            
     e(147 -147) =     15.19668  eV     1   --> G_2            
     e(148 -148) =     15.19679  eV     1   --> G_2            
     e(149 -149) =     15.72525  eV     1   --> G_2            
     e(150 -150) =     15.72539  eV     1   --> G_2            
     e(151 -151) =     15.92642  eV     1   --> G_2            
     e(152 -152) =     15.92665  eV     1   --> G_2            
     e(153 -153) =     16.05886  eV     1   --> G_2            
     e(154 -154) =     16.05898  eV     1   --> G_2            
     e(155 -155) =     16.37776  eV     1   --> G_2            
     e(156 -156) =     16.37807  eV     1   --> G_2            
     e(157 -157) =     16.45750  eV     1   --> G_2            
     e(158 -158) =     16.45788  eV     1   --> G_2            
     e(159 -159) =     16.50049  eV     1   --> G_2            
     e(160 -160) =     16.50104  eV     1   --> G_2            
     e(161 -161) =     16.81745  eV     1   --> G_2            
     e(162 -162) =     16.81791  eV     1   --> G_2            
     e(163 -163) =     16.88198  eV     1   --> G_2            
     e(164 -164) =     16.88235  eV     1   --> G_2            
     e(165 -166) =     17.07985  eV     2   -->   2 G_2            
     e(167 -168) =     17.21432  eV     2   -->   2 G_2            
     e(169 -170) =     17.32943  eV     2   -->   2 G_2            
     e(171 -172) =     17.41871  eV     2   -->   2 G_2            
     e(173 -174) =     17.51674  eV     2   -->   2 G_2            
     e(175 -175) =     17.75646  eV     1   --> G_2            
     e(176 -176) =     17.75672  eV     1   --> G_2            
     e(177 -177) =     17.77550  eV     1   --> G_2            
     e(178 -178) =     17.77574  eV     1   --> G_2            
     e(179 -179) =     17.84020  eV     1   --> G_2            
     e(180 -180) =     17.84033  eV     1   --> G_2            
     e(181 -182) =     18.08825  eV     2   -->   2 G_2            
     e(183 -183) =     18.19069  eV     1   --> G_2            
     e(184 -184) =     18.19084  eV     1   --> G_2            
     e(185 -185) =     18.20097  eV     1   --> G_2            
     e(186 -186) =     18.20110  eV     1   --> G_2            
     e(187 -188) =     18.44150  eV     2   -->   2 G_2            
     e(189 -190) =     18.80043  eV     2   -->   2 G_2            
     e(191 -191) =     18.92861  eV     1   --> G_2            
     e(192 -192) =     18.92875  eV     1   --> G_2            
     e(193 -193) =     19.10474  eV     1   --> G_2            
     e(194 -194) =     19.10497  eV     1   --> G_2            
     e(195 -196) =     19.33747  eV     2   -->   2 G_2            
     e(197 -198) =     19.41468  eV     2   -->   2 G_2            
     e(199 -200) =     19.46784  eV     2   -->   2 G_2            

 **************************************************************************

 **************************************************************************

                    xk=(   0.03571,   0.02062,   0.00000  )

     Band symmetry, C_1 (1)     double point group:

     e(  1 -  2) =    -35.43584  eV     2   -->   2 G_2            
     e(  3 -  4) =    -35.42777  eV     2   -->   2 G_2            
     e(  5 -  6) =    -35.40974  eV     2   -->   2 G_2            
     e(  7 -  8) =    -35.40171  eV     2   -->   2 G_2            
     e(  9 - 10) =    -35.31713  eV     2   -->   2 G_2            
     e( 11 - 12) =    -35.28168  eV     2   -->   2 G_2            
     e( 13 - 14) =    -33.97607  eV     2   -->   2 G_2            
     e( 15 - 16) =    -33.96801  eV     2   -->   2 G_2            
     e( 17 - 18) =    -33.95393  eV     2   -->   2 G_2            
     e( 19 - 20) =    -33.94586  eV     2   -->   2 G_2            
     e( 21 - 22) =    -33.94215  eV     2   -->   2 G_2            
     e( 23 - 24) =    -33.93414  eV     2   -->   2 G_2            
     e( 25 - 26) =    -33.85459  eV     2   -->   2 G_2            
     e( 27 - 28) =    -33.83920  eV     2   -->   2 G_2            
     e( 29 - 30) =    -33.80858  eV     2   -->   2 G_2            
     e( 31 - 32) =    -28.05721  eV     2   -->   2 G_2            
     e( 33 - 34) =    -28.05092  eV     2   -->   2 G_2            
     e( 35 - 36) =    -28.04846  eV     2   -->   2 G_2            
     e( 37 - 38) =    -28.04225  eV     2   -->   2 G_2            
     e( 39 - 40) =    -26.81813  eV     2   -->   2 G_2            
     e( 41 - 42) =    -26.81183  eV     2   -->   2 G_2            
     e( 43 - 44) =    -26.80817  eV     2   -->   2 G_2            
     e( 45 - 46) =    -26.80692  eV     2   -->   2 G_2            
     e( 47 - 48) =    -26.80194  eV     2   -->   2 G_2            
     e( 49 - 50) =    -26.80071  eV     2   -->   2 G_2            
     e( 51 - 52) =    -10.57445  eV     2   -->   2 G_2            
     e( 53 - 54) =    -10.05029  eV     2   -->   2 G_2            
     e( 55 - 56) =     -8.96869  eV     2   -->   2 G_2            
     e( 57 - 58) =     -6.21681  eV     2   -->   2 G_2            
     e( 59 - 60) =     -4.81792  eV     2   -->   2 G_2            
     e( 61 - 62) =     -0.45926  eV     2   -->   2 G_2            
     e( 63 - 63) =     -0.04930  eV     1   --> G_2            
     e( 64 - 64) =     -0.04636  eV     1   --> G_2            
     e( 65 - 65) =      0.31942  eV     1   --> G_2            
     e( 66 - 66) =      0.32231  eV     1   --> G_2            
     e( 67 - 67) =      0.47077  eV     1   --> G_2            
     e( 68 - 68) =      0.47526  eV     1   --> G_2            
     e( 69 - 69) =      0.56777  eV     1   --> G_2            
     e( 70 - 70) =      0.57011  eV     1   --> G_2            
     e( 71 - 71) =      0.84375  eV     1   --> G_2            
     e( 72 - 72) =      0.84913  eV     1   --> G_2            
     e( 73 - 73) =      1.07553  eV     1   --> G_2            
     e( 74 - 74) =      1.07804  eV     1   --> G_2            
     e( 75 - 75) =      1.32353  eV     1   --> G_2            
     e( 76 - 76) =      1.32563  eV     1   --> G_2            
     e( 77 - 77) =      1.62359  eV     1   --> G_2            
     e( 78 - 78) =      1.62502  eV     1   --> G_2            
     e( 79 - 79) =      2.35840  eV     1   --> G_2            
     e( 80 - 80) =      2.36007  eV     1   --> G_2            
     e( 81 - 81) =      2.85936  eV     1   --> G_2            
     e( 82 - 82) =      2.86031  eV     1   --> G_2            
     e( 83 - 83) =      3.09686  eV     1   --> G_2            
     e( 84 - 84) =      3.09859  eV     1   --> G_2            
     e( 85 - 85) =      3.50301  eV     1   --> G_2            
     e( 86 - 86) =      3.50526  eV     1   --> G_2            
     e( 87 - 87) =      4.22119  eV     1   --> G_2            
     e( 88 - 88) =      4.22180  eV     1   --> G_2            
     e( 89 - 89) =      4.26946  eV     1   --> G_2            
     e( 90 - 90) =      4.27022  eV     1   --> G_2            
     e( 91 - 91) =      6.28475  eV     1   --> G_2            
     e( 92 - 92) =      6.28486  eV     1   --> G_2            
     e( 93 - 93) =      6.46666  eV     1   --> G_2            
     e( 94 - 94) =      6.46677  eV     1   --> G_2            
     e( 95 - 96) =      7.03367  eV     2   -->   2 G_2            
     e( 97 - 97) =      7.63565  eV     1   --> G_2            
     e( 98 - 98) =      7.63577  eV     1   --> G_2            
     e( 99 - 99) =      7.69608  eV     1   --> G_2            
     e(100 -100) =      7.69634  eV     1   --> G_2            
     e(101 -102) =      7.89646  eV     2   -->   2 G_2            
     e(103 -104) =      8.53435  eV     2   -->   2 G_2            
     e(105 -105) =      8.68962  eV     1   --> G_2            
     e(106 -106) =      8.69134  eV     1   --> G_2            
     e(107 -107) =      8.81782  eV     1   --> G_2            
     e(108 -108) =      8.81999  eV     1   --> G_2            
     e(109 -109) =      9.05590  eV     1   --> G_2            
     e(110 -110) =      9.05644  eV     1   --> G_2            
     e(111 -112) =      9.16910  eV     2   -->   2 G_2            
     e(113 -113) =      9.81225  eV     1   --> G_2            
     e(114 -114) =      9.81252  eV     1   --> G_2            
     e(115 -115) =      9.84086  eV     1   --> G_2            
     e(116 -116) =      9.84130  eV     1   --> G_2            
     e(117 -117) =     10.08697  eV     1   --> G_2            
     e(118 -118) =     10.08710  eV     1   --> G_2            
     e(119 -119) =     10.27623  eV     1   --> G_2            
     e(120 -120) =     10.27643  eV     1   --> G_2            
     e(121 -122) =     10.67220  eV     2   -->   2 G_2            
     e(123 -123) =     11.13477  eV     1   --> G_2            
     e(124 -124) =     11.13530  eV     1   --> G_2            
     e(125 -125) =     11.25586  eV     1   --> G_2            
     e(126 -126) =     11.25698  eV     1   --> G_2            
     e(127 -127) =     11.42519  eV     1   --> G_2            
     e(128 -128) =     11.42551  eV     1   --> G_2            
     e(129 -129) =     11.86206  eV     1   --> G_2            
     e(130 -130) =     11.86342  eV     1   --> G_2            
     e(131 -131) =     11.95799  eV     1   --> G_2            
     e(132 -132) =     11.95925  eV     1   --> G_2            
     e(133 -134) =     12.84815  eV     2   -->   2 G_2            
     e(135 -136) =     12.96944  eV     2   -->   2 G_2            
     e(137 -137) =     13.81369  eV     1   --> G_2            
     e(138 -138) =     13.81399  eV     1   --> G_2            
     e(139 -139) =     13.98334  eV     1   --> G_2            
     e(140 -140) =     13.98354  eV     1   --> G_2            
     e(141 -141) =     14.33439  eV     1   --> G_2            
     e(142 -142) =     14.33490  eV     1   --> G_2            
     e(143 -143) =     14.51100  eV     1   --> G_2            
     e(144 -144) =     14.51128  eV     1   --> G_2            
     e(145 -145) =     14.60445  eV     1   --> G_2            
     e(146 -146) =     14.60468  eV     1   --> G_2            
     e(147 -147) =     15.18742  eV     1   --> G_2            
     e(148 -148) =     15.18755  eV     1   --> G_2            
     e(149 -149) =     15.67968  eV     1   --> G_2            
     e(150 -150) =     15.67980  eV     1   --> G_2            
     e(151 -151) =     15.88314  eV     1   --> G_2            
     e(152 -152) =     15.88330  eV     1   --> G_2            
     e(153 -153) =     16.03646  eV     1   --> G_2            
     e(154 -154) =     16.03656  eV     1   --> G_2            
     e(155 -155) =     16.38008  eV     1   --> G_2            
     e(156 -156) =     16.38023  eV     1   --> G_2            
     e(157 -157) =     16.47836  eV     1   --> G_2            
     e(158 -158) =     16.47864  eV     1   --> G_2            
     e(159 -159) =     16.55392  eV     1   --> G_2            
     e(160 -160) =     16.55427  eV     1   --> G_2            
     e(161 -161) =     16.71629  eV     1   --> G_2            
     e(162 -162) =     16.71646  eV     1   --> G_2            
     e(163 -164) =     16.88039  eV     2   -->   2 G_2            
     e(165 -166) =     17.02009  eV     2   -->   2 G_2            
     e(167 -168) =     17.15656  eV     2   -->   2 G_2            
     e(169 -170) =     17.29550  eV     2   -->   2 G_2            
     e(171 -172) =     17.38567  eV     2   -->   2 G_2            
     e(173 -174) =     17.46057  eV     2   -->   2 G_2            
     e(175 -176) =     17.76842  eV     2   -->   2 G_2            
     e(177 -178) =     17.84789  eV     2   -->   2 G_2            
     e(179 -179) =     17.92998  eV     1   --> G_2            
     e(180 -180) =     17.93009  eV     1   --> G_2            
     e(181 -182) =     18.16534  eV     2   -->   2 G_2            
     e(183 -184) =     18.27760  eV     2   -->   2 G_2            
     e(185 -186) =     18.30187  eV     2   -->   2 G_2            
     e(187 -188) =     18.51619  eV     2   -->   2 G_2            
     e(189 -190) =     18.71046  eV     2   -->   2 G_2            
     e(191 -191) =     18.81246  eV     1   --> G_2            
     e(192 -192) =     18.81257  eV     1   --> G_2            
     e(193 -193) =     19.03912  eV     1   --> G_2            
     e(194 -194) =     19.03928  eV     1   --> G_2            
     e(195 -196) =     19.28573  eV     2   -->   2 G_2            
     e(197 -198) =     19.37056  eV     2   -->   2 G_2            
     e(199 -200) =     19.42059  eV     2   -->   2 G_2            

 **************************************************************************

 **************************************************************************

                    xk=(   0.04286,   0.02474,   0.00000  )

     Band symmetry, C_1 (1)     double point group:

     e(  1 -  2) =    -35.43583  eV     2   -->   2 G_2            
     e(  3 -  4) =    -35.42777  eV     2   -->   2 G_2            
     e(  5 -  6) =    -35.40974  eV     2   -->   2 G_2            
     e(  7 -  8) =    -35.40171  eV     2   -->   2 G_2            
     e(  9 - 10) =    -35.31713  eV     2   -->   2 G_2            
     e( 11 - 12) =    -35.28168  eV     2   -->   2 G_2            
     e( 13 - 14) =    -33.97607  eV     2   -->   2 G_2            
     e( 15 - 16) =    -33.96801  eV     2   -->   2 G_2            
     e( 17 - 18) =    -33.95393  eV     2   -->   2 G_2            
     e( 19 - 20) =    -33.94586  eV     2   -->   2 G_2            
     e( 21 - 22) =    -33.94215  eV     2   -->   2 G_2            
     e( 23 - 24) =    -33.93414  eV     2   -->   2 G_2            
     e( 25 - 26) =    -33.85459  eV     2   -->   2 G_2            
     e( 27 - 28) =    -33.83920  eV     2   -->   2 G_2            
     e( 29 - 30) =    -33.80857  eV     2   -->   2 G_2            
     e( 31 - 32) =    -28.05720  eV     2   -->   2 G_2            
     e( 33 - 34) =    -28.05091  eV     2   -->   2 G_2            
     e( 35 - 36) =    -28.04846  eV     2   -->   2 G_2            
     e( 37 - 38) =    -28.04225  eV     2   -->   2 G_2            
     e( 39 - 40) =    -26.81812  eV     2   -->   2 G_2            
     e( 41 - 42) =    -26.81182  eV     2   -->   2 G_2            
     e( 43 - 44) =    -26.80818  eV     2   -->   2 G_2            
     e( 45 - 46) =    -26.80692  eV     2   -->   2 G_2            
     e( 47 - 48) =    -26.80195  eV     2   -->   2 G_2            
     e( 49 - 50) =    -26.80071  eV     2   -->   2 G_2            
     e( 51 - 52) =    -10.56961  eV     2   -->   2 G_2            
     e( 53 - 54) =    -10.04584  eV     2   -->   2 G_2            
     e( 55 - 56) =     -8.96591  eV     2   -->   2 G_2            
     e( 57 - 58) =     -6.21732  eV     2   -->   2 G_2            
     e( 59 - 60) =     -4.82606  eV     2   -->   2 G_2            
     e( 61 - 61) =     -0.46693  eV     1   --> G_2            
     e( 62 - 62) =     -0.46680  eV     1   --> G_2            
     e( 63 - 63) =     -0.09550  eV     1   --> G_2            
     e( 64 - 64) =     -0.09229  eV     1   --> G_2            
     e( 65 - 65) =      0.31008  eV     1   --> G_2            
     e( 66 - 66) =      0.31290  eV     1   --> G_2            
     e( 67 - 67) =      0.41943  eV     1   --> G_2            
     e( 68 - 68) =      0.42408  eV     1   --> G_2            
     e( 69 - 69) =      0.55462  eV     1   --> G_2            
     e( 70 - 70) =      0.55681  eV     1   --> G_2            
     e( 71 - 71) =      0.84005  eV     1   --> G_2            
     e( 72 - 72) =      0.84526  eV     1   --> G_2            
     e( 73 - 73) =      1.09031  eV     1   --> G_2            
     e( 74 - 74) =      1.09310  eV     1   --> G_2            
     e( 75 - 75) =      1.31441  eV     1   --> G_2            
     e( 76 - 76) =      1.31675  eV     1   --> G_2            
     e( 77 - 77) =      1.65773  eV     1   --> G_2            
     e( 78 - 78) =      1.65921  eV     1   --> G_2            
     e( 79 - 79) =      2.39267  eV     1   --> G_2            
     e( 80 - 80) =      2.39456  eV     1   --> G_2            
     e( 81 - 81) =      2.86303  eV     1   --> G_2            
     e( 82 - 82) =      2.86373  eV     1   --> G_2            
     e( 83 - 83) =      3.08750  eV     1   --> G_2            
     e( 84 - 84) =      3.08897  eV     1   --> G_2            
     e( 85 - 85) =      3.52877  eV     1   --> G_2            
     e( 86 - 86) =      3.53110  eV     1   --> G_2            
     e( 87 - 87) =      4.22940  eV     1   --> G_2            
     e( 88 - 88) =      4.23015  eV     1   --> G_2            
     e( 89 - 89) =      4.28373  eV     1   --> G_2            
     e( 90 - 90) =      4.28457  eV     1   --> G_2            
     e( 91 - 91) =      6.29348  eV     1   --> G_2            
     e( 92 - 92) =      6.29362  eV     1   --> G_2            
     e( 93 - 93) =      6.46874  eV     1   --> G_2            
     e( 94 - 94) =      6.46887  eV     1   --> G_2            
     e( 95 - 96) =      7.03516  eV     2   -->   2 G_2            
     e( 97 - 98) =      7.60495  eV     2   -->   2 G_2            
     e( 99 - 99) =      7.69575  eV     1   --> G_2            
     e(100 -100) =      7.69596  eV     1   --> G_2            
     e(101 -102) =      7.90537  eV     2   -->   2 G_2            
     e(103 -103) =      8.55809  eV     1   --> G_2            
     e(104 -104) =      8.55819  eV     1   --> G_2            
     e(105 -105) =      8.66831  eV     1   --> G_2            
     e(106 -106) =      8.66998  eV     1   --> G_2            
     e(107 -107) =      8.80894  eV     1   --> G_2            
     e(108 -108) =      8.81095  eV     1   --> G_2            
     e(109 -109) =      9.06995  eV     1   --> G_2            
     e(110 -110) =      9.07043  eV     1   --> G_2            
     e(111 -112) =      9.16569  eV     2   -->   2 G_2            
     e(113 -113) =      9.82917  eV     1   --> G_2            
     e(114 -114) =      9.82938  eV     1   --> G_2            
     e(115 -115) =      9.86196  eV     1   --> G_2            
     e(116 -116) =      9.86235  eV     1   --> G_2            
     e(117 -117) =     10.09952  eV     1   --> G_2            
     e(118 -118) =     10.09970  eV     1   --> G_2            
     e(119 -119) =     10.30636  eV     1   --> G_2            
     e(120 -120) =     10.30656  eV     1   --> G_2            
     e(121 -121) =     10.70465  eV     1   --> G_2            
     e(122 -122) =     10.70478  eV     1   --> G_2            
     e(123 -123) =     11.10130  eV     1   --> G_2            
     e(124 -124) =     11.10181  eV     1   --> G_2            
     e(125 -125) =     11.23002  eV     1   --> G_2            
     e(126 -126) =     11.23094  eV     1   --> G_2            
     e(127 -127) =     11.41298  eV     1   --> G_2            
     e(128 -128) =     11.41315  eV     1   --> G_2            
     e(129 -129) =     11.90948  eV     1   --> G_2            
     e(130 -130) =     11.91077  eV     1   --> G_2            
     e(131 -131) =     12.01794  eV     1   --> G_2            
     e(132 -132) =     12.01911  eV     1   --> G_2            
     e(133 -134) =     12.84653  eV     2   -->   2 G_2            
     e(135 -136) =     12.98302  eV     2   -->   2 G_2            
     e(137 -137) =     13.75460  eV     1   --> G_2            
     e(138 -138) =     13.75491  eV     1   --> G_2            
     e(139 -139) =     13.93963  eV     1   --> G_2            
     e(140 -140) =     13.93982  eV     1   --> G_2            
     e(141 -141) =     14.33966  eV     1   --> G_2            
     e(142 -142) =     14.34004  eV     1   --> G_2            
     e(143 -143) =     14.55506  eV     1   --> G_2            
     e(144 -144) =     14.55530  eV     1   --> G_2            
     e(145 -145) =     14.65754  eV     1   --> G_2            
     e(146 -146) =     14.65781  eV     1   --> G_2            
     e(147 -147) =     15.15499  eV     1   --> G_2            
     e(148 -148) =     15.15514  eV     1   --> G_2            
     e(149 -150) =     15.65838  eV     2   -->   2 G_2            
     e(151 -151) =     15.84186  eV     1   --> G_2            
     e(152 -152) =     15.84197  eV     1   --> G_2            
     e(153 -153) =     16.01093  eV     1   --> G_2            
     e(154 -154) =     16.01104  eV     1   --> G_2            
     e(155 -156) =     16.37060  eV     2   -->   2 G_2            
     e(157 -157) =     16.48316  eV     1   --> G_2            
     e(158 -158) =     16.48336  eV     1   --> G_2            
     e(159 -159) =     16.60341  eV     1   --> G_2            
     e(160 -160) =     16.60402  eV     1   --> G_2            
     e(161 -161) =     16.62871  eV     1   --> G_2            
     e(162 -162) =     16.62921  eV     1   --> G_2            
     e(163 -164) =     16.80770  eV     2   -->   2 G_2            
     e(165 -165) =     17.03602  eV     1   --> G_2            
     e(166 -166) =     17.03621  eV     1   --> G_2            
     e(167 -167) =     17.10923  eV     1   --> G_2            
     e(168 -168) =     17.10935  eV     1   --> G_2            
     e(169 -170) =     17.25953  eV     2   -->   2 G_2            
     e(171 -172) =     17.35128  eV     2   -->   2 G_2            
     e(173 -174) =     17.40922  eV     2   -->   2 G_2            
     e(175 -176) =     17.78904  eV     2   -->   2 G_2            
     e(177 -178) =     17.92420  eV     2   -->   2 G_2            
     e(179 -179) =     18.01988  eV     1   --> G_2            
     e(180 -180) =     18.01998  eV     1   --> G_2            
     e(181 -182) =     18.24025  eV     2   -->   2 G_2            
     e(183 -184) =     18.33253  eV     2   -->   2 G_2            
     e(185 -186) =     18.40703  eV     2   -->   2 G_2            
     e(187 -188) =     18.55399  eV     2   -->   2 G_2            
     e(189 -189) =     18.68881  eV     1   --> G_2            
     e(190 -190) =     18.68921  eV     1   --> G_2            
     e(191 -191) =     18.71009  eV     1   --> G_2            
     e(192 -192) =     18.71043  eV     1   --> G_2            
     e(193 -194) =     18.97481  eV     2   -->   2 G_2            
     e(195 -196) =     19.23255  eV     2   -->   2 G_2            
     e(197 -198) =     19.32681  eV     2   -->   2 G_2            
     e(199 -200) =     19.36943  eV     2   -->   2 G_2            

 **************************************************************************

 **************************************************************************

                    xk=(   0.05000,   0.02887,   0.00000  )

     Band symmetry, C_1 (1)     double point group:

     e(  1 -  2) =    -35.43583  eV     2   -->   2 G_2            
     e(  3 -  4) =    -35.42777  eV     2   -->   2 G_2            
     e(  5 -  6) =    -35.40974  eV     2   -->   2 G_2            
     e(  7 -  8) =    -35.40171  eV     2   -->   2 G_2            
     e(  9 - 10) =    -35.31713  eV     2   -->   2 G_2            
     e( 11 - 12) =    -35.28167  eV     2   -->   2 G_2            
     e( 13 - 14) =    -33.97606  eV     2   -->   2 G_2            
     e( 15 - 16) =    -33.96800  eV     2   -->   2 G_2            
     e( 17 - 18) =    -33.95393  eV     2   -->   2 G_2            
     e( 19 - 20) =    -33.94586  eV     2   -->   2 G_2            
     e( 21 - 22) =    -33.94215  eV     2   -->   2 G_2            
     e( 23 - 24) =    -33.93414  eV     2   -->   2 G_2            
     e( 25 - 26) =    -33.85459  eV     2   -->   2 G_2            
     e( 27 - 28) =    -33.83921  eV     2   -->   2 G_2            
     e( 29 - 30) =    -33.80857  eV     2   -->   2 G_2            
     e( 31 - 32) =    -28.05720  eV     2   -->   2 G_2            
     e( 33 - 34) =    -28.05091  eV     2   -->   2 G_2            
     e( 35 - 36) =    -28.04847  eV     2   -->   2 G_2            
     e( 37 - 38) =    -28.04226  eV     2   -->   2 G_2            
     e( 39 - 40) =    -26.81811  eV     2   -->   2 G_2            
     e( 41 - 42) =    -26.81181  eV     2   -->   2 G_2            
     e( 43 - 44) =    -26.80819  eV     2   -->   2 G_2            
     e( 45 - 46) =    -26.80692  eV     2   -->   2 G_2            
     e( 47 - 48) =    -26.80196  eV     2   -->   2 G_2            
     e( 49 - 50) =    -26.80071  eV     2   -->   2 G_2            
     e( 51 - 52) =    -10.56390  eV     2   -->   2 G_2            
     e( 53 - 54) =    -10.04059  eV     2   -->   2 G_2            
     e( 55 - 56) =     -8.96265  eV     2   -->   2 G_2            
     e( 57 - 58) =     -6.21795  eV     2   -->   2 G_2            
     e( 59 - 60) =     -4.83568  eV     2   -->   2 G_2            
     e( 61 - 61) =     -0.47646  eV     1   --> G_2            
     e( 62 - 62) =     -0.47624  eV     1   --> G_2            
     e( 63 - 63) =     -0.14572  eV     1   --> G_2            
     e( 64 - 64) =     -0.14227  eV     1   --> G_2            
     e( 65 - 65) =      0.29499  eV     1   --> G_2            
     e( 66 - 66) =      0.29747  eV     1   --> G_2            
     e( 67 - 67) =      0.36915  eV     1   --> G_2            
     e( 68 - 68) =      0.37381  eV     1   --> G_2            
     e( 69 - 69) =      0.54054  eV     1   --> G_2            
     e( 70 - 70) =      0.54260  eV     1   --> G_2            
     e( 71 - 71) =      0.82960  eV     1   --> G_2            
     e( 72 - 72) =      0.83452  eV     1   --> G_2            
     e( 73 - 73) =      1.09837  eV     1   --> G_2            
     e( 74 - 74) =      1.10120  eV     1   --> G_2            
     e( 75 - 75) =      1.31717  eV     1   --> G_2            
     e( 76 - 76) =      1.31951  eV     1   --> G_2            
     e( 77 - 77) =      1.69276  eV     1   --> G_2            
     e( 78 - 78) =      1.69425  eV     1   --> G_2            
     e( 79 - 79) =      2.42356  eV     1   --> G_2            
     e( 80 - 80) =      2.42561  eV     1   --> G_2            
     e( 81 - 81) =      2.86985  eV     1   --> G_2            
     e( 82 - 82) =      2.87024  eV     1   --> G_2            
     e( 83 - 83) =      3.08617  eV     1   --> G_2            
     e( 84 - 84) =      3.08723  eV     1   --> G_2            
     e( 85 - 85) =      3.55328  eV     1   --> G_2            
     e( 86 - 86) =      3.55565  eV     1   --> G_2            
     e( 87 - 87) =      4.22967  eV     1   --> G_2            
     e( 88 - 88) =      4.23069  eV     1   --> G_2            
     e( 89 - 89) =      4.30950  eV     1   --> G_2            
     e( 90 - 90) =      4.31043  eV     1   --> G_2            
     e( 91 - 91) =      6.30365  eV     1   --> G_2            
     e( 92 - 92) =      6.30381  eV     1   --> G_2            
     e( 93 - 93) =      6.47113  eV     1   --> G_2            
     e( 94 - 94) =      6.47128  eV     1   --> G_2            
     e( 95 - 96) =      7.03624  eV     2   -->   2 G_2            
     e( 97 - 98) =      7.57119  eV     2   -->   2 G_2            
     e( 99 - 99) =      7.69656  eV     1   --> G_2            
     e(100 -100) =      7.69675  eV     1   --> G_2            
     e(101 -102) =      7.91632  eV     2   -->   2 G_2            
     e(103 -103) =      8.58149  eV     1   --> G_2            
     e(104 -104) =      8.58163  eV     1   --> G_2            
     e(105 -105) =      8.64223  eV     1   --> G_2            
     e(106 -106) =      8.64372  eV     1   --> G_2            
     e(107 -107) =      8.80450  eV     1   --> G_2            
     e(108 -108) =      8.80620  eV     1   --> G_2            
     e(109 -109) =      9.08700  eV     1   --> G_2            
     e(110 -110) =      9.08741  eV     1   --> G_2            
     e(111 -111) =      9.16373  eV     1   --> G_2            
     e(112 -112) =      9.16386  eV     1   --> G_2            
     e(113 -113) =      9.83684  eV     1   --> G_2            
     e(114 -114) =      9.83699  eV     1   --> G_2            
     e(115 -115) =      9.88443  eV     1   --> G_2            
     e(116 -116) =      9.88466  eV     1   --> G_2            
     e(117 -117) =     10.12348  eV     1   --> G_2            
     e(118 -118) =     10.12371  eV     1   --> G_2            
     e(119 -119) =     10.34076  eV     1   --> G_2            
     e(120 -120) =     10.34095  eV     1   --> G_2            
     e(121 -121) =     10.74300  eV     1   --> G_2            
     e(122 -122) =     10.74316  eV     1   --> G_2            
     e(123 -123) =     11.06354  eV     1   --> G_2            
     e(124 -124) =     11.06401  eV     1   --> G_2            
     e(125 -125) =     11.20627  eV     1   --> G_2            
     e(126 -126) =     11.20704  eV     1   --> G_2            
     e(127 -127) =     11.40745  eV     1   --> G_2            
     e(128 -128) =     11.40759  eV     1   --> G_2            
     e(129 -129) =     11.95879  eV     1   --> G_2            
     e(130 -130) =     11.96003  eV     1   --> G_2            
     e(131 -131) =     12.07670  eV     1   --> G_2            
     e(132 -132) =     12.07779  eV     1   --> G_2            
     e(133 -134) =     12.84510  eV     2   -->   2 G_2            
     e(135 -136) =     12.99855  eV     2   -->   2 G_2            
     e(137 -137) =     13.69732  eV     1   --> G_2            
     e(138 -138) =     13.69764  eV     1   --> G_2            
     e(139 -139) =     13.89711  eV     1   --> G_2            
     e(140 -140) =     13.89728  eV     1   --> G_2            
     e(141 -141) =     14.34660  eV     1   --> G_2            
     e(142 -142) =     14.34689  eV     1   --> G_2            
     e(143 -143) =     14.59738  eV     1   --> G_2            
     e(144 -144) =     14.59766  eV     1   --> G_2            
     e(145 -145) =     14.70850  eV     1   --> G_2            
     e(146 -146) =     14.70883  eV     1   --> G_2            
     e(147 -147) =     15.10213  eV     1   --> G_2            
     e(148 -148) =     15.10230  eV     1   --> G_2            
     e(149 -150) =     15.65796  eV     2   -->   2 G_2            
     e(151 -152) =     15.80414  eV     2   -->   2 G_2            
     e(153 -153) =     15.98319  eV     1   --> G_2            
     e(154 -154) =     15.98331  eV     1   --> G_2            
     e(155 -156) =     16.33759  eV     2   -->   2 G_2            
     e(157 -157) =     16.46952  eV     1   --> G_2            
     e(158 -158) =     16.46968  eV     1   --> G_2            
     e(159 -160) =     16.55463  eV     2   -->   2 G_2            
     e(161 -161) =     16.65832  eV     1   --> G_2            
     e(162 -162) =     16.65844  eV     1   --> G_2            
     e(163 -163) =     16.72510  eV     1   --> G_2            
     e(164 -164) =     16.72523  eV     1   --> G_2            
     e(165 -165) =     17.03111  eV     1   --> G_2            
     e(166 -166) =     17.03130  eV     1   --> G_2            
     e(167 -167) =     17.10795  eV     1   --> G_2            
     e(168 -168) =     17.10822  eV     1   --> G_2            
     e(169 -169) =     17.22904  eV     1   --> G_2            
     e(170 -170) =     17.22917  eV     1   --> G_2            
     e(171 -172) =     17.31480  eV     2   -->   2 G_2            
     e(173 -174) =     17.36601  eV     2   -->   2 G_2            
     e(175 -176) =     17.82497  eV     2   -->   2 G_2            
     e(177 -178) =     17.99883  eV     2   -->   2 G_2            
     e(179 -180) =     18.10280  eV     2   -->   2 G_2            
     e(181 -182) =     18.29004  eV     2   -->   2 G_2            
     e(183 -184) =     18.34636  eV     2   -->   2 G_2            
     e(185 -186) =     18.49572  eV     2   -->   2 G_2            
     e(187 -187) =     18.55864  eV     1   --> G_2            
     e(188 -188) =     18.55874  eV     1   --> G_2            
     e(189 -190) =     18.61615  eV     2   -->   2 G_2            
     e(191 -192) =     18.79012  eV     2   -->   2 G_2            
     e(193 -194) =     18.91268  eV     2   -->   2 G_2            
     e(195 -196) =     19.17982  eV     2   -->   2 G_2            
     e(197 -198) =     19.28774  eV     2   -->   2 G_2            
     e(199 -200) =     19.31851  eV     2   -->   2 G_2            

 **************************************************************************

 **************************************************************************

                    xk=(   0.05714,   0.03299,   0.00000  )

     Band symmetry, C_1 (1)     double point group:

     e(  1 -  2) =    -35.43583  eV     2   -->   2 G_2            
     e(  3 -  4) =    -35.42776  eV     2   -->   2 G_2            
     e(  5 -  6) =    -35.40974  eV     2   -->   2 G_2            
     e(  7 -  8) =    -35.40171  eV     2   -->   2 G_2            
     e(  9 - 10) =    -35.31713  eV     2   -->   2 G_2            
     e( 11 - 12) =    -35.28167  eV     2   -->   2 G_2            
     e( 13 - 14) =    -33.97606  eV     2   -->   2 G_2            
     e( 15 - 16) =    -33.96800  eV     2   -->   2 G_2            
     e( 17 - 18) =    -33.95393  eV     2   -->   2 G_2            
     e( 19 - 20) =    -33.94586  eV     2   -->   2 G_2            
     e( 21 - 22) =    -33.94214  eV     2   -->   2 G_2            
     e( 23 - 24) =    -33.93413  eV     2   -->   2 G_2            
     e( 25 - 26) =    -33.85458  eV     2   -->   2 G_2            
     e( 27 - 28) =    -33.83921  eV     2   -->   2 G_2            
     e( 29 - 30) =    -33.80856  eV     2   -->   2 G_2            
     e( 31 - 32) =    -28.05719  eV     2   -->   2 G_2            
     e( 33 - 34) =    -28.05090  eV     2   -->   2 G_2            
     e( 35 - 36) =    -28.04847  eV     2   -->   2 G_2            
     e( 37 - 38) =    -28.04226  eV     2   -->   2 G_2            
     e( 39 - 40) =    -26.81810  eV     2   -->   2 G_2            
     e( 41 - 42) =    -26.81180  eV     2   -->   2 G_2            
     e( 43 - 44) =    -26.80820  eV     2   -->   2 G_2            
     e( 45 - 46) =    -26.80691  eV     2   -->   2 G_2            
     e( 47 - 48) =    -26.80197  eV     2   -->   2 G_2            
     e( 49 - 50) =    -26.80071  eV     2   -->   2 G_2            
     e( 51 - 52) =    -10.55732  eV     2   -->   2 G_2            
     e( 53 - 54) =    -10.03454  eV     2   -->   2 G_2            
     e( 55 - 56) =     -8.95889  eV     2   -->   2 G_2            
[...]
     e(135 -136) =     12.94494  eV     2   -->   2 G_2            
     e(137 -137) =     13.97112  eV     1   --> G_2            
     e(138 -138) =     13.97123  eV     1   --> G_2            
     e(139 -139) =     14.09907  eV     1   --> G_2            
     e(140 -140) =     14.09957  eV     1   --> G_2            
     e(141 -141) =     14.30183  eV     1   --> G_2            
     e(142 -142) =     14.30334  eV     1   --> G_2            
     e(143 -143) =     14.37310  eV     1   --> G_2            
     e(144 -144) =     14.37411  eV     1   --> G_2            
     e(145 -145) =     14.50728  eV     1   --> G_2            
     e(146 -146) =     14.50743  eV     1   --> G_2            
     e(147 -148) =     15.18617  eV     2   -->   2 G_2            
     e(149 -149) =     15.84680  eV     1   --> G_2            
     e(150 -150) =     15.84692  eV     1   --> G_2            
     e(151 -151) =     15.99250  eV     1   --> G_2            
     e(152 -152) =     15.99280  eV     1   --> G_2            
     e(153 -153) =     16.09317  eV     1   --> G_2            
     e(154 -154) =     16.09333  eV     1   --> G_2            
     e(155 -155) =     16.32315  eV     1   --> G_2            
     e(156 -156) =     16.32390  eV     1   --> G_2            
     e(157 -157) =     16.37960  eV     1   --> G_2            
     e(158 -158) =     16.38005  eV     1   --> G_2            
     e(159 -159) =     16.45202  eV     1   --> G_2            
     e(160 -160) =     16.45213  eV     1   --> G_2            
     e(161 -161) =     16.81754  eV     1   --> G_2            
     e(162 -162) =     16.81770  eV     1   --> G_2            
     e(163 -164) =     17.06911  eV     2   -->   2 G_2            
     e(165 -166) =     17.21636  eV     2   -->   2 G_2            
     e(167 -168) =     17.28782  eV     2   -->   2 G_2            
     e(169 -169) =     17.42691  eV     1   --> G_2            
     e(170 -170) =     17.42705  eV     1   --> G_2            
     e(171 -171) =     17.47728  eV     1   --> G_2            
     e(172 -172) =     17.47745  eV     1   --> G_2            
     e(173 -174) =     17.55095  eV     2   -->   2 G_2            
     e(175 -176) =     17.61240  eV     2   -->   2 G_2            
     e(177 -177) =     17.72177  eV     1   --> G_2            
     e(178 -178) =     17.72188  eV     1   --> G_2            
     e(179 -180) =     17.78655  eV     2   -->   2 G_2            
     e(181 -182) =     17.86777  eV     2   -->   2 G_2            
     e(183 -184) =     18.05498  eV     2   -->   2 G_2            
     e(185 -185) =     18.09855  eV     1   --> G_2            
     e(186 -186) =     18.09867  eV     1   --> G_2            
     e(187 -188) =     18.35916  eV     2   -->   2 G_2            
     e(189 -190) =     19.02008  eV     2   -->   2 G_2            
     e(191 -191) =     19.12490  eV     1   --> G_2            
     e(192 -192) =     19.12513  eV     1   --> G_2            
     e(193 -193) =     19.23014  eV     1   --> G_2            
     e(194 -194) =     19.23053  eV     1   --> G_2            
     e(195 -196) =     19.33760  eV     2   -->   2 G_2            
     e(197 -198) =     19.47991  eV     2   -->   2 G_2            
     e(199 -200) =     19.52984  eV     2   -->   2 G_2            

 **************************************************************************

 **************************************************************************

                    xk=(   0.00476,   0.00830,   0.00000  )

     Band symmetry, C_1 (1)     double point group:

     e(  1 -  2) =    -35.43584  eV     2   -->   2 G_2            
     e(  3 -  4) =    -35.42778  eV     2   -->   2 G_2            
     e(  5 -  6) =    -35.40974  eV     2   -->   2 G_2            
     e(  7 -  8) =    -35.40170  eV     2   -->   2 G_2            
     e(  9 - 10) =    -35.31714  eV     2   -->   2 G_2            
     e( 11 - 12) =    -35.28169  eV     2   -->   2 G_2            
     e( 13 - 14) =    -33.97608  eV     2   -->   2 G_2            
     e( 15 - 16) =    -33.96802  eV     2   -->   2 G_2            
     e( 17 - 18) =    -33.95393  eV     2   -->   2 G_2            
     e( 19 - 20) =    -33.94586  eV     2   -->   2 G_2            
     e( 21 - 22) =    -33.94215  eV     2   -->   2 G_2            
     e( 23 - 24) =    -33.93414  eV     2   -->   2 G_2            
     e( 25 - 26) =    -33.85459  eV     2   -->   2 G_2            
     e( 27 - 28) =    -33.83920  eV     2   -->   2 G_2            
     e( 29 - 30) =    -33.80859  eV     2   -->   2 G_2            
     e( 31 - 32) =    -28.05722  eV     2   -->   2 G_2            
     e( 33 - 34) =    -28.05092  eV     2   -->   2 G_2            
     e( 35 - 36) =    -28.04844  eV     2   -->   2 G_2            
     e( 37 - 38) =    -28.04223  eV     2   -->   2 G_2            
     e( 39 - 40) =    -26.81815  eV     2   -->   2 G_2            
     e( 41 - 42) =    -26.81185  eV     2   -->   2 G_2            
     e( 43 - 44) =    -26.80814  eV     2   -->   2 G_2            
     e( 45 - 46) =    -26.80692  eV     2   -->   2 G_2            
     e( 47 - 48) =    -26.80192  eV     2   -->   2 G_2            
     e( 49 - 50) =    -26.80071  eV     2   -->   2 G_2            
     e( 51 - 52) =    -10.58484  eV     2   -->   2 G_2            
     e( 53 - 54) =    -10.05986  eV     2   -->   2 G_2            
     e( 55 - 56) =     -8.97468  eV     2   -->   2 G_2            
     e( 57 - 58) =     -6.21577  eV     2   -->   2 G_2            
     e( 59 - 60) =     -4.80039  eV     2   -->   2 G_2            
     e( 61 - 62) =     -0.44368  eV     2   -->   2 G_2            
     e( 63 - 63) =      0.07033  eV     1   --> G_2            
     e( 64 - 64) =      0.07115  eV     1   --> G_2            
     e( 65 - 65) =      0.32259  eV     1   --> G_2            
     e( 66 - 66) =      0.32367  eV     1   --> G_2            
     e( 67 - 67) =      0.58959  eV     1   --> G_2            
     e( 68 - 68) =      0.59009  eV     1   --> G_2            
     e( 69 - 69) =      0.66139  eV     1   --> G_2            
     e( 70 - 70) =      0.66409  eV     1   --> G_2            
     e( 71 - 71) =      0.80157  eV     1   --> G_2            
     e( 72 - 72) =      0.80465  eV     1   --> G_2            
     e( 73 - 73) =      1.01105  eV     1   --> G_2            
     e( 74 - 74) =      1.01168  eV     1   --> G_2            
     e( 75 - 75) =      1.38746  eV     1   --> G_2            
     e( 76 - 76) =      1.38790  eV     1   --> G_2            
     e( 77 - 77) =      1.53736  eV     1   --> G_2            
     e( 78 - 78) =      1.53764  eV     1   --> G_2            
     e( 79 - 79) =      2.25126  eV     1   --> G_2            
     e( 80 - 80) =      2.25153  eV     1   --> G_2            
     e( 81 - 81) =      2.85487  eV     1   --> G_2            
     e( 82 - 82) =      2.85525  eV     1   --> G_2            
     e( 83 - 83) =      3.16665  eV     1   --> G_2            
     e( 84 - 84) =      3.16747  eV     1   --> G_2            
     e( 85 - 85) =      3.41294  eV     1   --> G_2            
     e( 86 - 86) =      3.41409  eV     1   --> G_2            
     e( 87 - 87) =      4.17085  eV     1   --> G_2            
     e( 88 - 88) =      4.17115  eV     1   --> G_2            
     e( 89 - 89) =      4.27060  eV     1   --> G_2            
     e( 90 - 90) =      4.27075  eV     1   --> G_2            
     e( 91 - 92) =      6.26561  eV     2   -->   2 G_2            
     e( 93 - 94) =      6.46208  eV     2   -->   2 G_2            
     e( 95 - 96) =      7.02888  eV     2   -->   2 G_2            
     e( 97 - 98) =      7.67972  eV     2   -->   2 G_2            
     e( 99 -100) =      7.73297  eV     2   -->   2 G_2            
     e(101 -102) =      7.87722  eV     2   -->   2 G_2            
     e(103 -104) =      8.46964  eV     2   -->   2 G_2            
     e(105 -105) =      8.72235  eV     1   --> G_2            
     e(106 -106) =      8.72281  eV     1   --> G_2            
     e(107 -107) =      8.85994  eV     1   --> G_2            
     e(108 -108) =      8.86057  eV     1   --> G_2            
     e(109 -109) =      9.03779  eV     1   --> G_2            
     e(110 -110) =      9.03795  eV     1   --> G_2            
     e(111 -112) =      9.18327  eV     2   -->   2 G_2            
     e(113 -114) =      9.73011  eV     2   -->   2 G_2            
     e(115 -116) =      9.78743  eV     2   -->   2 G_2            
     e(117 -118) =     10.08931  eV     2   -->   2 G_2            
     e(119 -120) =     10.20948  eV     2   -->   2 G_2            
     e(121 -122) =     10.60381  eV     2   -->   2 G_2            
     e(123 -123) =     11.19424  eV     1   --> G_2            
     e(124 -124) =     11.19442  eV     1   --> G_2            
     e(125 -125) =     11.34717  eV     1   --> G_2            
     e(126 -126) =     11.34772  eV     1   --> G_2            
     e(127 -127) =     11.55753  eV     1   --> G_2            
     e(128 -128) =     11.55816  eV     1   --> G_2            
     e(129 -129) =     11.68053  eV     1   --> G_2            
     e(130 -130) =     11.68104  eV     1   --> G_2            
     e(131 -131) =     11.77636  eV     1   --> G_2            
     e(132 -132) =     11.77687  eV     1   --> G_2            
     e(133 -134) =     12.85332  eV     2   -->   2 G_2            
     e(135 -136) =     12.93904  eV     2   -->   2 G_2            
     e(137 -138) =     14.01429  eV     2   -->   2 G_2            
     e(139 -139) =     14.14777  eV     1   --> G_2            
     e(140 -140) =     14.14841  eV     1   --> G_2            
     e(141 -141) =     14.27109  eV     1   --> G_2            
     e(142 -142) =     14.27233  eV     1   --> G_2            
     e(143 -143) =     14.35654  eV     1   --> G_2            
     e(144 -144) =     14.35716  eV     1   --> G_2            
     e(145 -146) =     14.47043  eV     2   -->   2 G_2            
     e(147 -148) =     15.17040  eV     2   -->   2 G_2            
     e(149 -150) =     15.89948  eV     2   -->   2 G_2            
     e(151 -151) =     16.04521  eV     1   --> G_2            
     e(152 -152) =     16.04556  eV     1   --> G_2            
     e(153 -153) =     16.10747  eV     1   --> G_2            
     e(154 -154) =     16.10768  eV     1   --> G_2            
     e(155 -155) =     16.27551  eV     1   --> G_2            
     e(156 -156) =     16.27606  eV     1   --> G_2            
     e(157 -157) =     16.36294  eV     1   --> G_2            
     e(158 -158) =     16.36327  eV     1   --> G_2            
     e(159 -160) =     16.42745  eV     2   -->   2 G_2            
     e(161 -162) =     16.79002  eV     2   -->   2 G_2            
     e(163 -164) =     17.18432  eV     2   -->   2 G_2            
     e(165 -166) =     17.23920  eV     2   -->   2 G_2            
     e(167 -167) =     17.36436  eV     1   --> G_2            
     e(168 -168) =     17.36450  eV     1   --> G_2            
     e(169 -169) =     17.43975  eV     1   --> G_2            
     e(170 -170) =     17.43988  eV     1   --> G_2            
     e(171 -172) =     17.49196  eV     2   -->   2 G_2            
     e(173 -174) =     17.57242  eV     2   -->   2 G_2            
     e(175 -176) =     17.62173  eV     2   -->   2 G_2            
     e(177 -178) =     17.72232  eV     2   -->   2 G_2            
     e(179 -179) =     17.77606  eV     1   --> G_2            
     e(180 -180) =     17.77616  eV     1   --> G_2            
     e(181 -182) =     17.78887  eV     2   -->   2 G_2            
     e(183 -184) =     17.94401  eV     2   -->   2 G_2            
     e(185 -186) =     18.02850  eV     2   -->   2 G_2            
     e(187 -188) =     18.29290  eV     2   -->   2 G_2            
     e(189 -190) =     19.12775  eV     2   -->   2 G_2            
     e(191 -191) =     19.22298  eV     1   --> G_2            
     e(192 -192) =     19.22327  eV     1   --> G_2            
     e(193 -193) =     19.29386  eV     1   --> G_2            
     e(194 -194) =     19.29431  eV     1   --> G_2            
     e(195 -195) =     19.36473  eV     1   --> G_2            
     e(196 -196) =     19.36488  eV     1   --> G_2            
     e(197 -197) =     19.43471  eV     1   --> G_2            
     e(198 -198) =     19.43487  eV     1   --> G_2            
     e(199 -200) =     19.53422  eV     2   -->   2 G_2            

 **************************************************************************

 **************************************************************************

                    xk=(   0.00000,   0.00000,   0.00000  )

     Band symmetry, C_1 (1)     double point group:

     e(  1 -  2) =    -35.43584  eV     2   -->   2 G_2            
     e(  3 -  4) =    -35.42778  eV     2   -->   2 G_2            
     e(  5 -  6) =    -35.40974  eV     2   -->   2 G_2            
     e(  7 -  8) =    -35.40170  eV     2   -->   2 G_2            
     e(  9 - 10) =    -35.31714  eV     2   -->   2 G_2            
     e( 11 - 12) =    -35.28169  eV     2   -->   2 G_2            
     e( 13 - 14) =    -33.97608  eV     2   -->   2 G_2            
     e( 15 - 16) =    -33.96802  eV     2   -->   2 G_2            
     e( 17 - 18) =    -33.95393  eV     2   -->   2 G_2            
     e( 19 - 20) =    -33.94586  eV     2   -->   2 G_2            
     e( 21 - 22) =    -33.94215  eV     2   -->   2 G_2            
     e( 23 - 24) =    -33.93414  eV     2   -->   2 G_2            
     e( 25 - 26) =    -33.85459  eV     2   -->   2 G_2            
     e( 27 - 28) =    -33.83920  eV     2   -->   2 G_2            
     e( 29 - 30) =    -33.80859  eV     2   -->   2 G_2            
     e( 31 - 32) =    -28.05722  eV     2   -->   2 G_2            
     e( 33 - 34) =    -28.05092  eV     2   -->   2 G_2            
     e( 35 - 36) =    -28.04844  eV     2   -->   2 G_2            
     e( 37 - 38) =    -28.04223  eV     2   -->   2 G_2            
     e( 39 - 40) =    -26.81815  eV     2   -->   2 G_2            
     e( 41 - 42) =    -26.81185  eV     2   -->   2 G_2            
     e( 43 - 44) =    -26.80814  eV     2   -->   2 G_2            
     e( 45 - 46) =    -26.80691  eV     2   -->   2 G_2            
     e( 47 - 48) =    -26.80191  eV     2   -->   2 G_2            
     e( 49 - 50) =    -26.80071  eV     2   -->   2 G_2            
     e( 51 - 52) =    -10.58544  eV     2   -->   2 G_2            
     e( 53 - 54) =    -10.06040  eV     2   -->   2 G_2            
     e( 55 - 56) =     -8.97502  eV     2   -->   2 G_2            
     e( 57 - 58) =     -6.21573  eV     2   -->   2 G_2            
     e( 59 - 60) =     -4.79942  eV     2   -->   2 G_2            
     e( 61 - 62) =     -0.44287  eV     2   -->   2 G_2            
     e( 63 - 64) =      0.07827  eV     2   -->   2 G_2            
     e( 65 - 66) =      0.32206  eV     2   -->   2 G_2            
     e( 67 - 68) =      0.59293  eV     2   -->   2 G_2            
     e( 69 - 70) =      0.68204  eV     2   -->   2 G_2            
     e( 71 - 72) =      0.79195  eV     2   -->   2 G_2            
     e( 73 - 74) =      1.00637  eV     2   -->   2 G_2            
     e( 75 - 76) =      1.39281  eV     2   -->   2 G_2            
     e( 77 - 78) =      1.53238  eV     2   -->   2 G_2            
     e( 79 - 80) =      2.24388  eV     2   -->   2 G_2            
     e( 81 - 82) =      2.85411  eV     2   -->   2 G_2            
     e( 83 - 84) =      3.17537  eV     2   -->   2 G_2            
     e( 85 - 86) =      3.40516  eV     2   -->   2 G_2            
     e( 87 - 88) =      4.16749  eV     2   -->   2 G_2            
     e( 89 - 90) =      4.27117  eV     2   -->   2 G_2            
     e( 91 - 92) =      6.26451  eV     2   -->   2 G_2            
     e( 93 - 94) =      6.46182  eV     2   -->   2 G_2            
     e( 95 - 96) =      7.02857  eV     2   -->   2 G_2            
     e( 97 - 98) =      7.67981  eV     2   -->   2 G_2            
     e( 99 -100) =      7.73502  eV     2   -->   2 G_2            
     e(101 -102) =      7.88013  eV     2   -->   2 G_2            
     e(103 -104) =      8.46468  eV     2   -->   2 G_2            
     e(105 -106) =      8.72341  eV     2   -->   2 G_2            
     e(107 -108) =      8.86291  eV     2   -->   2 G_2            
     e(109 -110) =      9.03857  eV     2   -->   2 G_2            
     e(111 -112) =      9.18437  eV     2   -->   2 G_2            
     e(113 -114) =      9.72494  eV     2   -->   2 G_2            
     e(115 -116) =      9.78330  eV     2   -->   2 G_2            
     e(117 -118) =     10.09007  eV     2   -->   2 G_2            
     e(119 -120) =     10.20524  eV     2   -->   2 G_2            
     e(121 -122) =     10.59967  eV     2   -->   2 G_2            
     e(123 -124) =     11.19812  eV     2   -->   2 G_2            
     e(125 -126) =     11.35440  eV     2   -->   2 G_2            
     e(127 -128) =     11.58620  eV     2   -->   2 G_2            
     e(129 -130) =     11.65571  eV     2   -->   2 G_2            
     e(131 -132) =     11.75817  eV     2   -->   2 G_2            
     e(133 -134) =     12.85349  eV     2   -->   2 G_2            
     e(135 -136) =     12.93707  eV     2   -->   2 G_2            
     e(137 -138) =     14.03178  eV     2   -->   2 G_2            
     e(139 -140) =     14.17039  eV     2   -->   2 G_2            
     e(141 -142) =     14.25513  eV     2   -->   2 G_2            
     e(143 -144) =     14.34915  eV     2   -->   2 G_2            
     e(145 -146) =     14.45777  eV     2   -->   2 G_2            
     e(147 -148) =     15.16433  eV     2   -->   2 G_2            
     e(149 -150) =     15.92015  eV     2   -->   2 G_2            
     e(151 -152) =     16.06397  eV     2   -->   2 G_2            
     e(153 -154) =     16.12179  eV     2   -->   2 G_2            
     e(155 -156) =     16.24994  eV     2   -->   2 G_2            
     e(157 -158) =     16.35373  eV     2   -->   2 G_2            
     e(159 -160) =     16.41978  eV     2   -->   2 G_2            
     e(161 -162) =     16.78072  eV     2   -->   2 G_2            
     e(163 -164) =     17.21994  eV     2   -->   2 G_2            
     e(165 -166) =     17.29358  eV     2   -->   2 G_2            
     e(167 -168) =     17.35460  eV     2   -->   2 G_2            
     e(169 -170) =     17.42703  eV     2   -->   2 G_2            
     e(171 -172) =     17.48969  eV     2   -->   2 G_2            
     e(173 -174) =     17.59416  eV     2   -->   2 G_2            
     e(175 -176) =     17.67636  eV     2   -->   2 G_2            
     e(177 -178) =     17.67826  eV     2   -->   2 G_2            
     e(179 -180) =     17.77612  eV     2   -->   2 G_2            
     e(181 -182) =     17.79302  eV     2   -->   2 G_2            
     e(183 -184) =     17.87132  eV     2   -->   2 G_2            
     e(185 -186) =     18.00265  eV     2   -->   2 G_2            
     e(187 -188) =     18.26910  eV     2   -->   2 G_2            
     e(189 -190) =     19.18368  eV     2   -->   2 G_2            
     e(191 -192) =     19.27953  eV     2   -->   2 G_2            
     e(193 -194) =     19.30527  eV     2   -->   2 G_2            
     e(195 -196) =     19.35691  eV     2   -->   2 G_2            
     e(197 -198) =     19.40631  eV     2   -->   2 G_2            
     e(199 -200) =     19.54913  eV     2   -->   2 G_2            

 **************************************************************************

     BANDS        :      1h 7m CPU      1h 7m WALL


   This run was terminated on:  18:22:56  22Aug2025            

=------------------------------------------------------------------------------=
   JOB DONE.
=------------------------------------------------------------------------------=
