
     Program BANDS v.7.4.1 starts on 14Aug2025 at 14: 7:13 

     This program is part of the open-source Quantum ESPRESSO suite
     for quantum simulation of materials; please cite
         "P. Giannozzi et al., J. Phys.:Condens. Matter 21 395502 (2009);
         "P. Giannozzi et al., J. Phys.:Condens. Matter 29 465901 (2017);
         "P. Giannozzi et al., J. Chem. Phys. 152 154105 (2020);
          URL http://www.quantum-espresso.org", 
     in publications or presentations arising from this work. More details at
     http://www.quantum-espresso.org/quote

     Parallel version (MPI & OpenMP), running on      48 processor cores
     Number of MPI processes:                24
     Threads/MPI process:                     2

     MPI processes distributed on     2 nodes
     R & G space division:  proc/nbgrp/npool/nimage =      24
     109270 MiB available memory on the printing compute node when the environment starts


     Reading xml data from directory:

     tmp/Sb2Te3-uatsx-c2-soc-0.0.save/
Error reading attribute index: expected integer, found *
Error reading attribute index: expected integer, found *

     IMPORTANT: XC functional enforced from input :
     Exchange-correlation= PBE
                           (   1   4   3   4   0   0   0)
     Any further DFT definition will be discarded
     Please, verify this is what you really want


     Parallelization info
     --------------------
     sticks:   dense  smooth     PW     G-vecs:    dense   smooth      PW
     Min          94      38     10                18908     4792     720
     Max          95      39     11                18933     4815     753
     Sum        2275     925    253               454177   115133   17665

     Using Slab Decomposition

     Reading collected, re-writing distributed wavefunctions
     high-symmetry point:  0.0000 0.0000 0.0000   x coordinate   0.0000
     high-symmetry point:  0.5000 0.2886 0.0000   x coordinate   0.5773
     high-symmetry point:  0.3333 0.5771 0.0000   x coordinate   0.9105
     high-symmetry point:  0.0000 0.0000 0.0000   x coordinate   1.5770

     Plottable bands (eV) written to file ./bands/Sb2Te3-uatsx-c2-soc-0.0.bands.gnu
     Bands written to file ./bands/Sb2Te3-uatsx-c2-soc-0.0.bands

 **************************************************************************

                    xk=(   0.00000,   0.00000,   0.00000  )

     double point group C_1 (1)    
     there are  2 classes and  1 irreducible representations
     the character table:

       E     -E   
                  
G_2    1.00 -1.00

     the symmetry operations in each class and the name of the first element:

     E             1
                                                                 
     -E           -1
                                                                 

     Band symmetry, C_1 (1)     double point group:

     e(  1 -  2) =    -35.36894  eV     2   -->   2 G_2            
     e(  3 -  4) =    -35.36387  eV     2   -->   2 G_2            
     e(  5 -  6) =    -35.34404  eV     2   -->   2 G_2            
     e(  7 -  8) =    -35.33903  eV     2   -->   2 G_2            
     e(  9 - 10) =    -35.26213  eV     2   -->   2 G_2            
     e( 11 - 12) =    -35.22592  eV     2   -->   2 G_2            
     e( 13 - 14) =    -33.90898  eV     2   -->   2 G_2            
     e( 15 - 16) =    -33.90390  eV     2   -->   2 G_2            
     e( 17 - 18) =    -33.88788  eV     2   -->   2 G_2            
     e( 19 - 20) =    -33.88283  eV     2   -->   2 G_2            
     e( 21 - 22) =    -33.87657  eV     2   -->   2 G_2            
     e( 23 - 24) =    -33.87158  eV     2   -->   2 G_2            
     e( 25 - 26) =    -33.79958  eV     2   -->   2 G_2            
     e( 27 - 28) =    -33.78417  eV     2   -->   2 G_2            
     e( 29 - 30) =    -33.75263  eV     2   -->   2 G_2            
     e( 31 - 32) =    -27.98457  eV     2   -->   2 G_2            
     e( 33 - 34) =    -27.98034  eV     2   -->   2 G_2            
     e( 35 - 36) =    -27.97563  eV     2   -->   2 G_2            
     e( 37 - 38) =    -27.97147  eV     2   -->   2 G_2            
     e( 39 - 40) =    -26.74561  eV     2   -->   2 G_2            
     e( 41 - 42) =    -26.74137  eV     2   -->   2 G_2            
     e( 43 - 44) =    -26.73547  eV     2   -->   2 G_2            
     e( 45 - 46) =    -26.73428  eV     2   -->   2 G_2            
     e( 47 - 48) =    -26.73128  eV     2   -->   2 G_2            
     e( 49 - 50) =    -26.73012  eV     2   -->   2 G_2            
     e( 51 - 52) =    -10.57538  eV     2   -->   2 G_2            
     e( 53 - 54) =    -10.03825  eV     2   -->   2 G_2            
     e( 55 - 56) =     -8.94296  eV     2   -->   2 G_2            
     e( 57 - 58) =     -6.16115  eV     2   -->   2 G_2            
     e( 59 - 60) =     -4.70305  eV     2   -->   2 G_2            
     e( 61 - 62) =     -0.39304  eV     2   -->   2 G_2            
     e( 63 - 64) =      0.16089  eV     2   -->   2 G_2            
     e( 65 - 66) =      0.38776  eV     2   -->   2 G_2            
     e( 67 - 68) =      0.66602  eV     2   -->   2 G_2            
     e( 69 - 70) =      0.76490  eV     2   -->   2 G_2            
     e( 71 - 72) =      0.87776  eV     2   -->   2 G_2            
     e( 73 - 74) =      1.08072  eV     2   -->   2 G_2            
     e( 75 - 76) =      1.47686  eV     2   -->   2 G_2            
     e( 77 - 78) =      1.63186  eV     2   -->   2 G_2            
     e( 79 - 80) =      2.35231  eV     2   -->   2 G_2            
     e( 81 - 82) =      2.95262  eV     2   -->   2 G_2            
     e( 83 - 84) =      3.26209  eV     2   -->   2 G_2            
     e( 85 - 86) =      3.50862  eV     2   -->   2 G_2            
     e( 87 - 88) =      4.28333  eV     2   -->   2 G_2            
     e( 89 - 90) =      4.36201  eV     2   -->   2 G_2            
     e( 91 - 92) =      6.32190  eV     2   -->   2 G_2            
     e( 93 - 94) =      6.52277  eV     2   -->   2 G_2            
     e( 95 - 96) =      7.07598  eV     2   -->   2 G_2            
     e( 97 - 98) =      7.75215  eV     2   -->   2 G_2            
     e( 99 -100) =      7.86900  eV     2   -->   2 G_2            

 **************************************************************************

 **************************************************************************

                    xk=(   0.00714,   0.00412,   0.00000  )

     Band symmetry, C_1 (1)     double point group:

     e(  1 -  2) =    -35.36894  eV     2   -->   2 G_2            
     e(  3 -  4) =    -35.36387  eV     2   -->   2 G_2            
     e(  5 -  6) =    -35.34405  eV     2   -->   2 G_2            
     e(  7 -  8) =    -35.33904  eV     2   -->   2 G_2            
     e(  9 - 10) =    -35.26214  eV     2   -->   2 G_2            
     e( 11 - 12) =    -35.22592  eV     2   -->   2 G_2            
     e( 13 - 14) =    -33.90898  eV     2   -->   2 G_2            
     e( 15 - 16) =    -33.90390  eV     2   -->   2 G_2            
     e( 17 - 18) =    -33.88788  eV     2   -->   2 G_2            
     e( 19 - 20) =    -33.88283  eV     2   -->   2 G_2            
     e( 21 - 22) =    -33.87657  eV     2   -->   2 G_2            
     e( 23 - 24) =    -33.87158  eV     2   -->   2 G_2            
     e( 25 - 26) =    -33.79958  eV     2   -->   2 G_2            
     e( 27 - 28) =    -33.78417  eV     2   -->   2 G_2            
     e( 29 - 30) =    -33.75263  eV     2   -->   2 G_2            
     e( 31 - 32) =    -27.98457  eV     2   -->   2 G_2            
     e( 33 - 34) =    -27.98034  eV     2   -->   2 G_2            
     e( 35 - 36) =    -27.97563  eV     2   -->   2 G_2            
     e( 37 - 38) =    -27.97147  eV     2   -->   2 G_2            
     e( 39 - 40) =    -26.74561  eV     2   -->   2 G_2            
     e( 41 - 42) =    -26.74137  eV     2   -->   2 G_2            
     e( 43 - 44) =    -26.73547  eV     2   -->   2 G_2            
     e( 45 - 46) =    -26.73428  eV     2   -->   2 G_2            
     e( 47 - 48) =    -26.73128  eV     2   -->   2 G_2            
     e( 49 - 50) =    -26.73013  eV     2   -->   2 G_2            
     e( 51 - 52) =    -10.57490  eV     2   -->   2 G_2            
     e( 53 - 54) =    -10.03789  eV     2   -->   2 G_2            
     e( 55 - 56) =     -8.94276  eV     2   -->   2 G_2            
     e( 57 - 58) =     -6.16121  eV     2   -->   2 G_2            
     e( 59 - 60) =     -4.70381  eV     2   -->   2 G_2            
     e( 61 - 62) =     -0.39364  eV     2   -->   2 G_2            
     e( 63 - 63) =      0.15459  eV     1   --> G_2            
     e( 64 - 64) =      0.15533  eV     1   --> G_2            
     e( 65 - 65) =      0.38804  eV     1   --> G_2            
     e( 66 - 66) =      0.38914  eV     1   --> G_2            
     e( 67 - 67) =      0.66316  eV     1   --> G_2            
     e( 68 - 68) =      0.66427  eV     1   --> G_2            
     e( 69 - 69) =      0.74667  eV     1   --> G_2            
     e( 70 - 70) =      0.75353  eV     1   --> G_2            
     e( 71 - 71) =      0.88214  eV     1   --> G_2            
     e( 72 - 72) =      0.89009  eV     1   --> G_2            
     e( 73 - 73) =      1.08390  eV     1   --> G_2            
     e( 74 - 74) =      1.08556  eV     1   --> G_2            
     e( 75 - 75) =      1.47217  eV     1   --> G_2            
     e( 76 - 76) =      1.47331  eV     1   --> G_2            
     e( 77 - 77) =      1.63561  eV     1   --> G_2            
     e( 78 - 78) =      1.63658  eV     1   --> G_2            
     e( 79 - 79) =      2.35743  eV     1   --> G_2            
     e( 80 - 80) =      2.35825  eV     1   --> G_2            
     e( 81 - 81) =      2.95313  eV     1   --> G_2            
     e( 82 - 82) =      2.95388  eV     1   --> G_2            
     e( 83 - 83) =      3.25502  eV     1   --> G_2            
     e( 84 - 84) =      3.25702  eV     1   --> G_2            
     e( 85 - 85) =      3.51360  eV     1   --> G_2            
     e( 86 - 86) =      3.51563  eV     1   --> G_2            
     e( 87 - 87) =      4.28600  eV     1   --> G_2            
     e( 88 - 88) =      4.28643  eV     1   --> G_2            
     e( 89 - 89) =      4.36117  eV     1   --> G_2            
     e( 90 - 90) =      4.36168  eV     1   --> G_2            
     e( 91 - 92) =      6.32274  eV     2   -->   2 G_2            
     e( 93 - 94) =      6.52298  eV     2   -->   2 G_2            
     e( 95 - 96) =      7.07625  eV     2   -->   2 G_2            
     e( 97 - 98) =      7.75216  eV     2   -->   2 G_2            
     e( 99 - 99) =      7.86686  eV     1   --> G_2            
     e(100 -100) =      7.86704  eV     1   --> G_2            

 **************************************************************************

 **************************************************************************

                    xk=(   0.01429,   0.00824,   0.00000  )

     Band symmetry, C_1 (1)     double point group:

     e(  1 -  2) =    -35.36894  eV     2   -->   2 G_2            
     e(  3 -  4) =    -35.36387  eV     2   -->   2 G_2            
     e(  5 -  6) =    -35.34405  eV     2   -->   2 G_2            
     e(  7 -  8) =    -35.33904  eV     2   -->   2 G_2            
     e(  9 - 10) =    -35.26214  eV     2   -->   2 G_2            
     e( 11 - 12) =    -35.22592  eV     2   -->   2 G_2            
     e( 13 - 14) =    -33.90898  eV     2   -->   2 G_2            
     e( 15 - 16) =    -33.90390  eV     2   -->   2 G_2            
     e( 17 - 18) =    -33.88788  eV     2   -->   2 G_2            
     e( 19 - 20) =    -33.88283  eV     2   -->   2 G_2            
     e( 21 - 22) =    -33.87657  eV     2   -->   2 G_2            
     e( 23 - 24) =    -33.87158  eV     2   -->   2 G_2            
     e( 25 - 26) =    -33.79958  eV     2   -->   2 G_2            
     e( 27 - 28) =    -33.78417  eV     2   -->   2 G_2            
     e( 29 - 30) =    -33.75263  eV     2   -->   2 G_2            
     e( 31 - 32) =    -27.98457  eV     2   -->   2 G_2            
     e( 33 - 34) =    -27.98033  eV     2   -->   2 G_2            
     e( 35 - 36) =    -27.97564  eV     2   -->   2 G_2            
     e( 37 - 38) =    -27.97148  eV     2   -->   2 G_2            
     e( 39 - 40) =    -26.74561  eV     2   -->   2 G_2            
     e( 41 - 42) =    -26.74137  eV     2   -->   2 G_2            
     e( 43 - 44) =    -26.73547  eV     2   -->   2 G_2            
     e( 45 - 46) =    -26.73429  eV     2   -->   2 G_2            
     e( 47 - 48) =    -26.73129  eV     2   -->   2 G_2            
     e( 49 - 50) =    -26.73013  eV     2   -->   2 G_2            
     e( 51 - 52) =    -10.57352  eV     2   -->   2 G_2            
     e( 53 - 54) =    -10.03662  eV     2   -->   2 G_2            
     e( 55 - 56) =     -8.94197  eV     2   -->   2 G_2            
     e( 57 - 58) =     -6.16128  eV     2   -->   2 G_2            
     e( 59 - 60) =     -4.70597  eV     2   -->   2 G_2            
     e( 61 - 61) =     -0.39541  eV     1   --> G_2            
     e( 62 - 62) =     -0.39530  eV     1   --> G_2            
     e( 63 - 63) =      0.13725  eV     1   --> G_2            
     e( 64 - 64) =      0.13860  eV     1   --> G_2            
     e( 65 - 65) =      0.38930  eV     1   --> G_2            
     e( 66 - 66) =      0.39138  eV     1   --> G_2            
     e( 67 - 67) =      0.65540  eV     1   --> G_2            
     e( 68 - 68) =      0.65759  eV     1   --> G_2            
     e( 69 - 69) =      0.71100  eV     1   --> G_2            
     e( 70 - 70) =      0.72056  eV     1   --> G_2            
     e( 71 - 71) =      0.89610  eV     1   --> G_2            
     e( 72 - 72) =      0.90768  eV     1   --> G_2            
     e( 73 - 73) =      1.09488  eV     1   --> G_2            
     e( 74 - 74) =      1.09796  eV     1   --> G_2            
     e( 75 - 75) =      1.45975  eV     1   --> G_2            
     e( 76 - 76) =      1.46195  eV     1   --> G_2            
     e( 77 - 77) =      1.64789  eV     1   --> G_2            
     e( 78 - 78) =      1.64975  eV     1   --> G_2            
     e( 79 - 79) =      2.37291  eV     1   --> G_2            
     e( 80 - 80) =      2.37449  eV     1   --> G_2            
     e( 81 - 81) =      2.95544  eV     1   --> G_2            
     e( 82 - 82) =      2.95689  eV     1   --> G_2            
     e( 83 - 83) =      3.23827  eV     1   --> G_2            
     e( 84 - 84) =      3.24176  eV     1   --> G_2            
     e( 85 - 85) =      3.52888  eV     1   --> G_2            
     e( 86 - 86) =      3.53244  eV     1   --> G_2            
     e( 87 - 87) =      4.29437  eV     1   --> G_2            
     e( 88 - 88) =      4.29517  eV     1   --> G_2            
     e( 89 - 89) =      4.35930  eV     1   --> G_2            
     e( 90 - 90) =      4.36033  eV     1   --> G_2            
     e( 91 - 92) =      6.32528  eV     2   -->   2 G_2            
     e( 93 - 94) =      6.52363  eV     2   -->   2 G_2            
     e( 95 - 96) =      7.07705  eV     2   -->   2 G_2            
     e( 97 - 98) =      7.75213  eV     2   -->   2 G_2            
     e( 99 - 99) =      7.85829  eV     1   --> G_2            
     e(100 -100) =      7.85860  eV     1   --> G_2            

 **************************************************************************

 **************************************************************************

                    xk=(   0.02143,   0.01237,   0.00000  )

     Band symmetry, C_1 (1)     double point group:

     e(  1 -  2) =    -35.36894  eV     2   -->   2 G_2            
     e(  3 -  4) =    -35.36387  eV     2   -->   2 G_2            
     e(  5 -  6) =    -35.34405  eV     2   -->   2 G_2            
     e(  7 -  8) =    -35.33904  eV     2   -->   2 G_2            
     e(  9 - 10) =    -35.26213  eV     2   -->   2 G_2            
     e( 11 - 12) =    -35.22592  eV     2   -->   2 G_2            
     e( 13 - 14) =    -33.90897  eV     2   -->   2 G_2            
     e( 15 - 16) =    -33.90390  eV     2   -->   2 G_2            
     e( 17 - 18) =    -33.88788  eV     2   -->   2 G_2            
     e( 19 - 20) =    -33.88283  eV     2   -->   2 G_2            
     e( 21 - 22) =    -33.87657  eV     2   -->   2 G_2            
     e( 23 - 24) =    -33.87158  eV     2   -->   2 G_2            
     e( 25 - 26) =    -33.79958  eV     2   -->   2 G_2            
     e( 27 - 28) =    -33.78417  eV     2   -->   2 G_2            
     e( 29 - 30) =    -33.75263  eV     2   -->   2 G_2            
     e( 31 - 32) =    -27.98457  eV     2   -->   2 G_2            
     e( 33 - 34) =    -27.98033  eV     2   -->   2 G_2            
     e( 35 - 36) =    -27.97564  eV     2   -->   2 G_2            
     e( 37 - 38) =    -27.97148  eV     2   -->   2 G_2            
     e( 39 - 40) =    -26.74561  eV     2   -->   2 G_2            
     e( 41 - 42) =    -26.74136  eV     2   -->   2 G_2            
     e( 43 - 44) =    -26.73547  eV     2   -->   2 G_2            
     e( 45 - 46) =    -26.73429  eV     2   -->   2 G_2            
     e( 47 - 48) =    -26.73129  eV     2   -->   2 G_2            
     e( 49 - 50) =    -26.73014  eV     2   -->   2 G_2            
     e( 51 - 52) =    -10.57125  eV     2   -->   2 G_2            
     e( 53 - 54) =    -10.03457  eV     2   -->   2 G_2            
     e( 55 - 56) =     -8.94067  eV     2   -->   2 G_2            
     e( 57 - 58) =     -6.16141  eV     2   -->   2 G_2            
     e( 59 - 60) =     -4.70959  eV     2   -->   2 G_2            
     e( 61 - 61) =     -0.39839  eV     1   --> G_2            
     e( 62 - 62) =     -0.39822  eV     1   --> G_2            
     e( 63 - 63) =      0.11053  eV     1   --> G_2            
     e( 64 - 64) =      0.11232  eV     1   --> G_2            
     e( 65 - 65) =      0.38984  eV     1   --> G_2            
     e( 66 - 66) =      0.39273  eV     1   --> G_2            
     e( 67 - 67) =      0.63920  eV     1   --> G_2            
     e( 68 - 68) =      0.64318  eV     1   --> G_2            
     e( 69 - 69) =      0.67199  eV     1   --> G_2            
     e( 70 - 70) =      0.68148  eV     1   --> G_2            
     e( 71 - 71) =      0.90850  eV     1   --> G_2            
     e( 72 - 72) =      0.92150  eV     1   --> G_2            
     e( 73 - 73) =      1.11223  eV     1   --> G_2            
     e( 74 - 74) =      1.11641  eV     1   --> G_2            
     e( 75 - 75) =      1.44138  eV     1   --> G_2            
     e( 76 - 76) =      1.44457  eV     1   --> G_2            
     e( 77 - 77) =      1.66834  eV     1   --> G_2            
     e( 78 - 78) =      1.67094  eV     1   --> G_2            
     e( 79 - 79) =      2.39668  eV     1   --> G_2            
     e( 80 - 80) =      2.39893  eV     1   --> G_2            
     e( 81 - 81) =      2.95955  eV     1   --> G_2            
     e( 82 - 82) =      2.96157  eV     1   --> G_2            
     e( 83 - 83) =      3.21663  eV     1   --> G_2            
     e( 84 - 84) =      3.22101  eV     1   --> G_2            
     e( 85 - 85) =      3.55054  eV     1   --> G_2            
     e( 86 - 86) =      3.55503  eV     1   --> G_2            
     e( 87 - 87) =      4.30780  eV     1   --> G_2            
     e( 88 - 88) =      4.30886  eV     1   --> G_2            
     e( 89 - 89) =      4.35693  eV     1   --> G_2            
     e( 90 - 90) =      4.35854  eV     1   --> G_2            
     e( 91 - 92) =      6.32948  eV     2   -->   2 G_2            
     e( 93 - 94) =      6.52472  eV     2   -->   2 G_2            
     e( 95 - 96) =      7.07832  eV     2   -->   2 G_2            
     e( 97 - 97) =      7.75174  eV     1   --> G_2            
     e( 98 - 98) =      7.75185  eV     1   --> G_2            
     e( 99 - 99) =      7.84055  eV     1   --> G_2            
     e(100 -100) =      7.84087  eV     1   --> G_2            

 **************************************************************************

 **************************************************************************

                    xk=(   0.02857,   0.01649,   0.00000  )

     Band symmetry, C_1 (1)     double point group:

     e(  1 -  2) =    -35.36894  eV     2   -->   2 G_2            
     e(  3 -  4) =    -35.36387  eV     2   -->   2 G_2            
     e(  5 -  6) =    -35.34405  eV     2   -->   2 G_2            
     e(  7 -  8) =    -35.33904  eV     2   -->   2 G_2            
     e(  9 - 10) =    -35.26213  eV     2   -->   2 G_2            
     e( 11 - 12) =    -35.22592  eV     2   -->   2 G_2            
     e( 13 - 14) =    -33.90897  eV     2   -->   2 G_2            
     e( 15 - 16) =    -33.90390  eV     2   -->   2 G_2            
     e( 17 - 18) =    -33.88788  eV     2   -->   2 G_2            
     e( 19 - 20) =    -33.88283  eV     2   -->   2 G_2            
     e( 21 - 22) =    -33.87657  eV     2   -->   2 G_2            
     e( 23 - 24) =    -33.87158  eV     2   -->   2 G_2            
     e( 25 - 26) =    -33.79958  eV     2   -->   2 G_2            
     e( 27 - 28) =    -33.78417  eV     2   -->   2 G_2            
     e( 29 - 30) =    -33.75263  eV     2   -->   2 G_2            
     e( 31 - 32) =    -27.98456  eV     2   -->   2 G_2            
     e( 33 - 34) =    -27.98033  eV     2   -->   2 G_2            
     e( 35 - 36) =    -27.97565  eV     2   -->   2 G_2            
     e( 37 - 38) =    -27.97149  eV     2   -->   2 G_2            
     e( 39 - 40) =    -26.74560  eV     2   -->   2 G_2            
     e( 41 - 42) =    -26.74136  eV     2   -->   2 G_2            
     e( 43 - 44) =    -26.73548  eV     2   -->   2 G_2            
     e( 45 - 46) =    -26.73429  eV     2   -->   2 G_2            
     e( 47 - 48) =    -26.73129  eV     2   -->   2 G_2            
     e( 49 - 50) =    -26.73014  eV     2   -->   2 G_2            
     e( 51 - 52) =    -10.56808  eV     2   -->   2 G_2            
     e( 53 - 54) =    -10.03162  eV     2   -->   2 G_2            
     e( 55 - 56) =     -8.93882  eV     2   -->   2 G_2            
     e( 57 - 58) =     -6.16158  eV     2   -->   2 G_2            
     e( 59 - 60) =     -4.71463  eV     2   -->   2 G_2            
     e( 61 - 61) =     -0.40264  eV     1   --> G_2            
     e( 62 - 62) =     -0.40241  eV     1   --> G_2            
     e( 63 - 63) =      0.07623  eV     1   --> G_2            
     e( 64 - 64) =      0.07831  eV     1   --> G_2            
     e( 65 - 65) =      0.38781  eV     1   --> G_2            
     e( 66 - 66) =      0.39133  eV     1   --> G_2            
     e( 67 - 67) =      0.60257  eV     1   --> G_2            
     e( 68 - 68) =      0.61039  eV     1   --> G_2            
     e( 69 - 69) =      0.64650  eV     1   --> G_2            
     e( 70 - 70) =      0.65342  eV     1   --> G_2            
     e( 71 - 71) =      0.91564  eV     1   --> G_2            
     e( 72 - 72) =      0.92909  eV     1   --> G_2            
     e( 73 - 73) =      1.13292  eV     1   --> G_2            
     e( 74 - 74) =      1.13803  eV     1   --> G_2            
     e( 75 - 75) =      1.42051  eV     1   --> G_2            
     e( 76 - 76) =      1.42465  eV     1   --> G_2            
     e( 77 - 77) =      1.69575  eV     1   --> G_2            
     e( 78 - 78) =      1.69885  eV     1   --> G_2            
     e( 79 - 79) =      2.42586  eV     1   --> G_2            
     e( 80 - 80) =      2.42863  eV     1   --> G_2            
     e( 81 - 81) =      2.96555  eV     1   --> G_2            
     e( 82 - 82) =      2.96788  eV     1   --> G_2            
     e( 83 - 83) =      3.19475  eV     1   --> G_2            
     e( 84 - 84) =      3.19951  eV     1   --> G_2            
     e( 85 - 85) =      3.57510  eV     1   --> G_2            
     e( 86 - 86) =      3.58011  eV     1   --> G_2            
     e( 87 - 87) =      4.32403  eV     1   --> G_2            
     e( 88 - 88) =      4.32515  eV     1   --> G_2            
     e( 89 - 89) =      4.35621  eV     1   --> G_2            
     e( 90 - 90) =      4.35855  eV     1   --> G_2            
     e( 91 - 92) =      6.33532  eV     2   -->   2 G_2            
     e( 93 - 94) =      6.52623  eV     2   -->   2 G_2            
     e( 95 - 96) =      7.07996  eV     2   -->   2 G_2            
     e( 97 - 97) =      7.74996  eV     1   --> G_2            
     e( 98 - 98) =      7.75011  eV     1   --> G_2            
     e( 99 - 99) =      7.81592  eV     1   --> G_2            
     e(100 -100) =      7.81626  eV     1   --> G_2            

 **************************************************************************

 **************************************************************************

                    xk=(   0.03571,   0.02061,   0.00000  )

     Band symmetry, C_1 (1)     double point group:

     e(  1 -  2) =    -35.36894  eV     2   -->   2 G_2            
     e(  3 -  4) =    -35.36387  eV     2   -->   2 G_2            
     e(  5 -  6) =    -35.34405  eV     2   -->   2 G_2            
     e(  7 -  8) =    -35.33904  eV     2   -->   2 G_2            
     e(  9 - 10) =    -35.26213  eV     2   -->   2 G_2            
     e( 11 - 12) =    -35.22591  eV     2   -->   2 G_2            
     e( 13 - 14) =    -33.90897  eV     2   -->   2 G_2            
     e( 15 - 16) =    -33.90389  eV     2   -->   2 G_2            
     e( 17 - 18) =    -33.88788  eV     2   -->   2 G_2            
     e( 19 - 20) =    -33.88283  eV     2   -->   2 G_2            
     e( 21 - 22) =    -33.87657  eV     2   -->   2 G_2            
     e( 23 - 24) =    -33.87158  eV     2   -->   2 G_2            
     e( 25 - 26) =    -33.79958  eV     2   -->   2 G_2            
     e( 27 - 28) =    -33.78417  eV     2   -->   2 G_2            
     e( 29 - 30) =    -33.75262  eV     2   -->   2 G_2            
     e( 31 - 32) =    -27.98456  eV     2   -->   2 G_2            
     e( 33 - 34) =    -27.98033  eV     2   -->   2 G_2            
     e( 35 - 36) =    -27.97565  eV     2   -->   2 G_2            
     e( 37 - 38) =    -27.97149  eV     2   -->   2 G_2            
     e( 39 - 40) =    -26.74559  eV     2   -->   2 G_2            
     e( 41 - 42) =    -26.74135  eV     2   -->   2 G_2            
     e( 43 - 44) =    -26.73548  eV     2   -->   2 G_2            
     e( 45 - 46) =    -26.73430  eV     2   -->   2 G_2            
     e( 47 - 48) =    -26.73130  eV     2   -->   2 G_2            
     e( 49 - 50) =    -26.73014  eV     2   -->   2 G_2            
     e( 51 - 52) =    -10.56404  eV     2   -->   2 G_2            
     e( 53 - 54) =    -10.02785  eV     2   -->   2 G_2            
     e( 55 - 56) =     -8.93644  eV     2   -->   2 G_2            
     e( 57 - 58) =     -6.16184  eV     2   -->   2 G_2            
     e( 59 - 60) =     -4.72116  eV     2   -->   2 G_2            
     e( 61 - 61) =     -0.40827  eV     1   --> G_2            
     e( 62 - 62) =     -0.40797  eV     1   --> G_2            
     e( 63 - 63) =      0.03580  eV     1   --> G_2            
     e( 64 - 64) =      0.03808  eV     1   --> G_2            
     e( 65 - 65) =      0.38175  eV     1   --> G_2            
     e( 66 - 66) =      0.38572  eV     1   --> G_2            
     e( 67 - 67) =      0.55330  eV     1   --> G_2            
     e( 68 - 68) =      0.56251  eV     1   --> G_2            
     e( 69 - 69) =      0.62989  eV     1   --> G_2            
     e( 70 - 70) =      0.63622  eV     1   --> G_2            
     e( 71 - 71) =      0.91690  eV     1   --> G_2            
     e( 72 - 72) =      0.93032  eV     1   --> G_2            
     e( 73 - 73) =      1.15280  eV     1   --> G_2            
     e( 74 - 74) =      1.15878  eV     1   --> G_2            
     e( 75 - 75) =      1.40210  eV     1   --> G_2            
     e( 76 - 76) =      1.40711  eV     1   --> G_2            
     e( 77 - 77) =      1.72822  eV     1   --> G_2            
     e( 78 - 78) =      1.73159  eV     1   --> G_2            
     e( 79 - 79) =      2.45720  eV     1   --> G_2            
     e( 80 - 80) =      2.46034  eV     1   --> G_2            
     e( 81 - 81) =      2.97358  eV     1   --> G_2            
     e( 82 - 82) =      2.97580  eV     1   --> G_2            
     e( 83 - 83) =      3.17654  eV     1   --> G_2            
     e( 84 - 84) =      3.18119  eV     1   --> G_2            
     e( 85 - 85) =      3.60034  eV     1   --> G_2            
     e( 86 - 86) =      3.60558  eV     1   --> G_2            
     e( 87 - 87) =      4.33378  eV     1   --> G_2            
     e( 88 - 88) =      4.33528  eV     1   --> G_2            
     e( 89 - 89) =      4.36614  eV     1   --> G_2            
     e( 90 - 90) =      4.36902  eV     1   --> G_2            
     e( 91 - 92) =      6.34276  eV     2   -->   2 G_2            
     e( 93 - 94) =      6.52816  eV     2   -->   2 G_2            
     e( 95 - 96) =      7.08182  eV     2   -->   2 G_2            
     e( 97 - 97) =      7.74313  eV     1   --> G_2            
     e( 98 - 98) =      7.74333  eV     1   --> G_2            
     e( 99 - 99) =      7.79071  eV     1   --> G_2            
     e(100 -100) =      7.79109  eV     1   --> G_2            

 **************************************************************************

 **************************************************************************

                    xk=(   0.04286,   0.02473,   0.00000  )

     Band symmetry, C_1 (1)     double point group:

     e(  1 -  2) =    -35.36894  eV     2   -->   2 G_2            
     e(  3 -  4) =    -35.36387  eV     2   -->   2 G_2            
     e(  5 -  6) =    -35.34405  eV     2   -->   2 G_2            
     e(  7 -  8) =    -35.33904  eV     2   -->   2 G_2            
     e(  9 - 10) =    -35.26213  eV     2   -->   2 G_2            
     e( 11 - 12) =    -35.22591  eV     2   -->   2 G_2            
     e( 13 - 14) =    -33.90896  eV     2   -->   2 G_2            
     e( 15 - 16) =    -33.90389  eV     2   -->   2 G_2            
     e( 17 - 18) =    -33.88788  eV     2   -->   2 G_2            
     e( 19 - 20) =    -33.88283  eV     2   -->   2 G_2            
     e( 21 - 22) =    -33.87657  eV     2   -->   2 G_2            
     e( 23 - 24) =    -33.87158  eV     2   -->   2 G_2            
     e( 25 - 26) =    -33.79958  eV     2   -->   2 G_2            
     e( 27 - 28) =    -33.78417  eV     2   -->   2 G_2            
     e( 29 - 30) =    -33.75262  eV     2   -->   2 G_2            
     e( 31 - 32) =    -27.98455  eV     2   -->   2 G_2            
     e( 33 - 34) =    -27.98032  eV     2   -->   2 G_2            
     e( 35 - 36) =    -27.97566  eV     2   -->   2 G_2            
     e( 37 - 38) =    -27.97150  eV     2   -->   2 G_2            
     e( 39 - 40) =    -26.74558  eV     2   -->   2 G_2            
     e( 41 - 42) =    -26.74134  eV     2   -->   2 G_2            
     e( 43 - 44) =    -26.73549  eV     2   -->   2 G_2            
     e( 45 - 46) =    -26.73430  eV     2   -->   2 G_2            
     e( 47 - 48) =    -26.73131  eV     2   -->   2 G_2            
     e( 49 - 50) =    -26.73014  eV     2   -->   2 G_2            
     e( 51 - 52) =    -10.55908  eV     2   -->   2 G_2            
     e( 53 - 54) =    -10.02327  eV     2   -->   2 G_2            
     e( 55 - 56) =     -8.93353  eV     2   -->   2 G_2            
     e( 57 - 58) =     -6.16214  eV     2   -->   2 G_2            
     e( 59 - 60) =     -4.72914  eV     2   -->   2 G_2            
     e( 61 - 61) =     -0.41541  eV     1   --> G_2            
     e( 62 - 62) =     -0.41505  eV     1   --> G_2            
     e( 63 - 63) =     -0.00961  eV     1   --> G_2            
     e( 64 - 64) =     -0.00720  eV     1   --> G_2            
     e( 65 - 65) =      0.37062  eV     1   --> G_2            
     e( 66 - 66) =      0.37477  eV     1   --> G_2            
     e( 67 - 67) =      0.50158  eV     1   --> G_2            
     e( 68 - 68) =      0.51090  eV     1   --> G_2            
     e( 69 - 69) =      0.61423  eV     1   --> G_2            
     e( 70 - 70) =      0.62063  eV     1   --> G_2            
     e( 71 - 71) =      0.91211  eV     1   --> G_2            
     e( 72 - 72) =      0.92516  eV     1   --> G_2            
     e( 73 - 73) =      1.16755  eV     1   --> G_2            
     e( 74 - 74) =      1.17418  eV     1   --> G_2            
     e( 75 - 75) =      1.39202  eV     1   --> G_2            
     e( 76 - 76) =      1.39757  eV     1   --> G_2            
     e( 77 - 77) =      1.76351  eV     1   --> G_2            
     e( 78 - 78) =      1.76695  eV     1   --> G_2            
     e( 79 - 79) =      2.48756  eV     1   --> G_2            
     e( 80 - 80) =      2.49087  eV     1   --> G_2            
     e( 81 - 81) =      2.98397  eV     1   --> G_2            
     e( 82 - 82) =      2.98549  eV     1   --> G_2            
     e( 83 - 83) =      3.16519  eV     1   --> G_2            
     e( 84 - 84) =      3.16923  eV     1   --> G_2            
     e( 85 - 85) =      3.62502  eV     1   --> G_2            
     e( 86 - 86) =      3.63031  eV     1   --> G_2            
     e( 87 - 87) =      4.33259  eV     1   --> G_2            
     e( 88 - 88) =      4.33475  eV     1   --> G_2            
     e( 89 - 89) =      4.39117  eV     1   --> G_2            
     e( 90 - 90) =      4.39400  eV     1   --> G_2            
     e( 91 - 91) =      6.35174  eV     1   --> G_2            
     e( 92 - 92) =      6.35184  eV     1   --> G_2            
     e( 93 - 93) =      6.53049  eV     1   --> G_2            
     e( 94 - 94) =      6.53060  eV     1   --> G_2            
     e( 95 - 96) =      7.08371  eV     2   -->   2 G_2            
     e( 97 - 97) =      7.72284  eV     1   --> G_2            
     e( 98 - 98) =      7.72306  eV     1   --> G_2            
     e( 99 - 99) =      7.77549  eV     1   --> G_2            
     e(100 -100) =      7.77586  eV     1   --> G_2            

 **************************************************************************

 **************************************************************************

                    xk=(   0.05000,   0.02886,   0.00000  )

     Band symmetry, C_1 (1)     double point group:

     e(  1 -  2) =    -35.36893  eV     2   -->   2 G_2            
     e(  3 -  4) =    -35.36386  eV     2   -->   2 G_2            
     e(  5 -  6) =    -35.34405  eV     2   -->   2 G_2            
     e(  7 -  8) =    -35.33904  eV     2   -->   2 G_2            
     e(  9 - 10) =    -35.26213  eV     2   -->   2 G_2            
     e( 11 - 12) =    -35.22591  eV     2   -->   2 G_2            
     e( 13 - 14) =    -33.90896  eV     2   -->   2 G_2            
     e( 15 - 16) =    -33.90388  eV     2   -->   2 G_2            
     e( 17 - 18) =    -33.88788  eV     2   -->   2 G_2            
     e( 19 - 20) =    -33.88283  eV     2   -->   2 G_2            
     e( 21 - 22) =    -33.87657  eV     2   -->   2 G_2            
     e( 23 - 24) =    -33.87158  eV     2   -->   2 G_2            
     e( 25 - 26) =    -33.79958  eV     2   -->   2 G_2            
     e( 27 - 28) =    -33.78417  eV     2   -->   2 G_2            
     e( 29 - 30) =    -33.75261  eV     2   -->   2 G_2            
     e( 31 - 32) =    -27.98455  eV     2   -->   2 G_2            
     e( 33 - 34) =    -27.98031  eV     2   -->   2 G_2            
     e( 35 - 36) =    -27.97566  eV     2   -->   2 G_2            
     e( 37 - 38) =    -27.97150  eV     2   -->   2 G_2            
     e( 39 - 40) =    -26.74557  eV     2   -->   2 G_2            
     e( 41 - 42) =    -26.74132  eV     2   -->   2 G_2            
     e( 43 - 44) =    -26.73550  eV     2   -->   2 G_2            
     e( 45 - 46) =    -26.73430  eV     2   -->   2 G_2            
     e( 47 - 48) =    -26.73131  eV     2   -->   2 G_2            
     e( 49 - 50) =    -26.73014  eV     2   -->   2 G_2            
     e( 51 - 52) =    -10.55320  eV     2   -->   2 G_2            
     e( 53 - 54) =    -10.01782  eV     2   -->   2 G_2            
     e( 55 - 56) =     -8.93004  eV     2   -->   2 G_2            
     e( 57 - 58) =     -6.16251  eV     2   -->   2 G_2            
     e( 59 - 60) =     -4.73859  eV     2   -->   2 G_2            
     e( 61 - 61) =     -0.42429  eV     1   --> G_2            
     e( 62 - 62) =     -0.42385  eV     1   --> G_2            
     e( 63 - 63) =     -0.05908  eV     1   --> G_2            
     e( 64 - 64) =     -0.05658  eV     1   --> G_2            
     e( 65 - 65) =      0.35348  eV     1   --> G_2            
     e( 66 - 66) =      0.35743  eV     1   --> G_2            
     e( 67 - 67) =      0.45081  eV     1   --> G_2            
     e( 68 - 68) =      0.45948  eV     1   --> G_2            
     e( 69 - 69) =      0.59814  eV     1   --> G_2            
     e( 70 - 70) =      0.60458  eV     1   --> G_2            
     e( 71 - 71) =      0.90085  eV     1   --> G_2            
     e( 72 - 72) =      0.91324  eV     1   --> G_2            
     e( 73 - 73) =      1.17454  eV     1   --> G_2            
     e( 74 - 74) =      1.18130  eV     1   --> G_2            
     e( 75 - 75) =      1.39484  eV     1   --> G_2            
     e( 76 - 76) =      1.40034  eV     1   --> G_2            
     e( 77 - 77) =      1.79924  eV     1   --> G_2            
     e( 78 - 78) =      1.80258  eV     1   --> G_2            
     e( 79 - 79) =      2.51434  eV     1   --> G_2            
     e( 80 - 80) =      2.51764  eV     1   --> G_2            
     e( 81 - 81) =      2.99696  eV     1   --> G_2            
     e( 82 - 82) =      2.99767  eV     1   --> G_2            
     e( 83 - 83) =      3.16299  eV     1   --> G_2            
     e( 84 - 84) =      3.16600  eV     1   --> G_2            
     e( 85 - 85) =      3.64857  eV     1   --> G_2            
     e( 86 - 86) =      3.65378  eV     1   --> G_2            
     e( 87 - 87) =      4.32814  eV     1   --> G_2            
     e( 88 - 88) =      4.33081  eV     1   --> G_2            
     e( 89 - 89) =      4.42328  eV     1   --> G_2            
     e( 90 - 90) =      4.42607  eV     1   --> G_2            
     e( 91 - 91) =      6.36219  eV     1   --> G_2            
     e( 92 - 92) =      6.36231  eV     1   --> G_2            
     e( 93 - 93) =      6.53321  eV     1   --> G_2            
     e( 94 - 94) =      6.53333  eV     1   --> G_2            
     e( 95 - 96) =      7.08532  eV     2   -->   2 G_2            
     e( 97 - 97) =      7.69013  eV     1   --> G_2            
     e( 98 - 98) =      7.69033  eV     1   --> G_2            
     e( 99 - 99) =      7.77086  eV     1   --> G_2            
     e(100 -100) =      7.77117  eV     1   --> G_2            

 **************************************************************************

 **************************************************************************

                    xk=(   0.05714,   0.03298,   0.00000  )

     Band symmetry, C_1 (1)     double point group:

     e(  1 -  2) =    -35.36893  eV     2   -->   2 G_2            
     e(  3 -  4) =    -35.36386  eV     2   -->   2 G_2            
     e(  5 -  6) =    -35.34405  eV     2   -->   2 G_2            
     e(  7 -  8) =    -35.33904  eV     2   -->   2 G_2            
     e(  9 - 10) =    -35.26213  eV     2   -->   2 G_2            
     e( 11 - 12) =    -35.22590  eV     2   -->   2 G_2            
     e( 13 - 14) =    -33.90895  eV     2   -->   2 G_2            
     e( 15 - 16) =    -33.90388  eV     2   -->   2 G_2            
     e( 17 - 18) =    -33.88788  eV     2   -->   2 G_2            
     e( 19 - 20) =    -33.88283  eV     2   -->   2 G_2            
     e( 21 - 22) =    -33.87657  eV     2   -->   2 G_2            
     e( 23 - 24) =    -33.87157  eV     2   -->   2 G_2            
     e( 25 - 26) =    -33.79957  eV     2   -->   2 G_2            
     e( 27 - 28) =    -33.78418  eV     2   -->   2 G_2            
     e( 29 - 30) =    -33.75261  eV     2   -->   2 G_2            
     e( 31 - 32) =    -27.98454  eV     2   -->   2 G_2            
     e( 33 - 34) =    -27.98031  eV     2   -->   2 G_2            
     e( 35 - 36) =    -27.97567  eV     2   -->   2 G_2            
     e( 37 - 38) =    -27.97151  eV     2   -->   2 G_2            
     e( 39 - 40) =    -26.74555  eV     2   -->   2 G_2            
     e( 41 - 42) =    -26.74131  eV     2   -->   2 G_2            
     e( 43 - 44) =    -26.73551  eV     2   -->   2 G_2            
     e( 45 - 46) =    -26.73430  eV     2   -->   2 G_2            
     e( 47 - 48) =    -26.73132  eV     2   -->   2 G_2            
     e( 49 - 50) =    -26.73014  eV     2   -->   2 G_2            
     e( 51 - 52) =    -10.54644  eV     2   -->   2 G_2            
     e( 53 - 54) =    -10.01156  eV     2   -->   2 G_2            
     e( 55 - 56) =     -8.92608  eV     2   -->   2 G_2            
     e( 57 - 58) =     -6.16299  eV     2   -->   2 G_2            
     e( 59 - 60) =     -4.74953  eV     2   -->   2 G_2            
     e( 61 - 61) =     -0.43519  eV     1   --> G_2            
     e( 62 - 62) =     -0.43466  eV     1   --> G_2            
     e( 63 - 63) =     -0.11180  eV     1   --> G_2            
     e( 64 - 64) =     -0.10920  eV     1   --> G_2            
     e( 65 - 65) =      0.32862  eV     1   --> G_2            
     e( 66 - 66) =      0.33223  eV     1   --> G_2            
     e( 67 - 67) =      0.40409  eV     1   --> G_2            
     e( 68 - 68) =      0.41104  eV     1   --> G_2            
     e( 69 - 69) =      0.58115  eV     1   --> G_2            
     e( 70 - 70) =      0.58749  eV     1   --> G_2            
     e( 71 - 71) =      0.88275  eV     1   --> G_2            
     e( 72 - 72) =      0.89418  eV     1   --> G_2            
     e( 73 - 73) =      1.17490  eV     1   --> G_2            
     e( 74 - 74) =      1.18129  eV     1   --> G_2            
     e( 75 - 75) =      1.41079  eV     1   --> G_2            
     e( 76 - 76) =      1.41577  eV     1   --> G_2            
     e( 77 - 77) =      1.83293  eV     1   --> G_2            
     e( 78 - 78) =      1.83606  eV     1   --> G_2            
     e( 79 - 79) =      2.53615  eV     1   --> G_2            
     e( 80 - 80) =      2.53927  eV     1   --> G_2            
     e( 81 - 81) =      3.01184  eV     1   --> G_2            
     e( 82 - 82) =      3.01403  eV     1   --> G_2            
     e( 83 - 83) =      3.17091  eV     1   --> G_2            
     e( 84 - 84) =      3.17304  eV     1   --> G_2            
     e( 85 - 85) =      3.67088  eV     1   --> G_2            
     e( 86 - 86) =      3.67589  eV     1   --> G_2            
     e( 87 - 87) =      4.32331  eV     1   --> G_2            
     e( 88 - 88) =      4.32640  eV     1   --> G_2            
     e( 89 - 89) =      4.45930  eV     1   --> G_2            
     e( 90 - 90) =      4.46207  eV     1   --> G_2            
     e( 91 - 91) =      6.37404  eV     1   --> G_2            
     e( 92 - 92) =      6.37418  eV     1   --> G_2            
     e( 93 - 93) =      6.53626  eV     1   --> G_2            
     e( 94 - 94) =      6.53641  eV     1   --> G_2            
     e( 95 - 96) =      7.08630  eV     2   -->   2 G_2            
     e( 97 - 97) =      7.65313  eV     1   --> G_2            
     e( 98 - 98) =      7.65333  eV     1   --> G_2            
     e( 99 - 99) =      7.77002  eV     1   --> G_2            
     e(100 -100) =      7.77029  eV     1   --> G_2            

 **************************************************************************

 **************************************************************************

                    xk=(   0.06429,   0.03710,   0.00000  )

     Band symmetry, C_1 (1)     double point group:

     e(  1 -  2) =    -35.36892  eV     2   -->   2 G_2            
     e(  3 -  4) =    -35.36386  eV     2   -->   2 G_2            
     e(  5 -  6) =    -35.34405  eV     2   -->   2 G_2            
     e(  7 -  8) =    -35.33904  eV     2   -->   2 G_2            
     e(  9 - 10) =    -35.26213  eV     2   -->   2 G_2            
     e( 11 - 12) =    -35.22590  eV     2   -->   2 G_2            
     e( 13 - 14) =    -33.90895  eV     2   -->   2 G_2            
     e( 15 - 16) =    -33.90387  eV     2   -->   2 G_2            
     e( 17 - 18) =    -33.88788  eV     2   -->   2 G_2            
     e( 19 - 20) =    -33.88283  eV     2   -->   2 G_2            
     e( 21 - 22) =    -33.87656  eV     2   -->   2 G_2            
     e( 23 - 24) =    -33.87157  eV     2   -->   2 G_2            
     e( 25 - 26) =    -33.79957  eV     2   -->   2 G_2            
     e( 27 - 28) =    -33.78418  eV     2   -->   2 G_2            
     e( 29 - 30) =    -33.75260  eV     2   -->   2 G_2            
     e( 31 - 32) =    -27.98453  eV     2   -->   2 G_2            
     e( 33 - 34) =    -27.98030  eV     2   -->   2 G_2            
     e( 35 - 36) =    -27.97567  eV     2   -->   2 G_2            
     e( 37 - 38) =    -27.97151  eV     2   -->   2 G_2            
     e( 39 - 40) =    -26.74554  eV     2   -->   2 G_2            
     e( 41 - 42) =    -26.74129  eV     2   -->   2 G_2            
     e( 43 - 44) =    -26.73552  eV     2   -->   2 G_2            
     e( 45 - 46) =    -26.73430  eV     2   -->   2 G_2            
     e( 47 - 48) =    -26.73133  eV     2   -->   2 G_2            
     e( 49 - 50) =    -26.73014  eV     2   -->   2 G_2            
     e( 51 - 52) =    -10.53879  eV     2   -->   2 G_2            
     e( 53 - 54) =    -10.00450  eV     2   -->   2 G_2            
     e( 55 - 56) =     -8.92165  eV     2   -->   2 G_2            
     e( 57 - 58) =     -6.16358  eV     2   -->   2 G_2            
     e( 59 - 60) =     -4.76191  eV     2   -->   2 G_2            
     e( 61 - 61) =     -0.44859  eV     1   --> G_2            
     e( 62 - 62) =     -0.44794  eV     1   --> G_2            
     e( 63 - 63) =     -0.16685  eV     1   --> G_2            
     e( 64 - 64) =     -0.16414  eV     1   --> G_2            
     e( 65 - 65) =      0.29323  eV     1   --> G_2            
     e( 66 - 66) =      0.29807  eV     1   --> G_2            
     e( 67 - 67) =      0.36429  eV     1   --> G_2            
     e( 68 - 68) =      0.36885  eV     1   --> G_2            
     e( 69 - 69) =      0.56277  eV     1   --> G_2            
     e( 70 - 70) =      0.56885  eV     1   --> G_2            
     e( 71 - 71) =      0.85810  eV     1   --> G_2            
     e( 72 - 72) =      0.86827  eV     1   --> G_2            
     e( 73 - 73) =      1.17241  eV     1   --> G_2            
     e( 74 - 74) =      1.17822  eV     1   --> G_2            
     e( 75 - 75) =      1.43631  eV     1   --> G_2            
     e( 76 - 76) =      1.44072  eV     1   --> G_2            
     e( 77 - 77) =      1.86206  eV     1   --> G_2            
     e( 78 - 78) =      1.86492  eV     1   --> G_2            
     e( 79 - 79) =      2.55332  eV     1   --> G_2            
     e( 80 - 80) =      2.55612  eV     1   --> G_2            
     e( 81 - 81) =      3.02970  eV     1   --> G_2            
     e( 82 - 82) =      3.03380  eV     1   --> G_2            
     e( 83 - 83) =      3.18849  eV     1   --> G_2            
     e( 84 - 84) =      3.19087  eV     1   --> G_2            
     e( 85 - 85) =      3.69213  eV     1   --> G_2            
     e( 86 - 86) =      3.69685  eV     1   --> G_2            
     e( 87 - 87) =      4.31915  eV     1   --> G_2            
     e( 88 - 88) =      4.32259  eV     1   --> G_2            
     e( 89 - 89) =      4.49796  eV     1   --> G_2            
     e( 90 - 90) =      4.50067  eV     1   --> G_2            
     e( 91 - 91) =      6.38720  eV     1   --> G_2            
     e( 92 - 92) =      6.38735  eV     1   --> G_2            
     e( 93 - 93) =      6.53963  eV     1   --> G_2            
     e( 94 - 94) =      6.53979  eV     1   --> G_2            
     e( 95 - 96) =      7.08619  eV     2   -->   2 G_2            
     e( 97 - 97) =      7.61573  eV     1   --> G_2            
     e( 98 - 98) =      7.61592  eV     1   --> G_2            
     e( 99 - 99) =      7.77039  eV     1   --> G_2            
     e(100 -100) =      7.77063  eV     1   --> G_2            

 **************************************************************************

 **************************************************************************

                    xk=(   0.07143,   0.04122,   0.00000  )

     Band symmetry, C_1 (1)     double point group:

     e(  1 -  2) =    -35.36892  eV     2   -->   2 G_2            
     e(  3 -  4) =    -35.36385  eV     2   -->   2 G_2            
     e(  5 -  6) =    -35.34405  eV     2   -->   2 G_2            
     e(  7 -  8) =    -35.33904  eV     2   -->   2 G_2            
     e(  9 - 10) =    -35.26213  eV     2   -->   2 G_2            
     e( 11 - 12) =    -35.22590  eV     2   -->   2 G_2            
     e( 13 - 14) =    -33.90894  eV     2   -->   2 G_2            
     e( 15 - 16) =    -33.90386  eV     2   -->   2 G_2            
     e( 17 - 18) =    -33.88789  eV     2   -->   2 G_2            
     e( 19 - 20) =    -33.88283  eV     2   -->   2 G_2            
     e( 21 - 22) =    -33.87656  eV     2   -->   2 G_2            
     e( 23 - 24) =    -33.87157  eV     2   -->   2 G_2            
     e( 25 - 26) =    -33.79957  eV     2   -->   2 G_2            
     e( 27 - 28) =    -33.78418  eV     2   -->   2 G_2            
     e( 29 - 30) =    -33.75259  eV     2   -->   2 G_2            
     e( 31 - 32) =    -27.98452  eV     2   -->   2 G_2            
     e( 33 - 34) =    -27.98029  eV     2   -->   2 G_2            
     e( 35 - 36) =    -27.97568  eV     2   -->   2 G_2            
     e( 37 - 38) =    -27.97152  eV     2   -->   2 G_2            
     e( 39 - 40) =    -26.74552  eV     2   -->   2 G_2            
     e( 41 - 42) =    -26.74127  eV     2   -->   2 G_2            
     e( 43 - 44) =    -26.73553  eV     2   -->   2 G_2            
     e( 45 - 46) =    -26.73430  eV     2   -->   2 G_2            
     e( 47 - 48) =    -26.73135  eV     2   -->   2 G_2            
     e( 49 - 50) =    -26.73014  eV     2   -->   2 G_2            
     e( 51 - 52) =    -10.53025  eV     2   -->   2 G_2            
     e( 53 - 54) =     -9.99663  eV     2   -->   2 G_2            
     e( 55 - 56) =     -8.91670  eV     2   -->   2 G_2            
     e( 57 - 58) =     -6.16430  eV     2   -->   2 G_2            
     e( 59 - 60) =     -4.77581  eV     2   -->   2 G_2            
     e( 61 - 61) =     -0.46521  eV     1   --> G_2            
     e( 62 - 62) =     -0.46441  eV     1   --> G_2            
     e( 63 - 63) =     -0.22312  eV     1   --> G_2            
     e( 64 - 64) =     -0.22026  eV     1   --> G_2            
     e( 65 - 65) =      0.24840  eV     1   --> G_2            
     e( 66 - 66) =      0.25536  eV     1   --> G_2            
     e( 67 - 67) =      0.33054  eV     1   --> G_2            
     e( 68 - 68) =      0.33420  eV     1   --> G_2            
     e( 69 - 69) =      0.54245  eV     1   --> G_2            
     e( 70 - 70) =      0.54815  eV     1   --> G_2            
     e( 71 - 71) =      0.82807  eV     1   --> G_2            
     e( 72 - 72) =      0.83675  eV     1   --> G_2            
     e( 73 - 73) =      1.17023  eV     1   --> G_2            
     e( 74 - 74) =      1.17540  eV     1   --> G_2            
     e( 75 - 75) =      1.46754  eV     1   --> G_2            
     e( 76 - 76) =      1.47154  eV     1   --> G_2            
     e( 77 - 77) =      1.88419  eV     1   --> G_2            
     e( 78 - 78) =      1.88680  eV     1   --> G_2            
     e( 79 - 79) =      2.56783  eV     1   --> G_2            
     e( 80 - 80) =      2.57020  eV     1   --> G_2            
     e( 81 - 81) =      3.05065  eV     1   --> G_2            
     e( 82 - 82) =      3.05620  eV     1   --> G_2            
     e( 83 - 83) =      3.21493  eV     1   --> G_2            
     e( 84 - 84) =      3.21813  eV     1   --> G_2            
     e( 85 - 85) =      3.71276  eV     1   --> G_2            
     e( 86 - 86) =      3.71712  eV     1   --> G_2            
     e( 87 - 87) =      4.31638  eV     1   --> G_2            
     e( 88 - 88) =      4.32010  eV     1   --> G_2            
     e( 89 - 89) =      4.53834  eV     1   --> G_2            
     e( 90 - 90) =      4.54096  eV     1   --> G_2            
     e( 91 - 91) =      6.40155  eV     1   --> G_2            
     e( 92 - 92) =      6.40172  eV     1   --> G_2            
     e( 93 - 93) =      6.54324  eV     1   --> G_2            
     e( 94 - 94) =      6.54343  eV     1   --> G_2            
     e( 95 - 95) =      7.08441  eV     1   --> G_2            
     e( 96 - 96) =      7.08452  eV     1   --> G_2            
     e( 97 - 97) =      7.57992  eV     1   --> G_2            
     e( 98 - 98) =      7.58012  eV     1   --> G_2            
     e( 99 - 99) =      7.77122  eV     1   --> G_2            
     e(100 -100) =      7.77144  eV     1   --> G_2            

 **************************************************************************

 **************************************************************************

                    xk=(   0.07857,   0.04535,   0.00000  )

     Band symmetry, C_1 (1)     double point group:

     e(  1 -  2) =    -35.36891  eV     2   -->   2 G_2            
     e(  3 -  4) =    -35.36385  eV     2   -->   2 G_2            
     e(  5 -  6) =    -35.34405  eV     2   -->   2 G_2            
     e(  7 -  8) =    -35.33904  eV     2   -->   2 G_2            
     e(  9 - 10) =    -35.26213  eV     2   -->   2 G_2            
     e( 11 - 12) =    -35.22589  eV     2   -->   2 G_2            
     e( 13 - 14) =    -33.90893  eV     2   -->   2 G_2            
     e( 15 - 16) =    -33.90386  eV     2   -->   2 G_2            
     e( 17 - 18) =    -33.88789  eV     2   -->   2 G_2            
     e( 19 - 20) =    -33.88283  eV     2   -->   2 G_2            
     e( 21 - 22) =    -33.87656  eV     2   -->   2 G_2            
     e( 23 - 24) =    -33.87157  eV     2   -->   2 G_2            
     e( 25 - 26) =    -33.79956  eV     2   -->   2 G_2            
     e( 27 - 28) =    -33.78418  eV     2   -->   2 G_2            
     e( 29 - 30) =    -33.75258  eV     2   -->   2 G_2            
     e( 31 - 32) =    -27.98451  eV     2   -->   2 G_2            
     e( 33 - 34) =    -27.98028  eV     2   -->   2 G_2            
     e( 35 - 36) =    -27.97568  eV     2   -->   2 G_2            
     e( 37 - 38) =    -27.97152  eV     2   -->   2 G_2            
     e( 39 - 40) =    -26.74550  eV     2   -->   2 G_2            
     e( 41 - 42) =    -26.74125  eV     2   -->   2 G_2            
     e( 43 - 44) =    -26.73555  eV     2   -->   2 G_2            
     e( 45 - 46) =    -26.73429  eV     2   -->   2 G_2            
     e( 47 - 48) =    -26.73136  eV     2   -->   2 G_2            
     e( 49 - 50) =    -26.73013  eV     2   -->   2 G_2            
     e( 51 - 52) =    -10.52082  eV     2   -->   2 G_2            
     e( 53 - 54) =     -9.98791  eV     2   -->   2 G_2            
     e( 55 - 56) =     -8.91124  eV     2   -->   2 G_2            
     e( 57 - 58) =     -6.16517  eV     2   -->   2 G_2            
     e( 59 - 60) =     -4.79112  eV     2   -->   2 G_2            
     e( 61 - 61) =     -0.48626  eV     1   --> G_2            
     e( 62 - 62) =     -0.48527  eV     1   --> G_2            
     e( 63 - 63) =     -0.27902  eV     1   --> G_2            
     e( 64 - 64) =     -0.27598  eV     1   --> G_2            
     e( 65 - 65) =      0.19871  eV     1   --> G_2            
     e( 66 - 66) =      0.20700  eV     1   --> G_2            
     e( 67 - 67) =      0.30004  eV     1   --> G_2            
     e( 68 - 68) =      0.30400  eV     1   --> G_2            
     e( 69 - 69) =      0.51967  eV     1   --> G_2            
     e( 70 - 70) =      0.52490  eV     1   --> G_2            
     e( 71 - 71) =      0.79450  eV     1   --> G_2            
     e( 72 - 72) =      0.80155  eV     1   --> G_2            
     e( 73 - 73) =      1.16968  eV     1   --> G_2            
     e( 74 - 74) =      1.17422  eV     1   --> G_2            
     e( 75 - 75) =      1.50182  eV     1   --> G_2            
     e( 76 - 76) =      1.50558  eV     1   --> G_2            
     e( 77 - 77) =      1.89725  eV     1   --> G_2            
     e( 78 - 78) =      1.89969  eV     1   --> G_2            
     e( 79 - 79) =      2.58247  eV     1   --> G_2            
     e( 80 - 80) =      2.58436  eV     1   --> G_2            
     e( 81 - 81) =      3.07427  eV     1   --> G_2            
     e( 82 - 82) =      3.08056  eV     1   --> G_2            
     e( 83 - 83) =      3.24857  eV     1   --> G_2            
     e( 84 - 84) =      3.25237  eV     1   --> G_2            
     e( 85 - 85) =      3.73347  eV     1   --> G_2            
     e( 86 - 86) =      3.73737  eV     1   --> G_2            
     e( 87 - 87) =      4.31565  eV     1   --> G_2            
     e( 88 - 88) =      4.31955  eV     1   --> G_2            
     e( 89 - 89) =      4.57967  eV     1   --> G_2            
     e( 90 - 90) =      4.58217  eV     1   --> G_2            
     e( 91 - 91) =      6.41697  eV     1   --> G_2            
     e( 92 - 92) =      6.41716  eV     1   --> G_2            
     e( 93 - 93) =      6.54703  eV     1   --> G_2            
     e( 94 - 94) =      6.54724  eV     1   --> G_2            
     e( 95 - 95) =      7.08035  eV     1   --> G_2            
     e( 96 - 96) =      7.08048  eV     1   --> G_2            
     e( 97 - 97) =      7.54723  eV     1   --> G_2            
     e( 98 - 98) =      7.54743  eV     1   --> G_2            
     e( 99 - 99) =      7.77228  eV     1   --> G_2            
     e(100 -100) =      7.77248  eV     1   --> G_2            

 **************************************************************************

 **************************************************************************

                    xk=(   0.08571,   0.04947,   0.00000  )

     Band symmetry, C_1 (1)     double point group:

     e(  1 -  2) =    -35.36891  eV     2   -->   2 G_2            
     e(  3 -  4) =    -35.36384  eV     2   -->   2 G_2            
     e(  5 -  6) =    -35.34405  eV     2   -->   2 G_2            
     e(  7 -  8) =    -35.33904  eV     2   -->   2 G_2            
     e(  9 - 10) =    -35.26213  eV     2   -->   2 G_2            
     e( 11 - 12) =    -35.22589  eV     2   -->   2 G_2            
     e( 13 - 14) =    -33.90892  eV     2   -->   2 G_2            
     e( 15 - 16) =    -33.90385  eV     2   -->   2 G_2            
     e( 17 - 18) =    -33.88789  eV     2   -->   2 G_2            
     e( 19 - 20) =    -33.88283  eV     2   -->   2 G_2            
     e( 21 - 22) =    -33.87656  eV     2   -->   2 G_2            
     e( 23 - 24) =    -33.87156  eV     2   -->   2 G_2            
     e( 25 - 26) =    -33.79956  eV     2   -->   2 G_2            
     e( 27 - 28) =    -33.78418  eV     2   -->   2 G_2            
     e( 29 - 30) =    -33.75258  eV     2   -->   2 G_2            
     e( 31 - 32) =    -27.98450  eV     2   -->   2 G_2            
     e( 33 - 34) =    -27.98027  eV     2   -->   2 G_2            
     e( 35 - 36) =    -27.97569  eV     2   -->   2 G_2            
     e( 37 - 38) =    -27.97153  eV     2   -->   2 G_2            
     e( 39 - 40) =    -26.74547  eV     2   -->   2 G_2            
     e( 41 - 42) =    -26.74123  eV     2   -->   2 G_2            
     e( 43 - 44) =    -26.73556  eV     2   -->   2 G_2            
     e( 45 - 45) =    -26.73429  eV     1   --> G_2            
     e( 46 - 46) =    -26.73419  eV     1   --> G_2            
     e( 47 - 48) =    -26.73137  eV     2   -->   2 G_2            
     e( 49 - 49) =    -26.73013  eV     1   --> G_2            
     e( 50 - 50) =    -26.73003  eV     1   --> G_2            
     e( 51 - 52) =    -10.51051  eV     2   -->   2 G_2            
     e( 53 - 54) =     -9.97837  eV     2   -->   2 G_2            
     e( 55 - 56) =     -8.90530  eV     2   -->   2 G_2            
     e( 57 - 58) =     -6.16624  eV     2   -->   2 G_2            
     e( 59 - 60) =     -4.80798  eV     2   -->   2 G_2            
     e( 61 - 61) =     -0.51358  eV     1   --> G_2            
     e( 62 - 62) =     -0.51238  eV     1   --> G_2            
     e( 63 - 63) =     -0.33230  eV     1   --> G_2            
     e( 64 - 64) =     -0.32904  eV     1   --> G_2            
     e( 65 - 65) =      0.14700  eV     1   --> G_2            
     e( 66 - 66) =      0.15593  eV     1   --> G_2            
     e( 67 - 67) =      0.27109  eV     1   --> G_2            
     e( 68 - 68) =      0.27530  eV     1   --> G_2            
     e( 69 - 69) =      0.49394  eV     1   --> G_2            
     e( 70 - 70) =      0.49868  eV     1   --> G_2            
     e( 71 - 71) =      0.75939  eV     1   --> G_2            
     e( 72 - 72) =      0.76477  eV     1   --> G_2            
     e( 73 - 73) =      1.17082  eV     1   --> G_2            
     e( 74 - 74) =      1.17473  eV     1   --> G_2            
     e( 75 - 75) =      1.53746  eV     1   --> G_2            
     e( 76 - 76) =      1.54108  eV     1   --> G_2            
     e( 77 - 77) =      1.89991  eV     1   --> G_2            
     e( 78 - 78) =      1.90237  eV     1   --> G_2            
     e( 79 - 79) =      2.59975  eV     1   --> G_2            
     e( 80 - 80) =      2.60115  eV     1   --> G_2            
     e( 81 - 81) =      3.10013  eV     1   --> G_2            
     e( 82 - 82) =      3.10652  eV     1   --> G_2            
     e( 83 - 83) =      3.28671  eV     1   --> G_2            
     e( 84 - 84) =      3.29081  eV     1   --> G_2            
     e( 85 - 85) =      3.75517  eV     1   --> G_2            
     e( 86 - 86) =      3.75854  eV     1   --> G_2            
     e( 87 - 87) =      4.31753  eV     1   --> G_2            
     e( 88 - 88) =      4.32152  eV     1   --> G_2            
     e( 89 - 89) =      4.62125  eV     1   --> G_2            
     e( 90 - 90) =      4.62362  eV     1   --> G_2            
     e( 91 - 91) =      6.43329  eV     1   --> G_2            
     e( 92 - 92) =      6.43350  eV     1   --> G_2            
     e( 93 - 93) =      6.55091  eV     1   --> G_2            
     e( 94 - 94) =      6.55114  eV     1   --> G_2            
     e( 95 - 95) =      7.07342  eV     1   --> G_2            
     e( 96 - 96) =      7.07356  eV     1   --> G_2            
     e( 97 - 97) =      7.51894  eV     1   --> G_2            
     e( 98 - 98) =      7.51913  eV     1   --> G_2            
     e( 99 - 99) =      7.77351  eV     1   --> G_2            
     e(100 -100) =      7.77369  eV     1   --> G_2            

 **************************************************************************

 **************************************************************************

                    xk=(   0.09286,   0.05359,   0.00000  )

     Band symmetry, C_1 (1)     double point group:

     e(  1 -  2) =    -35.36890  eV     2   -->   2 G_2            
     e(  3 -  4) =    -35.36383  eV     2   -->   2 G_2            
     e(  5 -  6) =    -35.34405  eV     2   -->   2 G_2            
     e(  7 -  8) =    -35.33904  eV     2   -->   2 G_2            
     e(  9 - 10) =    -35.26213  eV     2   -->   2 G_2            
     e( 11 - 12) =    -35.22588  eV     2   -->   2 G_2            
     e( 13 - 14) =    -33.90891  eV     2   -->   2 G_2            
     e( 15 - 16) =    -33.90384  eV     2   -->   2 G_2            
     e( 17 - 18) =    -33.88789  eV     2   -->   2 G_2            
     e( 19 - 20) =    -33.88283  eV     2   -->   2 G_2            
     e( 21 - 22) =    -33.87655  eV     2   -->   2 G_2            
     e( 23 - 24) =    -33.87156  eV     2   -->   2 G_2            
     e( 25 - 26) =    -33.79956  eV     2   -->   2 G_2            
     e( 27 - 28) =    -33.78418  eV     2   -->   2 G_2            
     e( 29 - 30) =    -33.75257  eV     2   -->   2 G_2            
     e( 31 - 32) =    -27.98449  eV     2   -->   2 G_2            
     e( 33 - 34) =    -27.98026  eV     2   -->   2 G_2            
     e( 35 - 36) =    -27.97570  eV     2   -->   2 G_2            
     e( 37 - 38) =    -27.97153  eV     2   -->   2 G_2            
     e( 39 - 40) =    -26.74545  eV     2   -->   2 G_2            
     e( 41 - 42) =    -26.74121  eV     2   -->   2 G_2            
     e( 43 - 44) =    -26.73558  eV     2   -->   2 G_2            
     e( 45 - 45) =    -26.73429  eV     1   --> G_2            
     e( 46 - 46) =    -26.73418  eV     1   --> G_2            
     e( 47 - 48) =    -26.73139  eV     2   -->   2 G_2            
     e( 49 - 49) =    -26.73013  eV     1   --> G_2            
     e( 50 - 50) =    -26.73002  eV     1   --> G_2            
     e( 51 - 52) =    -10.49931  eV     2   -->   2 G_2            
     e( 53 - 54) =     -9.96805  eV     2   -->   2 G_2            
     e( 55 - 56) =     -8.89889  eV     2   -->   2 G_2            
     e( 57 - 58) =     -6.16751  eV     2   -->   2 G_2            
     e( 59 - 60) =     -4.82624  eV     2   -->   2 G_2            
     e( 61 - 61) =     -0.54945  eV     1   --> G_2            
     e( 62 - 62) =     -0.54813  eV     1   --> G_2            
     e( 63 - 63) =     -0.38019  eV     1   --> G_2            
     e( 64 - 64) =     -0.37679  eV     1   --> G_2            
     e( 65 - 65) =      0.09439  eV     1   --> G_2            
     e( 66 - 66) =      0.10360  eV     1   --> G_2            
     e( 67 - 67) =      0.24284  eV     1   --> G_2            
     e( 68 - 68) =      0.24708  eV     1   --> G_2            
     e( 69 - 69) =      0.46498  eV     1   --> G_2            
     e( 70 - 70) =      0.46930  eV     1   --> G_2            
     e( 71 - 71) =      0.72449  eV     1   --> G_2            
     e( 72 - 72) =      0.72827  eV     1   --> G_2            
     e( 73 - 73) =      1.17315  eV     1   --> G_2            
     e( 74 - 74) =      1.17648  eV     1   --> G_2            
     e( 75 - 75) =      1.57329  eV     1   --> G_2            
     e( 76 - 76) =      1.57684  eV     1   --> G_2            
     e( 77 - 77) =      1.89203  eV     1   --> G_2            
     e( 78 - 78) =      1.89470  eV     1   --> G_2            
     e( 79 - 79) =      2.62109  eV     1   --> G_2            
     e( 80 - 80) =      2.62207  eV     1   --> G_2            
     e( 81 - 81) =      3.12802  eV     1   --> G_2            
     e( 82 - 82) =      3.13408  eV     1   --> G_2            
     e( 83 - 83) =      3.32626  eV     1   --> G_2            
     e( 84 - 84) =      3.33058  eV     1   --> G_2            
     e( 85 - 85) =      3.77898  eV     1   --> G_2            
     e( 86 - 86) =      3.78176  eV     1   --> G_2            
     e( 87 - 87) =      4.32259  eV     1   --> G_2            
     e( 88 - 88) =      4.32655  eV     1   --> G_2            
     e( 89 - 89) =      4.66249  eV     1   --> G_2            
     e( 90 - 90) =      4.66468  eV     1   --> G_2            
     e( 91 - 91) =      6.45028  eV     1   --> G_2            
     e( 92 - 92) =      6.45051  eV     1   --> G_2            
     e( 93 - 93) =      6.55478  eV     1   --> G_2            
     e( 94 - 94) =      6.55504  eV     1   --> G_2            
     e( 95 - 95) =      7.06320  eV     1   --> G_2            
     e( 96 - 96) =      7.06336  eV     1   --> G_2            
     e( 97 - 97) =      7.49607  eV     1   --> G_2            
     e( 98 - 98) =      7.49625  eV     1   --> G_2            
     e( 99 - 99) =      7.77497  eV     1   --> G_2            
     e(100 -100) =      7.77513  eV     1   --> G_2            

 **************************************************************************

 **************************************************************************

                    xk=(   0.10000,   0.05771,   0.00000  )

     Band symmetry, C_1 (1)     double point group:

     e(  1 -  2) =    -35.36890  eV     2   -->   2 G_2            
     e(  3 -  4) =    -35.36383  eV     2   -->   2 G_2            
     e(  5 -  6) =    -35.34405  eV     2   -->   2 G_2            
     e(  7 -  8) =    -35.33904  eV     2   -->   2 G_2            
     e(  9 - 10) =    -35.26213  eV     2   -->   2 G_2            
     e( 11 - 12) =    -35.22588  eV     2   -->   2 G_2            
     e( 13 - 14) =    -33.90890  eV     2   -->   2 G_2            
     e( 15 - 16) =    -33.90382  eV     2   -->   2 G_2            
     e( 17 - 18) =    -33.88789  eV     2   -->   2 G_2            
     e( 19 - 20) =    -33.88283  eV     2   -->   2 G_2            
     e( 21 - 22) =    -33.87655  eV     2   -->   2 G_2            
     e( 23 - 24) =    -33.87156  eV     2   -->   2 G_2            
     e( 25 - 26) =    -33.79955  eV     2   -->   2 G_2            
     e( 27 - 28) =    -33.78418  eV     2   -->   2 G_2            
     e( 29 - 30) =    -33.75255  eV     2   -->   2 G_2            
     e( 31 - 32) =    -27.98448  eV     2   -->   2 G_2            
     e( 33 - 34) =    -27.98025  eV     2   -->   2 G_2            
     e( 35 - 36) =    -27.97570  eV     2   -->   2 G_2            
     e( 37 - 38) =    -27.97154  eV     2   -->   2 G_2            
     e( 39 - 40) =    -26.74543  eV     2   -->   2 G_2            
     e( 41 - 42) =    -26.74118  eV     2   -->   2 G_2            
     e( 43 - 44) =    -26.73559  eV     2   -->   2 G_2            
     e( 45 - 45) =    -26.73428  eV     1   --> G_2            
     e( 46 - 46) =    -26.73417  eV     1   --> G_2            
     e( 47 - 48) =    -26.73140  eV     2   -->   2 G_2            
     e( 49 - 49) =    -26.73012  eV     1   --> G_2            
     e( 50 - 50) =    -26.73000  eV     1   --> G_2            
     e( 51 - 52) =    -10.48720  eV     2   -->   2 G_2            
     e( 53 - 54) =     -9.95693  eV     2   -->   2 G_2            
     e( 55 - 56) =     -8.89200  eV     2   -->   2 G_2            
     e( 57 - 58) =     -6.16896  eV     2   -->   2 G_2            
     e( 59 - 59) =     -4.84594  eV     1   --> G_2            
     e( 60 - 60) =     -4.84584  eV     1   --> G_2            
     e( 61 - 61) =     -0.59530  eV     1   --> G_2            
     e( 62 - 62) =     -0.59400  eV     1   --> G_2            
     e( 63 - 63) =     -0.42079  eV     1   --> G_2            
     e( 64 - 64) =     -0.41740  eV     1   --> G_2            
     e( 65 - 65) =      0.04128  eV     1   --> G_2            
     e( 66 - 66) =      0.05057  eV     1   --> G_2            
     e( 67 - 67) =      0.21494  eV     1   --> G_2            
     e( 68 - 68) =      0.21906  eV     1   --> G_2            
     e( 69 - 69) =      0.43280  eV     1   --> G_2            
     e( 70 - 70) =      0.43683  eV     1   --> G_2            
     e( 71 - 71) =      0.69098  eV     1   --> G_2            
     e( 72 - 72) =      0.69350  eV     1   --> G_2            
     e( 73 - 73) =      1.17610  eV     1   --> G_2            
     e( 74 - 74) =      1.17888  eV     1   --> G_2            
     e( 75 - 75) =      1.60829  eV     1   --> G_2            
     e( 76 - 76) =      1.61179  eV     1   --> G_2            
     e( 77 - 77) =      1.87470  eV     1   --> G_2            
     e( 78 - 78) =      1.87775  eV     1   --> G_2            
     e( 79 - 79) =      2.64656  eV     1   --> G_2            
     e( 80 - 80) =      2.64733  eV     1   --> G_2            
     e( 81 - 81) =      3.15789  eV     1   --> G_2            
     e( 82 - 82) =      3.16338  eV     1   --> G_2            
     e( 83 - 83) =      3.36435  eV     1   --> G_2            
     e( 84 - 84) =      3.36895  eV     1   --> G_2            
     e( 85 - 85) =      3.80604  eV     1   --> G_2            
     e( 86 - 86) =      3.80822  eV     1   --> G_2            
     e( 87 - 87) =      4.33133  eV     1   --> G_2            
     e( 88 - 88) =      4.33512  eV     1   --> G_2            
     e( 89 - 89) =      4.70285  eV     1   --> G_2            
     e( 90 - 90) =      4.70487  eV     1   --> G_2            
     e( 91 - 91) =      6.46758  eV     1   --> G_2            
     e( 92 - 92) =      6.46785  eV     1   --> G_2            
     e( 93 - 93) =      6.55856  eV     1   --> G_2            
     e( 94 - 94) =      6.55885  eV     1   --> G_2            
     e( 95 - 95) =      7.04970  eV     1   --> G_2            
     e( 96 - 96) =      7.04987  eV     1   --> G_2            
     e( 97 - 97) =      7.47930  eV     1   --> G_2            
     e( 98 - 98) =      7.47946  eV     1   --> G_2            
     e( 99 - 99) =      7.77675  eV     1   --> G_2            
     e(100 -100) =      7.77689  eV     1   --> G_2            

 **************************************************************************

 **************************************************************************

                    xk=(   0.10714,   0.06184,   0.00000  )

     Band symmetry, C_1 (1)     double point group:

     e(  1 -  2) =    -35.36889  eV     2   -->   2 G_2            
     e(  3 -  4) =    -35.36382  eV     2   -->   2 G_2            
     e(  5 -  6) =    -35.34405  eV     2   -->   2 G_2            
     e(  7 -  8) =    -35.33903  eV     2   -->   2 G_2            
     e(  9 - 10) =    -35.26213  eV     2   -->   2 G_2            
     e( 11 - 12) =    -35.22587  eV     2   -->   2 G_2            
     e( 13 - 14) =    -33.90889  eV     2   -->   2 G_2            
     e( 15 - 16) =    -33.90381  eV     2   -->   2 G_2            
     e( 17 - 18) =    -33.88789  eV     2   -->   2 G_2            
     e( 19 - 20) =    -33.88283  eV     2   -->   2 G_2            
     e( 21 - 22) =    -33.87654  eV     2   -->   2 G_2            
     e( 23 - 24) =    -33.87155  eV     2   -->   2 G_2            
     e( 25 - 26) =    -33.79955  eV     2   -->   2 G_2            
     e( 27 - 28) =    -33.78418  eV     2   -->   2 G_2            
     e( 29 - 30) =    -33.75254  eV     2   -->   2 G_2            
     e( 31 - 32) =    -27.98447  eV     2   -->   2 G_2            
     e( 33 - 34) =    -27.98024  eV     2   -->   2 G_2            
     e( 35 - 35) =    -27.97571  eV     1   --> G_2            
     e( 36 - 36) =    -27.97560  eV     1   --> G_2            
     e( 37 - 37) =    -27.97155  eV     1   --> G_2            
     e( 38 - 38) =    -27.97144  eV     1   --> G_2            
     e( 39 - 40) =    -26.74540  eV     2   -->   2 G_2            
     e( 41 - 42) =    -26.74116  eV     2   -->   2 G_2            
     e( 43 - 44) =    -26.73561  eV     2   -->   2 G_2            
     e( 45 - 45) =    -26.73428  eV     1   --> G_2            
     e( 46 - 46) =    -26.73416  eV     1   --> G_2            
     e( 47 - 48) =    -26.73142  eV     2   -->   2 G_2            
     e( 49 - 49) =    -26.73012  eV     1   --> G_2            
     e( 50 - 50) =    -26.72999  eV     1   --> G_2            
     e( 51 - 52) =    -10.47422  eV     2   -->   2 G_2            
     e( 53 - 54) =     -9.94500  eV     2   -->   2 G_2            
     e( 55 - 56) =     -8.88466  eV     2   -->   2 G_2            
     e( 57 - 58) =     -6.17068  eV     2   -->   2 G_2            
     e( 59 - 59) =     -4.86708  eV     1   --> G_2            
     e( 60 - 60) =     -4.86698  eV     1   --> G_2            
     e( 61 - 61) =     -0.65028  eV     1   --> G_2            
     e( 62 - 62) =     -0.64910  eV     1   --> G_2            
     e( 63 - 63) =     -0.45461  eV     1   --> G_2            
     e( 64 - 64) =     -0.45134  eV     1   --> G_2            
     e( 65 - 65) =     -0.01225  eV     1   --> G_2            
     e( 66 - 66) =     -0.00299  eV     1   --> G_2            
     e( 67 - 67) =      0.18725  eV     1   --> G_2            
     e( 68 - 68) =      0.19113  eV     1   --> G_2            
     e( 69 - 69) =      0.39781  eV     1   --> G_2            
     e( 70 - 70) =      0.40169  eV     1   --> G_2            
     e( 71 - 71) =      0.65936  eV     1   --> G_2            
     e( 72 - 72) =      0.66148  eV     1   --> G_2            
     e( 73 - 73) =      1.17910  eV     1   --> G_2            
     e( 74 - 74) =      1.18143  eV     1   --> G_2            
     e( 75 - 75) =      1.64109  eV     1   --> G_2            
     e( 76 - 76) =      1.64456  eV     1   --> G_2            
     e( 77 - 77) =      1.85024  eV     1   --> G_2            
     e( 78 - 78) =      1.85376  eV     1   --> G_2            
     e( 79 - 79) =      2.67528  eV     1   --> G_2            
     e( 80 - 80) =      2.67606  eV     1   --> G_2            
     e( 81 - 81) =      3.18974  eV     1   --> G_2            
     e( 82 - 82) =      3.19453  eV     1   --> G_2            
     e( 83 - 83) =      3.39875  eV     1   --> G_2            
     e( 84 - 84) =      3.40372  eV     1   --> G_2            
     e( 85 - 85) =      3.83726  eV     1   --> G_2            
     e( 86 - 86) =      3.83892  eV     1   --> G_2            
     e( 87 - 87) =      4.34417  eV     1   --> G_2            
     e( 88 - 88) =      4.34768  eV     1   --> G_2            
     e( 89 - 89) =      4.74192  eV     1   --> G_2            
     e( 90 - 90) =      4.74373  eV     1   --> G_2            
     e( 91 - 91) =      6.48459  eV     1   --> G_2            
     e( 92 - 92) =      6.48488  eV     1   --> G_2            
     e( 93 - 93) =      6.56235  eV     1   --> G_2            
     e( 94 - 94) =      6.56266  eV     1   --> G_2            
     e( 95 - 95) =      7.03343  eV     1   --> G_2            
     e( 96 - 96) =      7.03362  eV     1   --> G_2            
     e( 97 - 97) =      7.46879  eV     1   --> G_2            
     e( 98 - 98) =      7.46893  eV     1   --> G_2            
     e( 99 - 99) =      7.77901  eV     1   --> G_2            
     e(100 -100) =      7.77914  eV     1   --> G_2            

 **************************************************************************

 **************************************************************************

                    xk=(   0.11429,   0.06596,   0.00000  )

     Band symmetry, C_1 (1)     double point group:

     e(  1 -  2) =    -35.36888  eV     2   -->   2 G_2            
     e(  3 -  4) =    -35.36381  eV     2   -->   2 G_2            
     e(  5 -  6) =    -35.34404  eV     2   -->   2 G_2            
     e(  7 -  8) =    -35.33903  eV     2   -->   2 G_2            
     e(  9 - 10) =    -35.26212  eV     2   -->   2 G_2            
     e( 11 - 12) =    -35.22586  eV     2   -->   2 G_2            
     e( 13 - 14) =    -33.90887  eV     2   -->   2 G_2            
     e( 15 - 16) =    -33.90380  eV     2   -->   2 G_2            
     e( 17 - 18) =    -33.88789  eV     2   -->   2 G_2            
     e( 19 - 20) =    -33.88284  eV     2   -->   2 G_2            
     e( 21 - 22) =    -33.87654  eV     2   -->   2 G_2            
     e( 23 - 24) =    -33.87155  eV     2   -->   2 G_2            
     e( 25 - 26) =    -33.79954  eV     2   -->   2 G_2            
     e( 27 - 28) =    -33.78418  eV     2   -->   2 G_2            
[...]
     e( 65 - 65) =      0.38203  eV     1   --> G_2            
     e( 66 - 66) =      0.38564  eV     1   --> G_2            
     e( 67 - 67) =      0.58156  eV     1   --> G_2            
     e( 68 - 68) =      0.58719  eV     1   --> G_2            
     e( 69 - 69) =      0.63366  eV     1   --> G_2            
     e( 70 - 70) =      0.63597  eV     1   --> G_2            
     e( 71 - 71) =      0.91454  eV     1   --> G_2            
     e( 72 - 72) =      0.92674  eV     1   --> G_2            
     e( 73 - 73) =      1.15108  eV     1   --> G_2            
     e( 74 - 74) =      1.15579  eV     1   --> G_2            
     e( 75 - 75) =      1.40641  eV     1   --> G_2            
     e( 76 - 76) =      1.41042  eV     1   --> G_2            
     e( 77 - 77) =      1.71530  eV     1   --> G_2            
     e( 78 - 78) =      1.71829  eV     1   --> G_2            
     e( 79 - 79) =      2.44629  eV     1   --> G_2            
     e( 80 - 80) =      2.44973  eV     1   --> G_2            
     e( 81 - 81) =      2.96869  eV     1   --> G_2            
     e( 82 - 82) =      2.97145  eV     1   --> G_2            
     e( 83 - 83) =      3.18286  eV     1   --> G_2            
     e( 84 - 84) =      3.18746  eV     1   --> G_2            
     e( 85 - 85) =      3.59180  eV     1   --> G_2            
     e( 86 - 86) =      3.59640  eV     1   --> G_2            
     e( 87 - 87) =      4.33218  eV     1   --> G_2            
     e( 88 - 88) =      4.33242  eV     1   --> G_2            
     e( 89 - 89) =      4.36070  eV     1   --> G_2            
     e( 90 - 90) =      4.36199  eV     1   --> G_2            
     e( 91 - 92) =      6.33974  eV     2   -->   2 G_2            
     e( 93 - 94) =      6.52741  eV     2   -->   2 G_2            
     e( 95 - 96) =      7.08108  eV     2   -->   2 G_2            
     e( 97 - 97) =      7.74889  eV     1   --> G_2            
     e( 98 - 98) =      7.74901  eV     1   --> G_2            
     e( 99 - 99) =      7.79443  eV     1   --> G_2            
     e(100 -100) =      7.79466  eV     1   --> G_2            

 **************************************************************************

 **************************************************************************

                    xk=(   0.01429,   0.02473,   0.00000  )

     Band symmetry, C_1 (1)     double point group:

     e(  1 -  2) =    -35.36894  eV     2   -->   2 G_2            
     e(  3 -  4) =    -35.36387  eV     2   -->   2 G_2            
     e(  5 -  6) =    -35.34405  eV     2   -->   2 G_2            
     e(  7 -  8) =    -35.33904  eV     2   -->   2 G_2            
     e(  9 - 10) =    -35.26213  eV     2   -->   2 G_2            
     e( 11 - 12) =    -35.22592  eV     2   -->   2 G_2            
     e( 13 - 14) =    -33.90897  eV     2   -->   2 G_2            
     e( 15 - 16) =    -33.90390  eV     2   -->   2 G_2            
     e( 17 - 18) =    -33.88788  eV     2   -->   2 G_2            
     e( 19 - 20) =    -33.88283  eV     2   -->   2 G_2            
     e( 21 - 22) =    -33.87657  eV     2   -->   2 G_2            
     e( 23 - 24) =    -33.87158  eV     2   -->   2 G_2            
     e( 25 - 26) =    -33.79958  eV     2   -->   2 G_2            
     e( 27 - 28) =    -33.78417  eV     2   -->   2 G_2            
     e( 29 - 30) =    -33.75263  eV     2   -->   2 G_2            
     e( 31 - 32) =    -27.98456  eV     2   -->   2 G_2            
     e( 33 - 34) =    -27.98033  eV     2   -->   2 G_2            
     e( 35 - 36) =    -27.97564  eV     2   -->   2 G_2            
     e( 37 - 38) =    -27.97148  eV     2   -->   2 G_2            
     e( 39 - 40) =    -26.74560  eV     2   -->   2 G_2            
     e( 41 - 42) =    -26.74136  eV     2   -->   2 G_2            
     e( 43 - 44) =    -26.73548  eV     2   -->   2 G_2            
     e( 45 - 46) =    -26.73429  eV     2   -->   2 G_2            
     e( 47 - 48) =    -26.73129  eV     2   -->   2 G_2            
     e( 49 - 50) =    -26.73014  eV     2   -->   2 G_2            
     e( 51 - 52) =    -10.56990  eV     2   -->   2 G_2            
     e( 53 - 54) =    -10.03329  eV     2   -->   2 G_2            
     e( 55 - 56) =     -8.93991  eV     2   -->   2 G_2            
     e( 57 - 58) =     -6.16151  eV     2   -->   2 G_2            
     e( 59 - 60) =     -4.71173  eV     2   -->   2 G_2            
     e( 61 - 61) =     -0.40019  eV     1   --> G_2            
     e( 62 - 62) =     -0.40000  eV     1   --> G_2            
     e( 63 - 63) =      0.09512  eV     1   --> G_2            
     e( 64 - 64) =      0.09782  eV     1   --> G_2            
     e( 65 - 65) =      0.38894  eV     1   --> G_2            
     e( 66 - 66) =      0.39178  eV     1   --> G_2            
     e( 67 - 67) =      0.62987  eV     1   --> G_2            
     e( 68 - 68) =      0.63189  eV     1   --> G_2            
     e( 69 - 69) =      0.65608  eV     1   --> G_2            
     e( 70 - 70) =      0.66338  eV     1   --> G_2            
     e( 71 - 71) =      0.91221  eV     1   --> G_2            
     e( 72 - 72) =      0.92438  eV     1   --> G_2            
     e( 73 - 73) =      1.12338  eV     1   --> G_2            
     e( 74 - 74) =      1.12733  eV     1   --> G_2            
     e( 75 - 75) =      1.43152  eV     1   --> G_2            
     e( 76 - 76) =      1.43461  eV     1   --> G_2            
     e( 77 - 77) =      1.68033  eV     1   --> G_2            
     e( 78 - 78) =      1.68296  eV     1   --> G_2            
     e( 79 - 79) =      2.40992  eV     1   --> G_2            
     e( 80 - 80) =      2.41269  eV     1   --> G_2            
     e( 81 - 81) =      2.96184  eV     1   --> G_2            
     e( 82 - 82) =      2.96404  eV     1   --> G_2            
     e( 83 - 83) =      3.20623  eV     1   --> G_2            
     e( 84 - 84) =      3.21057  eV     1   --> G_2            
     e( 85 - 85) =      3.56234  eV     1   --> G_2            
     e( 86 - 86) =      3.56655  eV     1   --> G_2            
     e( 87 - 87) =      4.31538  eV     1   --> G_2            
     e( 88 - 88) =      4.31633  eV     1   --> G_2            
     e( 89 - 89) =      4.35620  eV     1   --> G_2            
     e( 90 - 90) =      4.35763  eV     1   --> G_2            
     e( 91 - 92) =      6.33199  eV     2   -->   2 G_2            
     e( 93 - 94) =      6.52539  eV     2   -->   2 G_2            
     e( 95 - 96) =      7.07902  eV     2   -->   2 G_2            
     e( 97 - 98) =      7.75147  eV     2   -->   2 G_2            
     e( 99 - 99) =      7.82730  eV     1   --> G_2            
     e(100 -100) =      7.82754  eV     1   --> G_2            

 **************************************************************************

 **************************************************************************

                    xk=(   0.00952,   0.01649,   0.00000  )

     Band symmetry, C_1 (1)     double point group:

     e(  1 -  2) =    -35.36894  eV     2   -->   2 G_2            
     e(  3 -  4) =    -35.36387  eV     2   -->   2 G_2            
     e(  5 -  6) =    -35.34405  eV     2   -->   2 G_2            
     e(  7 -  8) =    -35.33904  eV     2   -->   2 G_2            
     e(  9 - 10) =    -35.26214  eV     2   -->   2 G_2            
     e( 11 - 12) =    -35.22592  eV     2   -->   2 G_2            
     e( 13 - 14) =    -33.90898  eV     2   -->   2 G_2            
     e( 15 - 16) =    -33.90390  eV     2   -->   2 G_2            
     e( 17 - 18) =    -33.88788  eV     2   -->   2 G_2            
     e( 19 - 20) =    -33.88283  eV     2   -->   2 G_2            
     e( 21 - 22) =    -33.87657  eV     2   -->   2 G_2            
     e( 23 - 24) =    -33.87158  eV     2   -->   2 G_2            
     e( 25 - 26) =    -33.79958  eV     2   -->   2 G_2            
     e( 27 - 28) =    -33.78417  eV     2   -->   2 G_2            
     e( 29 - 30) =    -33.75263  eV     2   -->   2 G_2            
     e( 31 - 32) =    -27.98457  eV     2   -->   2 G_2            
     e( 33 - 34) =    -27.98033  eV     2   -->   2 G_2            
     e( 35 - 36) =    -27.97564  eV     2   -->   2 G_2            
     e( 37 - 38) =    -27.97148  eV     2   -->   2 G_2            
     e( 39 - 40) =    -26.74561  eV     2   -->   2 G_2            
     e( 41 - 42) =    -26.74137  eV     2   -->   2 G_2            
     e( 43 - 44) =    -26.73547  eV     2   -->   2 G_2            
     e( 45 - 46) =    -26.73429  eV     2   -->   2 G_2            
     e( 47 - 48) =    -26.73129  eV     2   -->   2 G_2            
     e( 49 - 50) =    -26.73013  eV     2   -->   2 G_2            
     e( 51 - 52) =    -10.57289  eV     2   -->   2 G_2            
     e( 53 - 54) =    -10.03608  eV     2   -->   2 G_2            
     e( 55 - 56) =     -8.94163  eV     2   -->   2 G_2            
     e( 57 - 58) =     -6.16132  eV     2   -->   2 G_2            
     e( 59 - 60) =     -4.70694  eV     2   -->   2 G_2            
     e( 61 - 61) =     -0.39620  eV     1   --> G_2            
     e( 62 - 62) =     -0.39607  eV     1   --> G_2            
     e( 63 - 63) =      0.12964  eV     1   --> G_2            
     e( 64 - 64) =      0.13164  eV     1   --> G_2            
     e( 65 - 65) =      0.38973  eV     1   --> G_2            
     e( 66 - 66) =      0.39172  eV     1   --> G_2            
     e( 67 - 67) =      0.65233  eV     1   --> G_2            
     e( 68 - 68) =      0.65484  eV     1   --> G_2            
     e( 69 - 69) =      0.69820  eV     1   --> G_2            
     e( 70 - 70) =      0.70745  eV     1   --> G_2            
     e( 71 - 71) =      0.90092  eV     1   --> G_2            
     e( 72 - 72) =      0.91205  eV     1   --> G_2            
     e( 73 - 73) =      1.10015  eV     1   --> G_2            
     e( 74 - 74) =      1.10313  eV     1   --> G_2            
     e( 75 - 75) =      1.45471  eV     1   --> G_2            
     e( 76 - 76) =      1.45686  eV     1   --> G_2            
     e( 77 - 77) =      1.65339  eV     1   --> G_2            
     e( 78 - 78) =      1.65541  eV     1   --> G_2            
     e( 79 - 79) =      2.37949  eV     1   --> G_2            
     e( 80 - 80) =      2.38143  eV     1   --> G_2            
     e( 81 - 81) =      2.95655  eV     1   --> G_2            
     e( 82 - 82) =      2.95806  eV     1   --> G_2            
     e( 83 - 83) =      3.23190  eV     1   --> G_2            
     e( 84 - 84) =      3.23546  eV     1   --> G_2            
     e( 85 - 85) =      3.53545  eV     1   --> G_2            
     e( 86 - 86) =      3.53888  eV     1   --> G_2            
     e( 87 - 87) =      4.29809  eV     1   --> G_2            
     e( 88 - 88) =      4.29885  eV     1   --> G_2            
     e( 89 - 89) =      4.35864  eV     1   --> G_2            
     e( 90 - 90) =      4.35963  eV     1   --> G_2            
     e( 91 - 92) =      6.32640  eV     2   -->   2 G_2            
     e( 93 - 94) =      6.52394  eV     2   -->   2 G_2            
     e( 95 - 96) =      7.07738  eV     2   -->   2 G_2            
     e( 97 - 98) =      7.75210  eV     2   -->   2 G_2            
     e( 99 - 99) =      7.85239  eV     1   --> G_2            
     e(100 -100) =      7.85265  eV     1   --> G_2            

 **************************************************************************

 **************************************************************************

                    xk=(   0.00476,   0.00824,   0.00000  )

     Band symmetry, C_1 (1)     double point group:

     e(  1 -  2) =    -35.36894  eV     2   -->   2 G_2            
     e(  3 -  4) =    -35.36387  eV     2   -->   2 G_2            
     e(  5 -  6) =    -35.34405  eV     2   -->   2 G_2            
     e(  7 -  8) =    -35.33904  eV     2   -->   2 G_2            
     e(  9 - 10) =    -35.26214  eV     2   -->   2 G_2            
     e( 11 - 12) =    -35.22592  eV     2   -->   2 G_2            
     e( 13 - 14) =    -33.90898  eV     2   -->   2 G_2            
     e( 15 - 16) =    -33.90390  eV     2   -->   2 G_2            
     e( 17 - 18) =    -33.88788  eV     2   -->   2 G_2            
     e( 19 - 20) =    -33.88283  eV     2   -->   2 G_2            
     e( 21 - 22) =    -33.87657  eV     2   -->   2 G_2            
     e( 23 - 24) =    -33.87158  eV     2   -->   2 G_2            
     e( 25 - 26) =    -33.79958  eV     2   -->   2 G_2            
     e( 27 - 28) =    -33.78417  eV     2   -->   2 G_2            
     e( 29 - 30) =    -33.75263  eV     2   -->   2 G_2            
     e( 31 - 32) =    -27.98457  eV     2   -->   2 G_2            
     e( 33 - 34) =    -27.98034  eV     2   -->   2 G_2            
     e( 35 - 36) =    -27.97563  eV     2   -->   2 G_2            
     e( 37 - 38) =    -27.97147  eV     2   -->   2 G_2            
     e( 39 - 40) =    -26.74561  eV     2   -->   2 G_2            
     e( 41 - 42) =    -26.74137  eV     2   -->   2 G_2            
     e( 43 - 44) =    -26.73547  eV     2   -->   2 G_2            
     e( 45 - 46) =    -26.73429  eV     2   -->   2 G_2            
     e( 47 - 48) =    -26.73128  eV     2   -->   2 G_2            
     e( 49 - 50) =    -26.73013  eV     2   -->   2 G_2            
     e( 51 - 52) =    -10.57471  eV     2   -->   2 G_2            
     e( 53 - 54) =    -10.03774  eV     2   -->   2 G_2            
     e( 55 - 56) =     -8.94267  eV     2   -->   2 G_2            
     e( 57 - 58) =     -6.16122  eV     2   -->   2 G_2            
     e( 59 - 60) =     -4.70405  eV     2   -->   2 G_2            
     e( 61 - 62) =     -0.39384  eV     2   -->   2 G_2            
     e( 63 - 63) =      0.15247  eV     1   --> G_2            
     e( 64 - 64) =      0.15356  eV     1   --> G_2            
     e( 65 - 65) =      0.38830  eV     1   --> G_2            
     e( 66 - 66) =      0.38935  eV     1   --> G_2            
     e( 67 - 67) =      0.66243  eV     1   --> G_2            
     e( 68 - 68) =      0.66365  eV     1   --> G_2            
     e( 69 - 69) =      0.74209  eV     1   --> G_2            
     e( 70 - 70) =      0.74888  eV     1   --> G_2            
     e( 71 - 71) =      0.88453  eV     1   --> G_2            
     e( 72 - 72) =      0.89249  eV     1   --> G_2            
     e( 73 - 73) =      1.08527  eV     1   --> G_2            
     e( 74 - 74) =      1.08691  eV     1   --> G_2            
     e( 75 - 75) =      1.47081  eV     1   --> G_2            
     e( 76 - 76) =      1.47195  eV     1   --> G_2            
     e( 77 - 77) =      1.63694  eV     1   --> G_2            
     e( 78 - 78) =      1.63805  eV     1   --> G_2            
     e( 79 - 79) =      2.35917  eV     1   --> G_2            
     e( 80 - 80) =      2.36017  eV     1   --> G_2            
     e( 81 - 81) =      2.95342  eV     1   --> G_2            
     e( 82 - 82) =      2.95418  eV     1   --> G_2            
     e( 83 - 83) =      3.25301  eV     1   --> G_2            
     e( 84 - 84) =      3.25511  eV     1   --> G_2            
     e( 85 - 85) =      3.51555  eV     1   --> G_2            
     e( 86 - 86) =      3.51759  eV     1   --> G_2            
     e( 87 - 87) =      4.28698  eV     1   --> G_2            
     e( 88 - 88) =      4.28738  eV     1   --> G_2            
     e( 89 - 89) =      4.36098  eV     1   --> G_2            
     e( 90 - 90) =      4.36148  eV     1   --> G_2            
     e( 91 - 92) =      6.32303  eV     2   -->   2 G_2            
     e( 93 - 94) =      6.52306  eV     2   -->   2 G_2            
     e( 95 - 96) =      7.07634  eV     2   -->   2 G_2            
     e( 97 - 98) =      7.75217  eV     2   -->   2 G_2            
     e( 99 - 99) =      7.86561  eV     1   --> G_2            
     e(100 -100) =      7.86579  eV     1   --> G_2            

 **************************************************************************

 **************************************************************************

                    xk=(   0.00000,   0.00000,   0.00000  )

     Band symmetry, C_1 (1)     double point group:

     e(  1 -  2) =    -35.36894  eV     2   -->   2 G_2            
     e(  3 -  4) =    -35.36387  eV     2   -->   2 G_2            
     e(  5 -  6) =    -35.34404  eV     2   -->   2 G_2            
     e(  7 -  8) =    -35.33903  eV     2   -->   2 G_2            
     e(  9 - 10) =    -35.26213  eV     2   -->   2 G_2            
     e( 11 - 12) =    -35.22592  eV     2   -->   2 G_2            
     e( 13 - 14) =    -33.90898  eV     2   -->   2 G_2            
     e( 15 - 16) =    -33.90390  eV     2   -->   2 G_2            
     e( 17 - 18) =    -33.88788  eV     2   -->   2 G_2            
     e( 19 - 20) =    -33.88283  eV     2   -->   2 G_2            
     e( 21 - 22) =    -33.87657  eV     2   -->   2 G_2            
     e( 23 - 24) =    -33.87158  eV     2   -->   2 G_2            
     e( 25 - 26) =    -33.79958  eV     2   -->   2 G_2            
     e( 27 - 28) =    -33.78417  eV     2   -->   2 G_2            
     e( 29 - 30) =    -33.75263  eV     2   -->   2 G_2            
     e( 31 - 32) =    -27.98457  eV     2   -->   2 G_2            
     e( 33 - 34) =    -27.98034  eV     2   -->   2 G_2            
     e( 35 - 36) =    -27.97563  eV     2   -->   2 G_2            
     e( 37 - 38) =    -27.97147  eV     2   -->   2 G_2            
     e( 39 - 40) =    -26.74561  eV     2   -->   2 G_2            
     e( 41 - 42) =    -26.74137  eV     2   -->   2 G_2            
     e( 43 - 44) =    -26.73547  eV     2   -->   2 G_2            
     e( 45 - 46) =    -26.73428  eV     2   -->   2 G_2            
     e( 47 - 48) =    -26.73128  eV     2   -->   2 G_2            
     e( 49 - 50) =    -26.73012  eV     2   -->   2 G_2            
     e( 51 - 52) =    -10.57538  eV     2   -->   2 G_2            
     e( 53 - 54) =    -10.03825  eV     2   -->   2 G_2            
     e( 55 - 56) =     -8.94296  eV     2   -->   2 G_2            
     e( 57 - 58) =     -6.16115  eV     2   -->   2 G_2            
     e( 59 - 60) =     -4.70305  eV     2   -->   2 G_2            
     e( 61 - 62) =     -0.39304  eV     2   -->   2 G_2            
     e( 63 - 64) =      0.16089  eV     2   -->   2 G_2            
     e( 65 - 66) =      0.38776  eV     2   -->   2 G_2            
     e( 67 - 68) =      0.66602  eV     2   -->   2 G_2            
     e( 69 - 70) =      0.76490  eV     2   -->   2 G_2            
     e( 71 - 72) =      0.87776  eV     2   -->   2 G_2            
     e( 73 - 74) =      1.08072  eV     2   -->   2 G_2            
     e( 75 - 76) =      1.47686  eV     2   -->   2 G_2            
     e( 77 - 78) =      1.63186  eV     2   -->   2 G_2            
     e( 79 - 80) =      2.35231  eV     2   -->   2 G_2            
     e( 81 - 82) =      2.95262  eV     2   -->   2 G_2            
     e( 83 - 84) =      3.26209  eV     2   -->   2 G_2            
     e( 85 - 86) =      3.50862  eV     2   -->   2 G_2            
     e( 87 - 88) =      4.28333  eV     2   -->   2 G_2            
     e( 89 - 90) =      4.36201  eV     2   -->   2 G_2            
     e( 91 - 92) =      6.32190  eV     2   -->   2 G_2            
     e( 93 - 94) =      6.52277  eV     2   -->   2 G_2            
     e( 95 - 96) =      7.07598  eV     2   -->   2 G_2            
     e( 97 - 98) =      7.75215  eV     2   -->   2 G_2            
     e( 99 -100) =      7.86900  eV     2   -->   2 G_2            

 **************************************************************************

     BANDS        :  21m30.98s CPU  23m37.70s WALL


   This run was terminated on:  14:30:51  14Aug2025            

=------------------------------------------------------------------------------=
   JOB DONE.
=------------------------------------------------------------------------------=
