
     Program BANDS v.7.4.1 starts on 22Aug2025 at 19:55:29 

     This program is part of the open-source Quantum ESPRESSO suite
     for quantum simulation of materials; please cite
         "P. Giannozzi et al., J. Phys.:Condens. Matter 21 395502 (2009);
         "P. Giannozzi et al., J. Phys.:Condens. Matter 29 465901 (2017);
         "P. Giannozzi et al., J. Chem. Phys. 152 154105 (2020);
          URL http://www.quantum-espresso.org", 
     in publications or presentations arising from this work. More details at
     http://www.quantum-espresso.org/quote

     Parallel version (MPI & OpenMP), running on      48 processor cores
     Number of MPI processes:                24
     Threads/MPI process:                     2

     MPI processes distributed on     2 nodes
     R & G space division:  proc/nbgrp/npool/nimage =      24
     17976 MiB available memory on the printing compute node when the environment starts


     Reading xml data from directory:

     tmp/Sb2Te3-uatsx-c5-soc-2.0.save/
Error reading attribute index: expected integer, found *
Error reading attribute index: expected integer, found *

     IMPORTANT: XC functional enforced from input :
     Exchange-correlation= PBE
                           (   1   4   3   4   0   0   0)
     Any further DFT definition will be discarded
     Please, verify this is what you really want


     Parallelization info
     --------------------
     sticks:   dense  smooth     PW     G-vecs:    dense   smooth      PW
     Min         135      54     15                31969     8086    1205
     Max         136      55     16                31992     8103    1220
     Sum        3263    1305    367               767663   194215   29049

     Using Slab Decomposition

     Reading collected, re-writing distributed wavefunctions
     high-symmetry point:  0.0000 0.0000 0.0000   x coordinate   0.0000
     high-symmetry point:  0.5000 0.2887 0.0000   x coordinate   0.5774
     high-symmetry point:  0.3333 0.5851 0.0000   x coordinate   0.9174
     high-symmetry point:  0.0000 0.0000 0.0000   x coordinate   1.5907

     Plottable bands (eV) written to file ./bands/Sb2Te3-uatsx-c5-soc-2.0.bands.gnu
     Bands written to file ./bands/Sb2Te3-uatsx-c5-soc-2.0.bands

 **************************************************************************

                    xk=(   0.00000,   0.00000,   0.00000  )

     double point group C_1 (1)    
     there are  2 classes and  1 irreducible representations
     the character table:

       E     -E   
                  
G_2    1.00 -1.00

     the symmetry operations in each class and the name of the first element:

     E             1
                                                                 
     -E           -1
                                                                 

     Band symmetry, C_1 (1)     double point group:

     e(  1 -  2) =    -35.50404  eV     2   -->   2 G_2            
     e(  3 -  4) =    -35.49737  eV     2   -->   2 G_2            
     e(  5 -  6) =    -35.47544  eV     2   -->   2 G_2            
     e(  7 -  8) =    -35.46878  eV     2   -->   2 G_2            
     e(  9 - 10) =    -35.39468  eV     2   -->   2 G_2            
     e( 11 - 12) =    -35.36116  eV     2   -->   2 G_2            
     e( 13 - 14) =    -34.04474  eV     2   -->   2 G_2            
     e( 15 - 16) =    -34.03808  eV     2   -->   2 G_2            
     e( 17 - 18) =    -34.02055  eV     2   -->   2 G_2            
     e( 19 - 20) =    -34.01387  eV     2   -->   2 G_2            
     e( 21 - 22) =    -34.00758  eV     2   -->   2 G_2            
     e( 23 - 24) =    -34.00093  eV     2   -->   2 G_2            
     e( 25 - 26) =    -33.93228  eV     2   -->   2 G_2            
     e( 27 - 28) =    -33.91695  eV     2   -->   2 G_2            
     e( 29 - 30) =    -33.88865  eV     2   -->   2 G_2            
     e( 31 - 32) =    -28.13667  eV     2   -->   2 G_2            
     e( 33 - 34) =    -28.13209  eV     2   -->   2 G_2            
     e( 35 - 36) =    -28.12811  eV     2   -->   2 G_2            
     e( 37 - 38) =    -28.12360  eV     2   -->   2 G_2            
     e( 39 - 40) =    -26.89747  eV     2   -->   2 G_2            
     e( 41 - 42) =    -26.89289  eV     2   -->   2 G_2            
     e( 43 - 44) =    -26.88798  eV     2   -->   2 G_2            
     e( 45 - 46) =    -26.88626  eV     2   -->   2 G_2            
     e( 47 - 48) =    -26.88346  eV     2   -->   2 G_2            
     e( 49 - 50) =    -26.88174  eV     2   -->   2 G_2            
     e( 51 - 52) =    -10.63208  eV     2   -->   2 G_2            
     e( 53 - 54) =    -10.09976  eV     2   -->   2 G_2            
     e( 55 - 56) =     -9.02018  eV     2   -->   2 G_2            
     e( 57 - 58) =     -6.26708  eV     2   -->   2 G_2            
     e( 59 - 60) =     -4.87277  eV     2   -->   2 G_2            
     e( 61 - 62) =     -0.50505  eV     2   -->   2 G_2            
     e( 63 - 64) =     -0.02539  eV     2   -->   2 G_2            
     e( 65 - 66) =      0.23605  eV     2   -->   2 G_2            
     e( 67 - 68) =      0.49523  eV     2   -->   2 G_2            
     e( 69 - 70) =      0.57189  eV     2   -->   2 G_2            
     e( 71 - 72) =      0.68339  eV     2   -->   2 G_2            
     e( 73 - 74) =      0.92949  eV     2   -->   2 G_2            
     e( 75 - 76) =      1.27250  eV     2   -->   2 G_2            
     e( 77 - 78) =      1.42462  eV     2   -->   2 G_2            
     e( 79 - 80) =      2.11116  eV     2   -->   2 G_2            
     e( 81 - 82) =      2.73841  eV     2   -->   2 G_2            
     e( 83 - 84) =      3.07804  eV     2   -->   2 G_2            
     e( 85 - 86) =      3.29696  eV     2   -->   2 G_2            
     e( 87 - 88) =      4.03953  eV     2   -->   2 G_2            
     e( 89 - 90) =      4.18971  eV     2   -->   2 G_2            
     e( 91 - 92) =      6.20975  eV     2   -->   2 G_2            
     e( 93 - 94) =      6.40187  eV     2   -->   2 G_2            
     e( 95 - 96) =      6.99150  eV     2   -->   2 G_2            
     e( 97 - 98) =      7.54549  eV     2   -->   2 G_2            
     e( 99 -100) =      7.61612  eV     2   -->   2 G_2            
     e(101 -102) =      7.84079  eV     2   -->   2 G_2            
     e(103 -104) =      8.39798  eV     2   -->   2 G_2            
     e(105 -106) =      8.63206  eV     2   -->   2 G_2            
     e(107 -108) =      8.76152  eV     2   -->   2 G_2            
     e(109 -110) =      8.88082  eV     2   -->   2 G_2            
     e(111 -112) =      9.16443  eV     2   -->   2 G_2            
     e(113 -114) =      9.61039  eV     2   -->   2 G_2            
     e(115 -116) =      9.71524  eV     2   -->   2 G_2            
     e(117 -118) =     10.03354  eV     2   -->   2 G_2            
     e(119 -120) =     10.12767  eV     2   -->   2 G_2            
     e(121 -122) =     10.53566  eV     2   -->   2 G_2            
     e(123 -124) =     11.05487  eV     2   -->   2 G_2            
     e(125 -126) =     11.33500  eV     2   -->   2 G_2            
     e(127 -128) =     11.50765  eV     2   -->   2 G_2            
     e(129 -130) =     11.54933  eV     2   -->   2 G_2            
     e(131 -132) =     11.70445  eV     2   -->   2 G_2            
     e(133 -134) =     12.81714  eV     2   -->   2 G_2            
     e(135 -136) =     12.86667  eV     2   -->   2 G_2            
     e(137 -138) =     13.88233  eV     2   -->   2 G_2            
     e(139 -140) =     14.13270  eV     2   -->   2 G_2            
     e(141 -142) =     14.15065  eV     2   -->   2 G_2            
     e(143 -144) =     14.26553  eV     2   -->   2 G_2            
     e(145 -146) =     14.41075  eV     2   -->   2 G_2            
     e(147 -148) =     15.08154  eV     2   -->   2 G_2            
     e(149 -150) =     15.74477  eV     2   -->   2 G_2            
     e(151 -152) =     16.00608  eV     2   -->   2 G_2            
     e(153 -154) =     16.05740  eV     2   -->   2 G_2            
     e(155 -156) =     16.08560  eV     2   -->   2 G_2            
     e(157 -158) =     16.25520  eV     2   -->   2 G_2            
     e(159 -160) =     16.35706  eV     2   -->   2 G_2            
     e(161 -162) =     16.69074  eV     2   -->   2 G_2            
     e(163 -164) =     17.07872  eV     2   -->   2 G_2            
     e(165 -166) =     17.10162  eV     2   -->   2 G_2            
     e(167 -168) =     17.13694  eV     2   -->   2 G_2            
     e(169 -170) =     17.34570  eV     2   -->   2 G_2            
     e(171 -172) =     17.35277  eV     2   -->   2 G_2            
     e(173 -174) =     17.44634  eV     2   -->   2 G_2            
     e(175 -176) =     17.47611  eV     2   -->   2 G_2            
     e(177 -178) =     17.54565  eV     2   -->   2 G_2            
     e(179 -180) =     17.63727  eV     2   -->   2 G_2            
     e(181 -182) =     17.69946  eV     2   -->   2 G_2            
     e(183 -184) =     17.81568  eV     2   -->   2 G_2            
     e(185 -186) =     17.89029  eV     2   -->   2 G_2            
     e(187 -188) =     18.15655  eV     2   -->   2 G_2            
     e(189 -190) =     18.99558  eV     2   -->   2 G_2            
     e(191 -192) =     19.07612  eV     2   -->   2 G_2            
     e(193 -194) =     19.14500  eV     2   -->   2 G_2            
     e(195 -196) =     19.26115  eV     2   -->   2 G_2            
     e(197 -198) =     19.31270  eV     2   -->   2 G_2            
     e(199 -200) =     19.41236  eV     2   -->   2 G_2            

 **************************************************************************

 **************************************************************************

                    xk=(   0.00714,   0.00412,   0.00000  )

     Band symmetry, C_1 (1)     double point group:

     e(  1 -  2) =    -35.50404  eV     2   -->   2 G_2            
     e(  3 -  4) =    -35.49737  eV     2   -->   2 G_2            
     e(  5 -  6) =    -35.47544  eV     2   -->   2 G_2            
     e(  7 -  8) =    -35.46878  eV     2   -->   2 G_2            
     e(  9 - 10) =    -35.39468  eV     2   -->   2 G_2            
     e( 11 - 12) =    -35.36116  eV     2   -->   2 G_2            
     e( 13 - 14) =    -34.04474  eV     2   -->   2 G_2            
     e( 15 - 16) =    -34.03808  eV     2   -->   2 G_2            
     e( 17 - 18) =    -34.02055  eV     2   -->   2 G_2            
     e( 19 - 20) =    -34.01387  eV     2   -->   2 G_2            
     e( 21 - 22) =    -34.00758  eV     2   -->   2 G_2            
     e( 23 - 24) =    -34.00093  eV     2   -->   2 G_2            
     e( 25 - 26) =    -33.93228  eV     2   -->   2 G_2            
     e( 27 - 28) =    -33.91695  eV     2   -->   2 G_2            
     e( 29 - 30) =    -33.88865  eV     2   -->   2 G_2            
     e( 31 - 32) =    -28.13667  eV     2   -->   2 G_2            
     e( 33 - 34) =    -28.13209  eV     2   -->   2 G_2            
     e( 35 - 36) =    -28.12812  eV     2   -->   2 G_2            
     e( 37 - 38) =    -28.12360  eV     2   -->   2 G_2            
     e( 39 - 40) =    -26.89747  eV     2   -->   2 G_2            
     e( 41 - 42) =    -26.89289  eV     2   -->   2 G_2            
     e( 43 - 44) =    -26.88799  eV     2   -->   2 G_2            
     e( 45 - 46) =    -26.88626  eV     2   -->   2 G_2            
     e( 47 - 48) =    -26.88346  eV     2   -->   2 G_2            
     e( 49 - 50) =    -26.88174  eV     2   -->   2 G_2            
     e( 51 - 52) =    -10.63165  eV     2   -->   2 G_2            
     e( 53 - 54) =    -10.09936  eV     2   -->   2 G_2            
     e( 55 - 56) =     -9.01994  eV     2   -->   2 G_2            
     e( 57 - 58) =     -6.26714  eV     2   -->   2 G_2            
     e( 59 - 60) =     -4.87355  eV     2   -->   2 G_2            
     e( 61 - 62) =     -0.50579  eV     2   -->   2 G_2            
     e( 63 - 63) =     -0.03184  eV     1   --> G_2            
     e( 64 - 64) =     -0.03135  eV     1   --> G_2            
     e( 65 - 65) =      0.23679  eV     1   --> G_2            
     e( 66 - 66) =      0.23735  eV     1   --> G_2            
     e( 67 - 67) =      0.49252  eV     1   --> G_2            
     e( 68 - 68) =      0.49288  eV     1   --> G_2            
     e( 69 - 69) =      0.55753  eV     1   --> G_2            
     e( 70 - 70) =      0.55854  eV     1   --> G_2            
     e( 71 - 71) =      0.69263  eV     1   --> G_2            
     e( 72 - 72) =      0.69383  eV     1   --> G_2            
     e( 73 - 73) =      0.93240  eV     1   --> G_2            
     e( 74 - 74) =      0.93270  eV     1   --> G_2            
     e( 75 - 75) =      1.26907  eV     1   --> G_2            
     e( 76 - 76) =      1.26928  eV     1   --> G_2            
     e( 77 - 77) =      1.42767  eV     1   --> G_2            
     e( 78 - 78) =      1.42778  eV     1   --> G_2            
     e( 79 - 79) =      2.11726  eV     1   --> G_2            
     e( 80 - 80) =      2.11743  eV     1   --> G_2            
     e( 81 - 81) =      2.73800  eV     1   --> G_2            
     e( 82 - 82) =      2.73816  eV     1   --> G_2            
     e( 83 - 83) =      3.07193  eV     1   --> G_2            
     e( 84 - 84) =      3.07224  eV     1   --> G_2            
     e( 85 - 85) =      3.30354  eV     1   --> G_2            
     e( 86 - 86) =      3.30396  eV     1   --> G_2            
     e( 87 - 87) =      4.04180  eV     1   --> G_2            
     e( 88 - 88) =      4.04193  eV     1   --> G_2            
     e( 89 - 90) =      4.18928  eV     2   -->   2 G_2            
     e( 91 - 92) =      6.21053  eV     2   -->   2 G_2            
     e( 93 - 94) =      6.40202  eV     2   -->   2 G_2            
     e( 95 - 96) =      6.99169  eV     2   -->   2 G_2            
     e( 97 - 98) =      7.54273  eV     2   -->   2 G_2            
     e( 99 -100) =      7.61581  eV     2   -->   2 G_2            
     e(101 -102) =      7.84110  eV     2   -->   2 G_2            
     e(103 -104) =      8.40101  eV     2   -->   2 G_2            
     e(105 -105) =      8.63057  eV     1   --> G_2            
     e(106 -106) =      8.63096  eV     1   --> G_2            
     e(107 -107) =      8.75951  eV     1   --> G_2            
     e(108 -108) =      8.76017  eV     1   --> G_2            
     e(109 -109) =      8.88077  eV     1   --> G_2            
     e(110 -110) =      8.88105  eV     1   --> G_2            
     e(111 -112) =      9.16329  eV     2   -->   2 G_2            
     e(113 -114) =      9.61620  eV     2   -->   2 G_2            
     e(115 -116) =      9.71752  eV     2   -->   2 G_2            
     e(117 -118) =     10.03208  eV     2   -->   2 G_2            
     e(119 -120) =     10.13019  eV     2   -->   2 G_2            
     e(121 -122) =     10.53801  eV     2   -->   2 G_2            
     e(123 -124) =     11.05419  eV     2   -->   2 G_2            
     e(125 -125) =     11.32840  eV     1   --> G_2            
     e(126 -126) =     11.32871  eV     1   --> G_2            
     e(127 -127) =     11.47140  eV     1   --> G_2            
     e(128 -128) =     11.47186  eV     1   --> G_2            
     e(129 -129) =     11.58862  eV     1   --> G_2            
     e(130 -130) =     11.58889  eV     1   --> G_2            
     e(131 -131) =     11.71219  eV     1   --> G_2            
     e(132 -132) =     11.71234  eV     1   --> G_2            
     e(133 -134) =     12.81627  eV     2   -->   2 G_2            
     e(135 -136) =     12.86813  eV     2   -->   2 G_2            
     e(137 -138) =     13.86916  eV     2   -->   2 G_2            
     e(139 -139) =     14.11231  eV     1   --> G_2            
     e(140 -140) =     14.11249  eV     1   --> G_2            
     e(141 -141) =     14.16570  eV     1   --> G_2            
     e(142 -142) =     14.16604  eV     1   --> G_2            
     e(143 -143) =     14.27906  eV     1   --> G_2            
     e(144 -144) =     14.27923  eV     1   --> G_2            
     e(145 -146) =     14.41461  eV     2   -->   2 G_2            
     e(147 -148) =     15.08458  eV     2   -->   2 G_2            
     e(149 -150) =     15.72431  eV     2   -->   2 G_2            
     e(151 -151) =     15.98161  eV     1   --> G_2            
     e(152 -152) =     15.98183  eV     1   --> G_2            
     e(153 -153) =     16.04479  eV     1   --> G_2            
     e(154 -154) =     16.04492  eV     1   --> G_2            
     e(155 -155) =     16.12622  eV     1   --> G_2            
     e(156 -156) =     16.12646  eV     1   --> G_2            
     e(157 -158) =     16.26700  eV     2   -->   2 G_2            
     e(159 -160) =     16.35842  eV     2   -->   2 G_2            
     e(161 -162) =     16.69335  eV     2   -->   2 G_2            
     e(163 -164) =     16.98866  eV     2   -->   2 G_2            
     e(165 -166) =     17.08650  eV     2   -->   2 G_2            
     e(167 -168) =     17.21921  eV     2   -->   2 G_2            
     e(169 -170) =     17.30800  eV     2   -->   2 G_2            
     e(171 -172) =     17.34220  eV     2   -->   2 G_2            
     e(173 -174) =     17.40673  eV     2   -->   2 G_2            
     e(175 -175) =     17.54007  eV     1   --> G_2            
     e(176 -176) =     17.54019  eV     1   --> G_2            
     e(177 -178) =     17.55994  eV     2   -->   2 G_2            
     e(179 -180) =     17.63723  eV     2   -->   2 G_2            
     e(181 -182) =     17.70571  eV     2   -->   2 G_2            
     e(183 -184) =     17.83469  eV     2   -->   2 G_2            
     e(185 -186) =     17.90109  eV     2   -->   2 G_2            
     e(187 -188) =     18.16776  eV     2   -->   2 G_2            
     e(189 -190) =     18.93464  eV     2   -->   2 G_2            
     e(191 -192) =     19.03485  eV     2   -->   2 G_2            
     e(193 -193) =     19.18881  eV     1   --> G_2            
     e(194 -194) =     19.18895  eV     1   --> G_2            
     e(195 -195) =     19.24342  eV     1   --> G_2            
     e(196 -196) =     19.24354  eV     1   --> G_2            
     e(197 -198) =     19.32949  eV     2   -->   2 G_2            
     e(199 -200) =     19.38500  eV     2   -->   2 G_2            

 **************************************************************************

 **************************************************************************

                    xk=(   0.01429,   0.00825,   0.00000  )

     Band symmetry, C_1 (1)     double point group:

     e(  1 -  2) =    -35.50404  eV     2   -->   2 G_2            
     e(  3 -  4) =    -35.49737  eV     2   -->   2 G_2            
     e(  5 -  6) =    -35.47544  eV     2   -->   2 G_2            
     e(  7 -  8) =    -35.46878  eV     2   -->   2 G_2            
     e(  9 - 10) =    -35.39468  eV     2   -->   2 G_2            
     e( 11 - 12) =    -35.36116  eV     2   -->   2 G_2            
     e( 13 - 14) =    -34.04474  eV     2   -->   2 G_2            
     e( 15 - 16) =    -34.03808  eV     2   -->   2 G_2            
     e( 17 - 18) =    -34.02055  eV     2   -->   2 G_2            
     e( 19 - 20) =    -34.01387  eV     2   -->   2 G_2            
     e( 21 - 22) =    -34.00758  eV     2   -->   2 G_2            
     e( 23 - 24) =    -34.00093  eV     2   -->   2 G_2            
     e( 25 - 26) =    -33.93228  eV     2   -->   2 G_2            
     e( 27 - 28) =    -33.91695  eV     2   -->   2 G_2            
     e( 29 - 30) =    -33.88865  eV     2   -->   2 G_2            
     e( 31 - 32) =    -28.13667  eV     2   -->   2 G_2            
     e( 33 - 34) =    -28.13209  eV     2   -->   2 G_2            
     e( 35 - 36) =    -28.12812  eV     2   -->   2 G_2            
     e( 37 - 38) =    -28.12360  eV     2   -->   2 G_2            
     e( 39 - 40) =    -26.89747  eV     2   -->   2 G_2            
     e( 41 - 42) =    -26.89288  eV     2   -->   2 G_2            
     e( 43 - 44) =    -26.88800  eV     2   -->   2 G_2            
     e( 45 - 46) =    -26.88626  eV     2   -->   2 G_2            
     e( 47 - 48) =    -26.88347  eV     2   -->   2 G_2            
     e( 49 - 50) =    -26.88174  eV     2   -->   2 G_2            
     e( 51 - 52) =    -10.63036  eV     2   -->   2 G_2            
     e( 53 - 54) =    -10.09818  eV     2   -->   2 G_2            
     e( 55 - 56) =     -9.01921  eV     2   -->   2 G_2            
     e( 57 - 58) =     -6.26733  eV     2   -->   2 G_2            
     e( 59 - 60) =     -4.87589  eV     2   -->   2 G_2            
     e( 61 - 62) =     -0.50797  eV     2   -->   2 G_2            
     e( 63 - 63) =     -0.04991  eV     1   --> G_2            
     e( 64 - 64) =     -0.04900  eV     1   --> G_2            
     e( 65 - 65) =      0.23888  eV     1   --> G_2            
     e( 66 - 66) =      0.23990  eV     1   --> G_2            
     e( 67 - 67) =      0.48200  eV     1   --> G_2            
     e( 68 - 68) =      0.48306  eV     1   --> G_2            
     e( 69 - 69) =      0.52886  eV     1   --> G_2            
     e( 70 - 70) =      0.53020  eV     1   --> G_2            
     e( 71 - 71) =      0.71152  eV     1   --> G_2            
     e( 72 - 72) =      0.71326  eV     1   --> G_2            
     e( 73 - 73) =      0.94123  eV     1   --> G_2            
     e( 74 - 74) =      0.94180  eV     1   --> G_2            
     e( 75 - 75) =      1.25925  eV     1   --> G_2            
     e( 76 - 76) =      1.25965  eV     1   --> G_2            
     e( 77 - 77) =      1.43735  eV     1   --> G_2            
     e( 78 - 78) =      1.43758  eV     1   --> G_2            
     e( 79 - 79) =      2.13502  eV     1   --> G_2            
     e( 80 - 80) =      2.13535  eV     1   --> G_2            
     e( 81 - 81) =      2.73689  eV     1   --> G_2            
     e( 82 - 82) =      2.73720  eV     1   --> G_2            
     e( 83 - 83) =      3.05658  eV     1   --> G_2            
     e( 84 - 84) =      3.05710  eV     1   --> G_2            
     e( 85 - 85) =      3.32136  eV     1   --> G_2            
     e( 86 - 86) =      3.32212  eV     1   --> G_2            
     e( 87 - 87) =      4.04865  eV     1   --> G_2            
     e( 88 - 88) =      4.04890  eV     1   --> G_2            
     e( 89 - 89) =      4.18818  eV     1   --> G_2            
     e( 90 - 90) =      4.18836  eV     1   --> G_2            
     e( 91 - 92) =      6.21290  eV     2   -->   2 G_2            
     e( 93 - 94) =      6.40249  eV     2   -->   2 G_2            
     e( 95 - 96) =      6.99226  eV     2   -->   2 G_2            
     e( 97 - 98) =      7.53437  eV     2   -->   2 G_2            
     e( 99 -100) =      7.61514  eV     2   -->   2 G_2            
     e(101 -102) =      7.84218  eV     2   -->   2 G_2            
     e(103 -104) =      8.40983  eV     2   -->   2 G_2            
     e(105 -105) =      8.62637  eV     1   --> G_2            
     e(106 -106) =      8.62713  eV     1   --> G_2            
     e(107 -107) =      8.75382  eV     1   --> G_2            
     e(108 -108) =      8.75506  eV     1   --> G_2            
     e(109 -109) =      8.88198  eV     1   --> G_2            
     e(110 -110) =      8.88247  eV     1   --> G_2            
     e(111 -112) =      9.16012  eV     2   -->   2 G_2            
     e(113 -114) =      9.63276  eV     2   -->   2 G_2            
     e(115 -116) =      9.72428  eV     2   -->   2 G_2            
     e(117 -118) =     10.02803  eV     2   -->   2 G_2            
     e(119 -120) =     10.13779  eV     2   -->   2 G_2            
     e(121 -122) =     10.54516  eV     2   -->   2 G_2            
     e(123 -123) =     11.05178  eV     1   --> G_2            
     e(124 -124) =     11.05189  eV     1   --> G_2            
     e(125 -125) =     11.31020  eV     1   --> G_2            
     e(126 -126) =     11.31074  eV     1   --> G_2            
     e(127 -127) =     11.42567  eV     1   --> G_2            
     e(128 -128) =     11.42624  eV     1   --> G_2            
     e(129 -129) =     11.64447  eV     1   --> G_2            
     e(130 -130) =     11.64482  eV     1   --> G_2            
     e(131 -131) =     11.73462  eV     1   --> G_2            
     e(132 -132) =     11.73495  eV     1   --> G_2            
     e(133 -134) =     12.81385  eV     2   -->   2 G_2            
     e(135 -136) =     12.87235  eV     2   -->   2 G_2            
     e(137 -138) =     13.83494  eV     2   -->   2 G_2            
     e(139 -139) =     14.07604  eV     1   --> G_2            
     e(140 -140) =     14.07615  eV     1   --> G_2            
     e(141 -141) =     14.19105  eV     1   --> G_2            
     e(142 -142) =     14.19139  eV     1   --> G_2            
     e(143 -143) =     14.30931  eV     1   --> G_2            
     e(144 -144) =     14.30956  eV     1   --> G_2            
     e(145 -146) =     14.42761  eV     2   -->   2 G_2            
     e(147 -148) =     15.09215  eV     2   -->   2 G_2            
     e(149 -149) =     15.67324  eV     1   --> G_2            
     e(150 -150) =     15.67335  eV     1   --> G_2            
     e(151 -151) =     15.94209  eV     1   --> G_2            
     e(152 -152) =     15.94229  eV     1   --> G_2            
     e(153 -153) =     16.02612  eV     1   --> G_2            
     e(154 -154) =     16.02623  eV     1   --> G_2            
     e(155 -155) =     16.19116  eV     1   --> G_2            
     e(156 -156) =     16.19143  eV     1   --> G_2            
     e(157 -157) =     16.29449  eV     1   --> G_2            
     e(158 -158) =     16.29462  eV     1   --> G_2            
     e(159 -160) =     16.36492  eV     2   -->   2 G_2            
     e(161 -161) =     16.70084  eV     1   --> G_2            
     e(162 -162) =     16.70095  eV     1   --> G_2            
     e(163 -164) =     16.87483  eV     2   -->   2 G_2            
     e(165 -166) =     17.04134  eV     2   -->   2 G_2            
     e(167 -168) =     17.23547  eV     2   -->   2 G_2            
     e(169 -170) =     17.25677  eV     2   -->   2 G_2            
     e(171 -172) =     17.36833  eV     2   -->   2 G_2            
     e(173 -174) =     17.40296  eV     2   -->   2 G_2            
     e(175 -176) =     17.52184  eV     2   -->   2 G_2            
     e(177 -178) =     17.60959  eV     2   -->   2 G_2            
     e(179 -180) =     17.68329  eV     2   -->   2 G_2            
     e(181 -182) =     17.73189  eV     2   -->   2 G_2            
     e(183 -183) =     17.88460  eV     1   --> G_2            
     e(184 -184) =     17.88473  eV     1   --> G_2            
     e(185 -185) =     17.93452  eV     1   --> G_2            
     e(186 -186) =     17.93464  eV     1   --> G_2            
     e(187 -188) =     18.19845  eV     2   -->   2 G_2            
     e(189 -190) =     18.82829  eV     2   -->   2 G_2            
     e(191 -192) =     18.95097  eV     2   -->   2 G_2            
     e(193 -193) =     19.14650  eV     1   --> G_2            
     e(194 -194) =     19.14662  eV     1   --> G_2            
     e(195 -196) =     19.30827  eV     2   -->   2 G_2            
     e(197 -198) =     19.32875  eV     2   -->   2 G_2            
     e(199 -200) =     19.38031  eV     2   -->   2 G_2            

 **************************************************************************

 **************************************************************************

                    xk=(   0.02143,   0.01237,   0.00000  )

     Band symmetry, C_1 (1)     double point group:

     e(  1 -  2) =    -35.50404  eV     2   -->   2 G_2            
     e(  3 -  4) =    -35.49737  eV     2   -->   2 G_2            
     e(  5 -  6) =    -35.47544  eV     2   -->   2 G_2            
     e(  7 -  8) =    -35.46878  eV     2   -->   2 G_2            
     e(  9 - 10) =    -35.39468  eV     2   -->   2 G_2            
     e( 11 - 12) =    -35.36116  eV     2   -->   2 G_2            
     e( 13 - 14) =    -34.04474  eV     2   -->   2 G_2            
     e( 15 - 16) =    -34.03808  eV     2   -->   2 G_2            
     e( 17 - 18) =    -34.02055  eV     2   -->   2 G_2            
     e( 19 - 20) =    -34.01387  eV     2   -->   2 G_2            
     e( 21 - 22) =    -34.00758  eV     2   -->   2 G_2            
     e( 23 - 24) =    -34.00093  eV     2   -->   2 G_2            
     e( 25 - 26) =    -33.93228  eV     2   -->   2 G_2            
     e( 27 - 28) =    -33.91695  eV     2   -->   2 G_2            
     e( 29 - 30) =    -33.88865  eV     2   -->   2 G_2            
     e( 31 - 32) =    -28.13666  eV     2   -->   2 G_2            
     e( 33 - 34) =    -28.13209  eV     2   -->   2 G_2            
     e( 35 - 36) =    -28.12812  eV     2   -->   2 G_2            
     e( 37 - 38) =    -28.12361  eV     2   -->   2 G_2            
     e( 39 - 40) =    -26.89746  eV     2   -->   2 G_2            
     e( 41 - 42) =    -26.89288  eV     2   -->   2 G_2            
     e( 43 - 44) =    -26.88800  eV     2   -->   2 G_2            
     e( 45 - 46) =    -26.88626  eV     2   -->   2 G_2            
     e( 47 - 48) =    -26.88348  eV     2   -->   2 G_2            
     e( 49 - 50) =    -26.88174  eV     2   -->   2 G_2            
     e( 51 - 52) =    -10.62821  eV     2   -->   2 G_2            
     e( 53 - 54) =    -10.09621  eV     2   -->   2 G_2            
     e( 55 - 56) =     -9.01801  eV     2   -->   2 G_2            
     e( 57 - 58) =     -6.26766  eV     2   -->   2 G_2            
     e( 59 - 60) =     -4.87978  eV     2   -->   2 G_2            
     e( 61 - 61) =     -0.51163  eV     1   --> G_2            
     e( 62 - 62) =     -0.51150  eV     1   --> G_2            
     e( 63 - 63) =     -0.07789  eV     1   --> G_2            
     e( 64 - 64) =     -0.07666  eV     1   --> G_2            
     e( 65 - 65) =      0.24065  eV     1   --> G_2            
     e( 66 - 66) =      0.24199  eV     1   --> G_2            
     e( 67 - 67) =      0.45461  eV     1   --> G_2            
     e( 68 - 68) =      0.45652  eV     1   --> G_2            
     e( 69 - 69) =      0.50655  eV     1   --> G_2            
     e( 70 - 70) =      0.50791  eV     1   --> G_2            
     e( 71 - 71) =      0.72879  eV     1   --> G_2            
     e( 72 - 72) =      0.73074  eV     1   --> G_2            
     e( 73 - 73) =      0.95502  eV     1   --> G_2            
     e( 74 - 74) =      0.95583  eV     1   --> G_2            
     e( 75 - 75) =      1.24437  eV     1   --> G_2            
     e( 76 - 76) =      1.24495  eV     1   --> G_2            
     e( 77 - 77) =      1.45418  eV     1   --> G_2            
     e( 78 - 78) =      1.45453  eV     1   --> G_2            
     e( 79 - 79) =      2.16241  eV     1   --> G_2            
     e( 80 - 80) =      2.16290  eV     1   --> G_2            
     e( 81 - 81) =      2.73493  eV     1   --> G_2            
     e( 82 - 82) =      2.73536  eV     1   --> G_2            
     e( 83 - 83) =      3.03730  eV     1   --> G_2            
     e( 84 - 84) =      3.03794  eV     1   --> G_2            
     e( 85 - 85) =      3.34582  eV     1   --> G_2            
     e( 86 - 86) =      3.34681  eV     1   --> G_2            
     e( 87 - 87) =      4.05969  eV     1   --> G_2            
     e( 88 - 88) =      4.06007  eV     1   --> G_2            
     e( 89 - 89) =      4.18677  eV     1   --> G_2            
     e( 90 - 90) =      4.18703  eV     1   --> G_2            
     e( 91 - 92) =      6.21684  eV     2   -->   2 G_2            
     e( 93 - 94) =      6.40327  eV     2   -->   2 G_2            
     e( 95 - 96) =      6.99312  eV     2   -->   2 G_2            
     e( 97 - 98) =      7.52034  eV     2   -->   2 G_2            
     e( 99 -100) =      7.61455  eV     2   -->   2 G_2            
     e(101 -102) =      7.84436  eV     2   -->   2 G_2            
     e(103 -104) =      8.42373  eV     2   -->   2 G_2            
     e(105 -105) =      8.61892  eV     1   --> G_2            
     e(106 -106) =      8.62000  eV     1   --> G_2            
     e(107 -107) =      8.74424  eV     1   --> G_2            
     e(108 -108) =      8.74590  eV     1   --> G_2            
     e(109 -109) =      8.88662  eV     1   --> G_2            
     e(110 -110) =      8.88721  eV     1   --> G_2            
     e(111 -112) =      9.15551  eV     2   -->   2 G_2            
     e(113 -114) =      9.65757  eV     2   -->   2 G_2            
     e(115 -116) =      9.73527  eV     2   -->   2 G_2            
     e(117 -118) =     10.02232  eV     2   -->   2 G_2            
     e(119 -119) =     10.15041  eV     1   --> G_2            
     e(120 -120) =     10.15052  eV     1   --> G_2            
     e(121 -122) =     10.55723  eV     2   -->   2 G_2            
     e(123 -123) =     11.04636  eV     1   --> G_2            
     e(124 -124) =     11.04652  eV     1   --> G_2            
     e(125 -125) =     11.28378  eV     1   --> G_2            
     e(126 -126) =     11.28442  eV     1   --> G_2            
     e(127 -127) =     11.38602  eV     1   --> G_2            
     e(128 -128) =     11.38660  eV     1   --> G_2            
     e(129 -129) =     11.70053  eV     1   --> G_2            
     e(130 -130) =     11.70109  eV     1   --> G_2            
     e(131 -131) =     11.76984  eV     1   --> G_2            
     e(132 -132) =     11.77038  eV     1   --> G_2            
     e(133 -134) =     12.81025  eV     2   -->   2 G_2            
     e(135 -136) =     12.87896  eV     2   -->   2 G_2            
     e(137 -138) =     13.78871  eV     2   -->   2 G_2            
     e(139 -140) =     14.03449  eV     2   -->   2 G_2            
     e(141 -141) =     14.21659  eV     1   --> G_2            
     e(142 -142) =     14.21690  eV     1   --> G_2            
     e(143 -143) =     14.34495  eV     1   --> G_2            
     e(144 -144) =     14.34524  eV     1   --> G_2            
     e(145 -145) =     14.45211  eV     1   --> G_2            
     e(146 -146) =     14.45225  eV     1   --> G_2            
     e(147 -148) =     15.09932  eV     2   -->   2 G_2            
     e(149 -149) =     15.61147  eV     1   --> G_2            
     e(150 -150) =     15.61159  eV     1   --> G_2            
     e(151 -151) =     15.90070  eV     1   --> G_2            
     e(152 -152) =     15.90084  eV     1   --> G_2            
     e(153 -154) =     16.00421  eV     2   -->   2 G_2            
     e(155 -155) =     16.25211  eV     1   --> G_2            
     e(156 -156) =     16.25238  eV     1   --> G_2            
     e(157 -158) =     16.32018  eV     2   -->   2 G_2            
     e(159 -159) =     16.38603  eV     1   --> G_2            
     e(160 -160) =     16.38613  eV     1   --> G_2            
     e(161 -161) =     16.70168  eV     1   --> G_2            
     e(162 -162) =     16.70193  eV     1   --> G_2            
     e(163 -163) =     16.77835  eV     1   --> G_2            
     e(164 -164) =     16.77856  eV     1   --> G_2            
     e(165 -166) =     16.95917  eV     2   -->   2 G_2            
     e(167 -168) =     17.18000  eV     2   -->   2 G_2            
     e(169 -170) =     17.22751  eV     2   -->   2 G_2            
     e(171 -172) =     17.36991  eV     2   -->   2 G_2            
     e(173 -174) =     17.45551  eV     2   -->   2 G_2            
     e(175 -176) =     17.50139  eV     2   -->   2 G_2            
     e(177 -178) =     17.66306  eV     2   -->   2 G_2            
     e(179 -180) =     17.68420  eV     2   -->   2 G_2            
     e(181 -182) =     17.83002  eV     2   -->   2 G_2            
     e(183 -183) =     17.95585  eV     1   --> G_2            
     e(184 -184) =     17.95601  eV     1   --> G_2            
     e(185 -185) =     17.98742  eV     1   --> G_2            
     e(186 -186) =     17.98758  eV     1   --> G_2            
     e(187 -188) =     18.24214  eV     2   -->   2 G_2            
     e(189 -190) =     18.71806  eV     2   -->   2 G_2            
     e(191 -192) =     18.84656  eV     2   -->   2 G_2            
     e(193 -194) =     19.08193  eV     2   -->   2 G_2            
     e(195 -196) =     19.28701  eV     2   -->   2 G_2            
     e(197 -198) =     19.34818  eV     2   -->   2 G_2            
     e(199 -200) =     19.39850  eV     2   -->   2 G_2            

 **************************************************************************

 **************************************************************************

                    xk=(   0.02857,   0.01650,   0.00000  )

     Band symmetry, C_1 (1)     double point group:

     e(  1 -  2) =    -35.50403  eV     2   -->   2 G_2            
     e(  3 -  4) =    -35.49737  eV     2   -->   2 G_2            
     e(  5 -  6) =    -35.47544  eV     2   -->   2 G_2            
     e(  7 -  8) =    -35.46878  eV     2   -->   2 G_2            
     e(  9 - 10) =    -35.39468  eV     2   -->   2 G_2            
     e( 11 - 12) =    -35.36116  eV     2   -->   2 G_2            
     e( 13 - 14) =    -34.04474  eV     2   -->   2 G_2            
     e( 15 - 16) =    -34.03808  eV     2   -->   2 G_2            
     e( 17 - 18) =    -34.02055  eV     2   -->   2 G_2            
     e( 19 - 20) =    -34.01387  eV     2   -->   2 G_2            
     e( 21 - 22) =    -34.00758  eV     2   -->   2 G_2            
     e( 23 - 24) =    -34.00093  eV     2   -->   2 G_2            
     e( 25 - 26) =    -33.93228  eV     2   -->   2 G_2            
     e( 27 - 28) =    -33.91695  eV     2   -->   2 G_2            
     e( 29 - 30) =    -33.88865  eV     2   -->   2 G_2            
     e( 31 - 32) =    -28.13666  eV     2   -->   2 G_2            
     e( 33 - 34) =    -28.13209  eV     2   -->   2 G_2            
     e( 35 - 36) =    -28.12813  eV     2   -->   2 G_2            
     e( 37 - 38) =    -28.12361  eV     2   -->   2 G_2            
     e( 39 - 40) =    -26.89746  eV     2   -->   2 G_2            
     e( 41 - 42) =    -26.89287  eV     2   -->   2 G_2            
     e( 43 - 44) =    -26.88801  eV     2   -->   2 G_2            
     e( 45 - 46) =    -26.88626  eV     2   -->   2 G_2            
     e( 47 - 48) =    -26.88348  eV     2   -->   2 G_2            
     e( 49 - 50) =    -26.88174  eV     2   -->   2 G_2            
     e( 51 - 52) =    -10.62520  eV     2   -->   2 G_2            
     e( 53 - 54) =    -10.09346  eV     2   -->   2 G_2            
     e( 55 - 56) =     -9.01632  eV     2   -->   2 G_2            
     e( 57 - 58) =     -6.26812  eV     2   -->   2 G_2            
     e( 59 - 60) =     -4.88522  eV     2   -->   2 G_2            
     e( 61 - 61) =     -0.51681  eV     1   --> G_2            
     e( 62 - 62) =     -0.51666  eV     1   --> G_2            
     e( 63 - 63) =     -0.11386  eV     1   --> G_2            
     e( 64 - 64) =     -0.11238  eV     1   --> G_2            
     e( 65 - 65) =      0.24030  eV     1   --> G_2            
     e( 66 - 66) =      0.24182  eV     1   --> G_2            
     e( 67 - 67) =      0.41211  eV     1   --> G_2            
     e( 68 - 68) =      0.41430  eV     1   --> G_2            
     e( 69 - 69) =      0.49423  eV     1   --> G_2            
     e( 70 - 70) =      0.49541  eV     1   --> G_2            
     e( 71 - 71) =      0.74042  eV     1   --> G_2            
     e( 72 - 72) =      0.74245  eV     1   --> G_2            
     e( 73 - 73) =      0.97161  eV     1   --> G_2            
     e( 74 - 74) =      0.97263  eV     1   --> G_2            
     e( 75 - 75) =      1.22760  eV     1   --> G_2            
     e( 76 - 76) =      1.22835  eV     1   --> G_2            
     e( 77 - 77) =      1.47778  eV     1   --> G_2            
     e( 78 - 78) =      1.47823  eV     1   --> G_2            
     e( 79 - 79) =      2.19666  eV     1   --> G_2            
     e( 80 - 80) =      2.19730  eV     1   --> G_2            
     e( 81 - 81) =      2.73211  eV     1   --> G_2            
     e( 82 - 82) =      2.73261  eV     1   --> G_2            
     e( 83 - 83) =      3.01880  eV     1   --> G_2            
     e( 84 - 84) =      3.01950  eV     1   --> G_2            
     e( 85 - 85) =      3.37316  eV     1   --> G_2            
     e( 86 - 86) =      3.37433  eV     1   --> G_2            
     e( 87 - 87) =      4.07416  eV     1   --> G_2            
     e( 88 - 88) =      4.07467  eV     1   --> G_2            
     e( 89 - 89) =      4.18578  eV     1   --> G_2            
     e( 90 - 90) =      4.18615  eV     1   --> G_2            
     e( 91 - 92) =      6.22232  eV     2   -->   2 G_2            
     e( 93 - 94) =      6.40434  eV     2   -->   2 G_2            
     e( 95 - 96) =      6.99416  eV     2   -->   2 G_2            
     e( 97 - 98) =      7.50095  eV     2   -->   2 G_2            
     e( 99 -100) =      7.61439  eV     2   -->   2 G_2            
     e(101 -102) =      7.84804  eV     2   -->   2 G_2            
     e(103 -104) =      8.44165  eV     2   -->   2 G_2            
     e(105 -105) =      8.60724  eV     1   --> G_2            
     e(106 -106) =      8.60854  eV     1   --> G_2            
     e(107 -107) =      8.73221  eV     1   --> G_2            
     e(108 -108) =      8.73407  eV     1   --> G_2            
     e(109 -109) =      8.89612  eV     1   --> G_2            
     e(110 -110) =      8.89670  eV     1   --> G_2            
     e(111 -112) =      9.15013  eV     2   -->   2 G_2            
     e(113 -114) =      9.68702  eV     2   -->   2 G_2            
     e(115 -116) =      9.75008  eV     2   -->   2 G_2            
     e(117 -118) =     10.01659  eV     2   -->   2 G_2            
     e(119 -119) =     10.16802  eV     1   --> G_2            
     e(120 -120) =     10.16814  eV     1   --> G_2            
     e(121 -122) =     10.57443  eV     2   -->   2 G_2            
     e(123 -123) =     11.03598  eV     1   --> G_2            
     e(124 -124) =     11.03619  eV     1   --> G_2            
     e(125 -125) =     11.25380  eV     1   --> G_2            
     e(126 -126) =     11.25441  eV     1   --> G_2            
     e(127 -127) =     11.35399  eV     1   --> G_2            
     e(128 -128) =     11.35448  eV     1   --> G_2            
     e(129 -129) =     11.75420  eV     1   --> G_2            
     e(130 -130) =     11.75492  eV     1   --> G_2            
     e(131 -131) =     11.81586  eV     1   --> G_2            
     e(132 -132) =     11.81656  eV     1   --> G_2            
     e(133 -134) =     12.80578  eV     2   -->   2 G_2            
     e(135 -136) =     12.88764  eV     2   -->   2 G_2            
     e(137 -137) =     13.73678  eV     1   --> G_2            
     e(138 -138) =     13.73689  eV     1   --> G_2            
     e(139 -140) =     13.99134  eV     2   -->   2 G_2            
     e(141 -141) =     14.23606  eV     1   --> G_2            
     e(142 -142) =     14.23632  eV     1   --> G_2            
     e(143 -143) =     14.38379  eV     1   --> G_2            
     e(144 -144) =     14.38406  eV     1   --> G_2            
     e(145 -145) =     14.48772  eV     1   --> G_2            
     e(146 -146) =     14.48788  eV     1   --> G_2            
     e(147 -148) =     15.09728  eV     2   -->   2 G_2            
     e(149 -149) =     15.55723  eV     1   --> G_2            
     e(150 -150) =     15.55736  eV     1   --> G_2            
     e(151 -151) =     15.85814  eV     1   --> G_2            
     e(152 -152) =     15.85824  eV     1   --> G_2            
     e(153 -154) =     15.97914  eV     2   -->   2 G_2            
     e(155 -155) =     16.28975  eV     1   --> G_2            
     e(156 -156) =     16.28992  eV     1   --> G_2            
     e(157 -158) =     16.33945  eV     2   -->   2 G_2            
     e(159 -159) =     16.42663  eV     1   --> G_2            
     e(160 -160) =     16.42677  eV     1   --> G_2            
     e(161 -161) =     16.63353  eV     1   --> G_2            
     e(162 -162) =     16.63367  eV     1   --> G_2            
     e(163 -163) =     16.76280  eV     1   --> G_2            
     e(164 -164) =     16.76290  eV     1   --> G_2            
     e(165 -166) =     16.86531  eV     2   -->   2 G_2            
     e(167 -168) =     17.12176  eV     2   -->   2 G_2            
     e(169 -170) =     17.20857  eV     2   -->   2 G_2            
     e(171 -172) =     17.33418  eV     2   -->   2 G_2            
     e(173 -174) =     17.42618  eV     2   -->   2 G_2            
     e(175 -176) =     17.58598  eV     2   -->   2 G_2            
     e(177 -178) =     17.66512  eV     2   -->   2 G_2            
     e(179 -180) =     17.74449  eV     2   -->   2 G_2            
     e(181 -182) =     17.92927  eV     2   -->   2 G_2            
     e(183 -183) =     18.04369  eV     1   --> G_2            
     e(184 -184) =     18.04390  eV     1   --> G_2            
     e(185 -185) =     18.05497  eV     1   --> G_2            
     e(186 -186) =     18.05519  eV     1   --> G_2            
     e(187 -188) =     18.29108  eV     2   -->   2 G_2            
     e(189 -190) =     18.61648  eV     2   -->   2 G_2            
     e(191 -192) =     18.73323  eV     2   -->   2 G_2            
     e(193 -194) =     19.01688  eV     2   -->   2 G_2            
     e(195 -196) =     19.24003  eV     2   -->   2 G_2            
     e(197 -198) =     19.32570  eV     2   -->   2 G_2            
     e(199 -200) =     19.39090  eV     2   -->   2 G_2            

 **************************************************************************

 **************************************************************************

                    xk=(   0.03571,   0.02062,   0.00000  )

     Band symmetry, C_1 (1)     double point group:

     e(  1 -  2) =    -35.50403  eV     2   -->   2 G_2            
     e(  3 -  4) =    -35.49737  eV     2   -->   2 G_2            
     e(  5 -  6) =    -35.47544  eV     2   -->   2 G_2            
     e(  7 -  8) =    -35.46878  eV     2   -->   2 G_2            
     e(  9 - 10) =    -35.39468  eV     2   -->   2 G_2            
     e( 11 - 12) =    -35.36116  eV     2   -->   2 G_2            
     e( 13 - 14) =    -34.04473  eV     2   -->   2 G_2            
     e( 15 - 16) =    -34.03808  eV     2   -->   2 G_2            
     e( 17 - 18) =    -34.02055  eV     2   -->   2 G_2            
     e( 19 - 20) =    -34.01388  eV     2   -->   2 G_2            
     e( 21 - 22) =    -34.00758  eV     2   -->   2 G_2            
     e( 23 - 24) =    -34.00093  eV     2   -->   2 G_2            
     e( 25 - 26) =    -33.93228  eV     2   -->   2 G_2            
     e( 27 - 28) =    -33.91695  eV     2   -->   2 G_2            
     e( 29 - 30) =    -33.88864  eV     2   -->   2 G_2            
     e( 31 - 32) =    -28.13666  eV     2   -->   2 G_2            
     e( 33 - 34) =    -28.13208  eV     2   -->   2 G_2            
     e( 35 - 36) =    -28.12813  eV     2   -->   2 G_2            
     e( 37 - 38) =    -28.12361  eV     2   -->   2 G_2            
     e( 39 - 40) =    -26.89745  eV     2   -->   2 G_2            
     e( 41 - 42) =    -26.89287  eV     2   -->   2 G_2            
     e( 43 - 44) =    -26.88802  eV     2   -->   2 G_2            
     e( 45 - 46) =    -26.88626  eV     2   -->   2 G_2            
     e( 47 - 48) =    -26.88349  eV     2   -->   2 G_2            
     e( 49 - 50) =    -26.88174  eV     2   -->   2 G_2            
     e( 51 - 52) =    -10.62133  eV     2   -->   2 G_2            
     e( 53 - 54) =    -10.08991  eV     2   -->   2 G_2            
     e( 55 - 56) =     -9.01416  eV     2   -->   2 G_2            
     e( 57 - 58) =     -6.26872  eV     2   -->   2 G_2            
     e( 59 - 60) =     -4.89222  eV     2   -->   2 G_2            
     e( 61 - 61) =     -0.52362  eV     1   --> G_2            
     e( 62 - 62) =     -0.52345  eV     1   --> G_2            
     e( 63 - 63) =     -0.15620  eV     1   --> G_2            
     e( 64 - 64) =     -0.15452  eV     1   --> G_2            
     e( 65 - 65) =      0.23644  eV     1   --> G_2            
     e( 66 - 66) =      0.23800  eV     1   --> G_2            
     e( 67 - 67) =      0.36419  eV     1   --> G_2            
     e( 68 - 68) =      0.36652  eV     1   --> G_2            
     e( 69 - 69) =      0.48435  eV     1   --> G_2            
     e( 70 - 70) =      0.48534  eV     1   --> G_2            
     e( 71 - 71) =      0.74539  eV     1   --> G_2            
     e( 72 - 72) =      0.74742  eV     1   --> G_2            
     e( 73 - 73) =      0.98761  eV     1   --> G_2            
     e( 74 - 74) =      0.98880  eV     1   --> G_2            
     e( 75 - 75) =      1.21372  eV     1   --> G_2            
     e( 76 - 76) =      1.21462  eV     1   --> G_2            
     e( 77 - 77) =      1.50684  eV     1   --> G_2            
     e( 78 - 78) =      1.50736  eV     1   --> G_2            
     e( 79 - 79) =      2.23461  eV     1   --> G_2            
     e( 80 - 80) =      2.23542  eV     1   --> G_2            
     e( 81 - 81) =      2.72887  eV     1   --> G_2            
     e( 82 - 82) =      2.72937  eV     1   --> G_2            
     e( 83 - 83) =      3.00447  eV     1   --> G_2            
     e( 84 - 84) =      3.00515  eV     1   --> G_2            
     e( 85 - 85) =      3.40110  eV     1   --> G_2            
     e( 86 - 86) =      3.40240  eV     1   --> G_2            
     e( 87 - 87) =      4.09052  eV     1   --> G_2            
     e( 88 - 88) =      4.09115  eV     1   --> G_2            
     e( 89 - 89) =      4.18671  eV     1   --> G_2            
     e( 90 - 90) =      4.18717  eV     1   --> G_2            
     e( 91 - 92) =      6.22931  eV     2   -->   2 G_2            
     e( 93 - 94) =      6.40569  eV     2   -->   2 G_2            
     e( 95 - 96) =      6.99516  eV     2   -->   2 G_2            
     e( 97 - 98) =      7.47703  eV     2   -->   2 G_2            
     e( 99 -100) =      7.61474  eV     2   -->   2 G_2            
     e(101 -102) =      7.85351  eV     2   -->   2 G_2            
     e(103 -104) =      8.46231  eV     2   -->   2 G_2            
     e(105 -105) =      8.59030  eV     1   --> G_2            
     e(106 -106) =      8.59169  eV     1   --> G_2            
     e(107 -107) =      8.72066  eV     1   --> G_2            
     e(108 -108) =      8.72250  eV     1   --> G_2            
     e(109 -109) =      8.91051  eV     1   --> G_2            
     e(110 -110) =      8.91101  eV     1   --> G_2            
     e(111 -112) =      9.14461  eV     2   -->   2 G_2            
     e(113 -114) =      9.71663  eV     2   -->   2 G_2            
     e(115 -115) =      9.76815  eV     1   --> G_2            
     e(116 -116) =      9.76828  eV     1   --> G_2            
     e(117 -118) =     10.01353  eV     2   -->   2 G_2            
     e(119 -119) =     10.19059  eV     1   --> G_2            
     e(120 -120) =     10.19072  eV     1   --> G_2            
     e(121 -122) =     10.59698  eV     2   -->   2 G_2            
     e(123 -123) =     11.01867  eV     1   --> G_2            
     e(124 -124) =     11.01893  eV     1   --> G_2            
     e(125 -125) =     11.22477  eV     1   --> G_2            
     e(126 -126) =     11.22526  eV     1   --> G_2            
     e(127 -127) =     11.32962  eV     1   --> G_2            
     e(128 -128) =     11.32996  eV     1   --> G_2            
     e(129 -129) =     11.80539  eV     1   --> G_2            
     e(130 -130) =     11.80615  eV     1   --> G_2            
     e(131 -131) =     11.86962  eV     1   --> G_2            
     e(132 -132) =     11.87034  eV     1   --> G_2            
     e(133 -134) =     12.80064  eV     2   -->   2 G_2            
     e(135 -136) =     12.89820  eV     2   -->   2 G_2            
     e(137 -137) =     13.68284  eV     1   --> G_2            
     e(138 -138) =     13.68295  eV     1   --> G_2            
     e(139 -140) =     13.94817  eV     2   -->   2 G_2            
     e(141 -141) =     14.24868  eV     1   --> G_2            
     e(142 -142) =     14.24889  eV     1   --> G_2            
     e(143 -143) =     14.42597  eV     1   --> G_2            
     e(144 -144) =     14.42620  eV     1   --> G_2            
     e(145 -145) =     14.53058  eV     1   --> G_2            
     e(146 -146) =     14.53076  eV     1   --> G_2            
     e(147 -147) =     15.07561  eV     1   --> G_2            
     e(148 -148) =     15.07572  eV     1   --> G_2            
     e(149 -149) =     15.52500  eV     1   --> G_2            
     e(150 -150) =     15.52511  eV     1   --> G_2            
     e(151 -152) =     15.81573  eV     2   -->   2 G_2            
     e(153 -154) =     15.94955  eV     2   -->   2 G_2            
     e(155 -156) =     16.28886  eV     2   -->   2 G_2            
     e(157 -157) =     16.36020  eV     1   --> G_2            
     e(158 -158) =     16.36031  eV     1   --> G_2            
     e(159 -159) =     16.47577  eV     1   --> G_2            
     e(160 -160) =     16.47590  eV     1   --> G_2            
     e(161 -162) =     16.54880  eV     2   -->   2 G_2            
     e(163 -164) =     16.72045  eV     2   -->   2 G_2            
     e(165 -166) =     16.84143  eV     2   -->   2 G_2            
     e(167 -168) =     17.06806  eV     2   -->   2 G_2            
     e(169 -170) =     17.18326  eV     2   -->   2 G_2            
     e(171 -172) =     17.29536  eV     2   -->   2 G_2            
     e(173 -174) =     17.38454  eV     2   -->   2 G_2            
     e(175 -175) =     17.65811  eV     1   --> G_2            
     e(176 -176) =     17.65828  eV     1   --> G_2            
     e(177 -177) =     17.68141  eV     1   --> G_2            
     e(178 -178) =     17.68159  eV     1   --> G_2            
     e(179 -180) =     17.82980  eV     2   -->   2 G_2            
     e(181 -182) =     18.01503  eV     2   -->   2 G_2            
     e(183 -184) =     18.11621  eV     2   -->   2 G_2            
     e(185 -186) =     18.15521  eV     2   -->   2 G_2            
     e(187 -188) =     18.33240  eV     2   -->   2 G_2            
     e(189 -190) =     18.54363  eV     2   -->   2 G_2            
     e(191 -192) =     18.61733  eV     2   -->   2 G_2            
     e(193 -194) =     18.95275  eV     2   -->   2 G_2            
     e(195 -196) =     19.18967  eV     2   -->   2 G_2            
     e(197 -198) =     19.28721  eV     2   -->   2 G_2            
     e(199 -200) =     19.35196  eV     2   -->   2 G_2            

 **************************************************************************

 **************************************************************************

                    xk=(   0.04286,   0.02474,   0.00000  )

     Band symmetry, C_1 (1)     double point group:

     e(  1 -  2) =    -35.50403  eV     2   -->   2 G_2            
     e(  3 -  4) =    -35.49737  eV     2   -->   2 G_2            
     e(  5 -  6) =    -35.47544  eV     2   -->   2 G_2            
     e(  7 -  8) =    -35.46878  eV     2   -->   2 G_2            
     e(  9 - 10) =    -35.39468  eV     2   -->   2 G_2            
     e( 11 - 12) =    -35.36115  eV     2   -->   2 G_2            
     e( 13 - 14) =    -34.04473  eV     2   -->   2 G_2            
     e( 15 - 16) =    -34.03807  eV     2   -->   2 G_2            
     e( 17 - 18) =    -34.02055  eV     2   -->   2 G_2            
     e( 19 - 20) =    -34.01388  eV     2   -->   2 G_2            
     e( 21 - 22) =    -34.00758  eV     2   -->   2 G_2            
     e( 23 - 24) =    -34.00093  eV     2   -->   2 G_2            
     e( 25 - 26) =    -33.93228  eV     2   -->   2 G_2            
     e( 27 - 28) =    -33.91695  eV     2   -->   2 G_2            
     e( 29 - 30) =    -33.88864  eV     2   -->   2 G_2            
     e( 31 - 32) =    -28.13666  eV     2   -->   2 G_2            
     e( 33 - 34) =    -28.13208  eV     2   -->   2 G_2            
     e( 35 - 36) =    -28.12813  eV     2   -->   2 G_2            
     e( 37 - 38) =    -28.12362  eV     2   -->   2 G_2            
     e( 39 - 40) =    -26.89744  eV     2   -->   2 G_2            
     e( 41 - 42) =    -26.89286  eV     2   -->   2 G_2            
     e( 43 - 44) =    -26.88803  eV     2   -->   2 G_2            
     e( 45 - 46) =    -26.88626  eV     2   -->   2 G_2            
     e( 47 - 48) =    -26.88350  eV     2   -->   2 G_2            
     e( 49 - 50) =    -26.88174  eV     2   -->   2 G_2            
     e( 51 - 52) =    -10.61661  eV     2   -->   2 G_2            
     e( 53 - 54) =    -10.08559  eV     2   -->   2 G_2            
     e( 55 - 56) =     -9.01153  eV     2   -->   2 G_2            
     e( 57 - 58) =     -6.26948  eV     2   -->   2 G_2            
     e( 59 - 60) =     -4.90077  eV     2   -->   2 G_2            
     e( 61 - 61) =     -0.53217  eV     1   --> G_2            
     e( 62 - 62) =     -0.53201  eV     1   --> G_2            
     e( 63 - 63) =     -0.20361  eV     1   --> G_2            
     e( 64 - 64) =     -0.20175  eV     1   --> G_2            
     e( 65 - 65) =      0.22797  eV     1   --> G_2            
     e( 66 - 66) =      0.22943  eV     1   --> G_2            
     e( 67 - 67) =      0.31512  eV     1   --> G_2            
     e( 68 - 68) =      0.31758  eV     1   --> G_2            
     e( 69 - 69) =      0.47419  eV     1   --> G_2            
     e( 70 - 70) =      0.47496  eV     1   --> G_2            
     e( 71 - 71) =      0.74349  eV     1   --> G_2            
     e( 72 - 72) =      0.74545  eV     1   --> G_2            
     e( 73 - 73) =      0.99934  eV     1   --> G_2            
     e( 74 - 74) =      1.00060  eV     1   --> G_2            
     e( 75 - 75) =      1.20804  eV     1   --> G_2            
     e( 76 - 76) =      1.20901  eV     1   --> G_2            
     e( 77 - 77) =      1.53951  eV     1   --> G_2            
     e( 78 - 78) =      1.54008  eV     1   --> G_2            
     e( 79 - 79) =      2.27298  eV     1   --> G_2            
     e( 80 - 80) =      2.27395  eV     1   --> G_2            
     e( 81 - 81) =      2.72656  eV     1   --> G_2            
     e( 82 - 82) =      2.72698  eV     1   --> G_2            
     e( 83 - 83) =      2.99637  eV     1   --> G_2            
     e( 84 - 84) =      2.99698  eV     1   --> G_2            
     e( 85 - 85) =      3.42835  eV     1   --> G_2            
     e( 86 - 86) =      3.42975  eV     1   --> G_2            
     e( 87 - 87) =      4.10593  eV     1   --> G_2            
     e( 88 - 88) =      4.10668  eV     1   --> G_2            
     e( 89 - 89) =      4.19230  eV     1   --> G_2            
     e( 90 - 90) =      4.19284  eV     1   --> G_2            
     e( 91 - 91) =      6.23776  eV     1   --> G_2            
     e( 92 - 92) =      6.23788  eV     1   --> G_2            
     e( 93 - 93) =      6.40728  eV     1   --> G_2            
     e( 94 - 94) =      6.40739  eV     1   --> G_2            
     e( 95 - 96) =      6.99585  eV     2   -->   2 G_2            
     e( 97 - 98) =      7.44975  eV     2   -->   2 G_2            
     e( 99 -100) =      7.61555  eV     2   -->   2 G_2            
     e(101 -102) =      7.86095  eV     2   -->   2 G_2            
     e(103 -104) =      8.48400  eV     2   -->   2 G_2            
     e(105 -105) =      8.56841  eV     1   --> G_2            
     e(106 -106) =      8.56972  eV     1   --> G_2            
     e(107 -107) =      8.71215  eV     1   --> G_2            
     e(108 -108) =      8.71381  eV     1   --> G_2            
     e(109 -109) =      8.92904  eV     1   --> G_2            
     e(110 -110) =      8.92944  eV     1   --> G_2            
     e(111 -112) =      9.13952  eV     2   -->   2 G_2            
     e(113 -114) =      9.74121  eV     2   -->   2 G_2            
     e(115 -115) =      9.78894  eV     1   --> G_2            
     e(116 -116) =      9.78910  eV     1   --> G_2            
     e(117 -117) =     10.01698  eV     1   --> G_2            
     e(118 -118) =     10.01713  eV     1   --> G_2            
     e(119 -119) =     10.21800  eV     1   --> G_2            
     e(120 -120) =     10.21813  eV     1   --> G_2            
     e(121 -122) =     10.62504  eV     2   -->   2 G_2            
     e(123 -123) =     10.99374  eV     1   --> G_2            
     e(124 -124) =     10.99404  eV     1   --> G_2            
     e(125 -125) =     11.19916  eV     1   --> G_2            
     e(126 -126) =     11.19950  eV     1   --> G_2            
     e(127 -127) =     11.31278  eV     1   --> G_2            
     e(128 -128) =     11.31300  eV     1   --> G_2            
     e(129 -129) =     11.85554  eV     1   --> G_2            
     e(130 -130) =     11.85627  eV     1   --> G_2            
     e(131 -131) =     11.92723  eV     1   --> G_2            
     e(132 -132) =     11.92791  eV     1   --> G_2            
     e(133 -134) =     12.79494  eV     2   -->   2 G_2            
     e(135 -136) =     12.91054  eV     2   -->   2 G_2            
     e(137 -137) =     13.62924  eV     1   --> G_2            
     e(138 -138) =     13.62935  eV     1   --> G_2            
     e(139 -140) =     13.90576  eV     2   -->   2 G_2            
     e(141 -141) =     14.25738  eV     1   --> G_2            
     e(142 -142) =     14.25754  eV     1   --> G_2            
     e(143 -143) =     14.46996  eV     1   --> G_2            
     e(144 -144) =     14.47015  eV     1   --> G_2            
     e(145 -145) =     14.57597  eV     1   --> G_2            
     e(146 -146) =     14.57617  eV     1   --> G_2            
     e(147 -147) =     15.03030  eV     1   --> G_2            
     e(148 -148) =     15.03043  eV     1   --> G_2            
     e(149 -150) =     15.52022  eV     2   -->   2 G_2            
     e(151 -152) =     15.77500  eV     2   -->   2 G_2            
     e(153 -154) =     15.91408  eV     2   -->   2 G_2            
     e(155 -156) =     16.25360  eV     2   -->   2 G_2            
     e(157 -157) =     16.36934  eV     1   --> G_2            
     e(158 -158) =     16.36945  eV     1   --> G_2            
     e(159 -160) =     16.47696  eV     2   -->   2 G_2            
     e(161 -162) =     16.53116  eV     2   -->   2 G_2            
     e(163 -164) =     16.63537  eV     2   -->   2 G_2            
     e(165 -165) =     16.88318  eV     1   --> G_2            
     e(166 -166) =     16.88333  eV     1   --> G_2            
     e(167 -168) =     17.02530  eV     2   -->   2 G_2            
     e(169 -170) =     17.14808  eV     2   -->   2 G_2            
     e(171 -172) =     17.25550  eV     2   -->   2 G_2            
     e(173 -174) =     17.34533  eV     2   -->   2 G_2            
     e(175 -176) =     17.67024  eV     2   -->   2 G_2            
     e(177 -178) =     17.76541  eV     2   -->   2 G_2            
     e(179 -180) =     17.92044  eV     2   -->   2 G_2            
     e(181 -182) =     18.08378  eV     2   -->   2 G_2            
     e(183 -184) =     18.16428  eV     2   -->   2 G_2            
     e(185 -186) =     18.26486  eV     2   -->   2 G_2            
     e(187 -188) =     18.35678  eV     2   -->   2 G_2            
     e(189 -189) =     18.49303  eV     1   --> G_2            
     e(190 -190) =     18.49317  eV     1   --> G_2            
     e(191 -191) =     18.54730  eV     1   --> G_2            
     e(192 -192) =     18.54742  eV     1   --> G_2            
     e(193 -194) =     18.88998  eV     2   -->   2 G_2            
     e(195 -196) =     19.13881  eV     2   -->   2 G_2            
     e(197 -198) =     19.24391  eV     2   -->   2 G_2            
     e(199 -200) =     19.30384  eV     2   -->   2 G_2            

 **************************************************************************

 **************************************************************************

                    xk=(   0.05000,   0.02887,   0.00000  )

     Band symmetry, C_1 (1)     double point group:

     e(  1 -  2) =    -35.50403  eV     2   -->   2 G_2            
     e(  3 -  4) =    -35.49736  eV     2   -->   2 G_2            
     e(  5 -  6) =    -35.47544  eV     2   -->   2 G_2            
     e(  7 -  8) =    -35.46878  eV     2   -->   2 G_2            
     e(  9 - 10) =    -35.39468  eV     2   -->   2 G_2            
     e( 11 - 12) =    -35.36115  eV     2   -->   2 G_2            
     e( 13 - 14) =    -34.04473  eV     2   -->   2 G_2            
     e( 15 - 16) =    -34.03807  eV     2   -->   2 G_2            
     e( 17 - 18) =    -34.02055  eV     2   -->   2 G_2            
     e( 19 - 20) =    -34.01388  eV     2   -->   2 G_2            
     e( 21 - 22) =    -34.00758  eV     2   -->   2 G_2            
     e( 23 - 24) =    -34.00093  eV     2   -->   2 G_2            
     e( 25 - 26) =    -33.93227  eV     2   -->   2 G_2            
     e( 27 - 28) =    -33.91695  eV     2   -->   2 G_2            
     e( 29 - 30) =    -33.88863  eV     2   -->   2 G_2            
     e( 31 - 32) =    -28.13665  eV     2   -->   2 G_2            
     e( 33 - 34) =    -28.13208  eV     2   -->   2 G_2            
     e( 35 - 36) =    -28.12814  eV     2   -->   2 G_2            
     e( 37 - 38) =    -28.12362  eV     2   -->   2 G_2            
     e( 39 - 40) =    -26.89743  eV     2   -->   2 G_2            
     e( 41 - 42) =    -26.89285  eV     2   -->   2 G_2            
     e( 43 - 44) =    -26.88804  eV     2   -->   2 G_2            
     e( 45 - 46) =    -26.88626  eV     2   -->   2 G_2            
     e( 47 - 48) =    -26.88351  eV     2   -->   2 G_2            
     e( 49 - 50) =    -26.88174  eV     2   -->   2 G_2            
     e( 51 - 52) =    -10.61103  eV     2   -->   2 G_2            
     e( 53 - 54) =    -10.08048  eV     2   -->   2 G_2            
     e( 55 - 56) =     -9.00842  eV     2   -->   2 G_2            
     e( 57 - 58) =     -6.27040  eV     2   -->   2 G_2            
     e( 59 - 60) =     -4.91087  eV     2   -->   2 G_2            
     e( 61 - 61) =     -0.54267  eV     1   --> G_2            
     e( 62 - 62) =     -0.54256  eV     1   --> G_2            
     e( 63 - 63) =     -0.25497  eV     1   --> G_2            
     e( 64 - 64) =     -0.25293  eV     1   --> G_2            
     e( 65 - 65) =      0.21317  eV     1   --> G_2            
     e( 66 - 66) =      0.21434  eV     1   --> G_2            
     e( 67 - 67) =      0.26803  eV     1   --> G_2            
     e( 68 - 68) =      0.27058  eV     1   --> G_2            
     e( 69 - 69) =      0.46279  eV     1   --> G_2            
     e( 70 - 70) =      0.46334  eV     1   --> G_2            
     e( 71 - 71) =      0.73456  eV     1   --> G_2            
     e( 72 - 72) =      0.73642  eV     1   --> G_2            
     e( 73 - 73) =      1.00495  eV     1   --> G_2            
     e( 74 - 74) =      1.00617  eV     1   --> G_2            
     e( 75 - 75) =      1.21400  eV     1   --> G_2            
     e( 76 - 76) =      1.21493  eV     1   --> G_2            
     e( 77 - 77) =      1.57375  eV     1   --> G_2            
     e( 78 - 78) =      1.57434  eV     1   --> G_2            
     e( 79 - 79) =      2.30852  eV     1   --> G_2            
     e( 80 - 80) =      2.30966  eV     1   --> G_2            
     e( 81 - 81) =      2.72758  eV     1   --> G_2            
     e( 82 - 82) =      2.72786  eV     1   --> G_2            
     e( 83 - 83) =      2.99544  eV     1   --> G_2            
     e( 84 - 84) =      2.99594  eV     1   --> G_2            
     e( 85 - 85) =      3.45426  eV     1   --> G_2            
     e( 86 - 86) =      3.45575  eV     1   --> G_2            
     e( 87 - 87) =      4.11679  eV     1   --> G_2            
     e( 88 - 88) =      4.11761  eV     1   --> G_2            
     e( 89 - 89) =      4.20605  eV     1   --> G_2            
     e( 90 - 90) =      4.20660  eV     1   --> G_2            
     e( 91 - 91) =      6.24761  eV     1   --> G_2            
     e( 92 - 92) =      6.24775  eV     1   --> G_2            
     e( 93 - 93) =      6.40908  eV     1   --> G_2            
     e( 94 - 94) =      6.40922  eV     1   --> G_2            
     e( 95 - 96) =      6.99583  eV     2   -->   2 G_2            
     e( 97 - 98) =      7.42044  eV     2   -->   2 G_2            
     e( 99 -100) =      7.61671  eV     2   -->   2 G_2            
     e(101 -102) =      7.87041  eV     2   -->   2 G_2            
     e(103 -104) =      8.50193  eV     2   -->   2 G_2            
     e(105 -105) =      8.54650  eV     1   --> G_2            
     e(106 -106) =      8.54758  eV     1   --> G_2            
     e(107 -107) =      8.70745  eV     1   --> G_2            
     e(108 -108) =      8.70886  eV     1   --> G_2            
     e(109 -109) =      8.95087  eV     1   --> G_2            
     e(110 -110) =      8.95119  eV     1   --> G_2            
     e(111 -112) =      9.13537  eV     2   -->   2 G_2            
     e(113 -113) =      9.75570  eV     1   --> G_2            
     e(114 -114) =      9.75581  eV     1   --> G_2            
     e(115 -115) =      9.81215  eV     1   --> G_2            
     e(116 -116) =      9.81228  eV     1   --> G_2            
     e(117 -117) =     10.03096  eV     1   --> G_2            
     e(118 -118) =     10.03117  eV     1   --> G_2            
     e(119 -119) =     10.24990  eV     1   --> G_2            
     e(120 -120) =     10.25001  eV     1   --> G_2            
     e(121 -121) =     10.65868  eV     1   --> G_2            
     e(122 -122) =     10.65880  eV     1   --> G_2            
     e(123 -123) =     10.96256  eV     1   --> G_2            
     e(124 -124) =     10.96291  eV     1   --> G_2            
     e(125 -125) =     11.17710  eV     1   --> G_2            
     e(126 -126) =     11.17735  eV     1   --> G_2            
     e(127 -127) =     11.30318  eV     1   --> G_2            
     e(128 -128) =     11.30332  eV     1   --> G_2            
     e(129 -129) =     11.90571  eV     1   --> G_2            
     e(130 -130) =     11.90640  eV     1   --> G_2            
     e(131 -131) =     11.98567  eV     1   --> G_2            
     e(132 -132) =     11.98630  eV     1   --> G_2            
     e(133 -134) =     12.78882  eV     2   -->   2 G_2            
     e(135 -136) =     12.92454  eV     2   -->   2 G_2            
     e(137 -137) =     13.57771  eV     1   --> G_2            
     e(138 -138) =     13.57783  eV     1   --> G_2            
     e(139 -140) =     13.86459  eV     2   -->   2 G_2            
     e(141 -141) =     14.26526  eV     1   --> G_2            
     e(142 -142) =     14.26540  eV     1   --> G_2            
     e(143 -143) =     14.51328  eV     1   --> G_2            
     e(144 -144) =     14.51344  eV     1   --> G_2            
     e(145 -145) =     14.61817  eV     1   --> G_2            
     e(146 -146) =     14.61840  eV     1   --> G_2            
     e(147 -147) =     14.96994  eV     1   --> G_2            
     e(148 -148) =     14.97009  eV     1   --> G_2            
     e(149 -150) =     15.53553  eV     2   -->   2 G_2            
     e(151 -152) =     15.73754  eV     2   -->   2 G_2            
     e(153 -154) =     15.87168  eV     2   -->   2 G_2            
     e(155 -156) =     16.19001  eV     2   -->   2 G_2            
     e(157 -157) =     16.36888  eV     1   --> G_2            
     e(158 -158) =     16.36899  eV     1   --> G_2            
     e(159 -160) =     16.40760  eV     2   -->   2 G_2            
     e(161 -161) =     16.56219  eV     1   --> G_2            
     e(162 -162) =     16.56236  eV     1   --> G_2            
     e(163 -163) =     16.59938  eV     1   --> G_2            
     e(164 -164) =     16.59954  eV     1   --> G_2            
     e(165 -165) =     16.90778  eV     1   --> G_2            
     e(166 -166) =     16.90794  eV     1   --> G_2            
     e(167 -167) =     17.01687  eV     1   --> G_2            
     e(168 -168) =     17.01703  eV     1   --> G_2            
     e(169 -170) =     17.10724  eV     2   -->   2 G_2            
     e(171 -172) =     17.21776  eV     2   -->   2 G_2            
     e(173 -174) =     17.30711  eV     2   -->   2 G_2            
     e(175 -176) =     17.69581  eV     2   -->   2 G_2            
     e(177 -178) =     17.84365  eV     2   -->   2 G_2            
     e(179 -180) =     18.00845  eV     2   -->   2 G_2            
     e(181 -182) =     18.09227  eV     2   -->   2 G_2            
     e(183 -184) =     18.20431  eV     2   -->   2 G_2            
     e(185 -185) =     18.35676  eV     1   --> G_2            
     e(186 -186) =     18.35691  eV     1   --> G_2            
     e(187 -188) =     18.38769  eV     2   -->   2 G_2            
     e(189 -190) =     18.41858  eV     2   -->   2 G_2            
     e(191 -192) =     18.60226  eV     2   -->   2 G_2            
     e(193 -194) =     18.82926  eV     2   -->   2 G_2            
     e(195 -196) =     19.08917  eV     2   -->   2 G_2            
     e(197 -198) =     19.20067  eV     2   -->   2 G_2            
     e(199 -200) =     19.25393  eV     2   -->   2 G_2            

 **************************************************************************

 **************************************************************************

                    xk=(   0.05714,   0.03299,   0.00000  )

     Band symmetry, C_1 (1)     double point group:

     e(  1 -  2) =    -35.50402  eV     2   -->   2 G_2            
     e(  3 -  4) =    -35.49736  eV     2   -->   2 G_2            
     e(  5 -  6) =    -35.47544  eV     2   -->   2 G_2            
     e(  7 -  8) =    -35.46878  eV     2   -->   2 G_2            
     e(  9 - 10) =    -35.39468  eV     2   -->   2 G_2            
     e( 11 - 12) =    -35.36115  eV     2   -->   2 G_2            
     e( 13 - 14) =    -34.04472  eV     2   -->   2 G_2            
     e( 15 - 16) =    -34.03806  eV     2   -->   2 G_2            
     e( 17 - 18) =    -34.02055  eV     2   -->   2 G_2            
     e( 19 - 20) =    -34.01388  eV     2   -->   2 G_2            
     e( 21 - 22) =    -34.00757  eV     2   -->   2 G_2            
     e( 23 - 24) =    -34.00093  eV     2   -->   2 G_2            
     e( 25 - 26) =    -33.93227  eV     2   -->   2 G_2            
     e( 27 - 28) =    -33.91695  eV     2   -->   2 G_2            
     e( 29 - 30) =    -33.88863  eV     2   -->   2 G_2            
     e( 31 - 32) =    -28.13665  eV     2   -->   2 G_2            
     e( 33 - 34) =    -28.13207  eV     2   -->   2 G_2            
     e( 35 - 36) =    -28.12814  eV     2   -->   2 G_2            
     e( 37 - 38) =    -28.12362  eV     2   -->   2 G_2            
     e( 39 - 40) =    -26.89742  eV     2   -->   2 G_2            
     e( 41 - 42) =    -26.89284  eV     2   -->   2 G_2            
     e( 43 - 44) =    -26.88805  eV     2   -->   2 G_2            
     e( 45 - 46) =    -26.88626  eV     2   -->   2 G_2            
     e( 47 - 48) =    -26.88352  eV     2   -->   2 G_2            
     e( 49 - 50) =    -26.88174  eV     2   -->   2 G_2            
     e( 51 - 52) =    -10.60459  eV     2   -->   2 G_2            
     e( 53 - 54) =    -10.07460  eV     2   -->   2 G_2            
     e( 55 - 56) =     -9.00485  eV     2   -->   2 G_2            
     e( 57 - 58) =     -6.27150  eV     2   -->   2 G_2            
     e( 59 - 60) =     -4.92252  eV     2   -->   2 G_2            
     e( 61 - 62) =     -0.55549  eV     2   -->   2 G_2            
     e( 63 - 63) =     -0.30923  eV     1   --> G_2            
     e( 64 - 64) =     -0.30699  eV     1   --> G_2            
     e( 65 - 65) =      0.18669  eV     1   --> G_2            
     e( 66 - 66) =      0.18747  eV     1   --> G_2            
     e( 67 - 67) =      0.22932  eV     1   --> G_2            
     e( 68 - 68) =      0.23164  eV     1   --> G_2            
     e( 69 - 69) =      0.44947  eV     1   --> G_2            
     e( 70 - 70) =      0.44985  eV     1   --> G_2            
     e( 71 - 71) =      0.71873  eV     1   --> G_2            
     e( 72 - 72) =      0.72043  eV     1   --> G_2            
     e( 73 - 73) =      1.00603  eV     1   --> G_2            
     e( 74 - 74) =      1.00712  eV     1   --> G_2            
     e( 75 - 75) =      1.23111  eV     1   --> G_2            
     e( 76 - 76) =      1.23196  eV     1   --> G_2            
     e( 77 - 77) =      1.60735  eV     1   --> G_2            
     e( 78 - 78) =      1.60795  eV     1   --> G_2            
     e( 79 - 79) =      2.33851  eV     1   --> G_2            
     e( 80 - 80) =      2.33980  eV     1   --> G_2            
     e( 81 - 81) =      2.73476  eV     1   --> G_2            
     e( 82 - 82) =      2.73502  eV     1   --> G_2            
     e( 83 - 83) =      3.00177  eV     1   --> G_2            
     e( 84 - 84) =      3.00212  eV     1   --> G_2            
     e( 85 - 85) =      3.47861  eV     1   --> G_2            
     e( 86 - 86) =      3.48017  eV     1   --> G_2            
     e( 87 - 87) =      4.12183  eV     1   --> G_2            
     e( 88 - 88) =      4.12267  eV     1   --> G_2            
     e( 89 - 89) =      4.22907  eV     1   --> G_2            
     e( 90 - 90) =      4.22958  eV     1   --> G_2            
     e( 91 - 91) =      6.25881  eV     1   --> G_2            
     e( 92 - 92) =      6.25897  eV     1   --> G_2            
     e( 93 - 93) =      6.41104  eV     1   --> G_2            
     e( 94 - 94) =      6.41120  eV     1   --> G_2            
     e( 95 - 96) =      6.99457  eV     2   -->   2 G_2            
     e( 97 - 98) =      7.39056  eV     2   -->   2 G_2            
     e( 99 -100) =      7.61810  eV     2   -->   2 G_2            
     e(101 -102) =      7.88188  eV     2   -->   2 G_2            
     e(103 -103) =      8.49509  eV     1   --> G_2            
     e(104 -104) =      8.49565  eV     1   --> G_2            
     e(105 -105) =      8.54672  eV     1   --> G_2            
     e(106 -106) =      8.54715  eV     1   --> G_2            
     e(107 -107) =      8.70595  eV     1   --> G_2            
     e(108 -108) =      8.70712  eV     1   --> G_2            
     e(109 -109) =      8.97526  eV     1   --> G_2            
     e(110 -110) =      8.97552  eV     1   --> G_2            
     e(111 -112) =      9.13269  eV     2   -->   2 G_2            
     e(113 -113) =      9.75786  eV     1   --> G_2            
     e(114 -114) =      9.75797  eV     1   --> G_2            
     e(115 -116) =      9.83739  eV     2   -->   2 G_2            
     e(117 -117) =     10.05728  eV     1   --> G_2            
     e(118 -118) =     10.05753  eV     1   --> G_2            
     e(119 -119) =     10.28560  eV     1   --> G_2            
     e(120 -120) =     10.28570  eV     1   --> G_2            
     e(121 -121) =     10.69778  eV     1   --> G_2            
     e(122 -122) =     10.69795  eV     1   --> G_2            
     e(123 -123) =     10.92796  eV     1   --> G_2            
     e(124 -124) =     10.92836  eV     1   --> G_2            
[...]
     e(119 -119) =     10.14387  eV     1   --> G_2            
     e(120 -120) =     10.14398  eV     1   --> G_2            
     e(121 -122) =     10.55117  eV     2   -->   2 G_2            
     e(123 -123) =     11.04261  eV     1   --> G_2            
     e(124 -124) =     11.04273  eV     1   --> G_2            
     e(125 -125) =     11.29802  eV     1   --> G_2            
     e(126 -126) =     11.29850  eV     1   --> G_2            
     e(127 -127) =     11.44113  eV     1   --> G_2            
     e(128 -128) =     11.44166  eV     1   --> G_2            
     e(129 -129) =     11.62400  eV     1   --> G_2            
     e(130 -130) =     11.62426  eV     1   --> G_2            
     e(131 -131) =     11.76364  eV     1   --> G_2            
     e(132 -132) =     11.76387  eV     1   --> G_2            
     e(133 -134) =     12.81415  eV     2   -->   2 G_2            
     e(135 -136) =     12.87587  eV     2   -->   2 G_2            
     e(137 -138) =     13.82532  eV     2   -->   2 G_2            
     e(139 -139) =     14.07512  eV     1   --> G_2            
     e(140 -140) =     14.07540  eV     1   --> G_2            
     e(141 -141) =     14.18268  eV     1   --> G_2            
     e(142 -142) =     14.18322  eV     1   --> G_2            
     e(143 -143) =     14.28688  eV     1   --> G_2            
     e(144 -144) =     14.28713  eV     1   --> G_2            
     e(145 -146) =     14.46027  eV     2   -->   2 G_2            
     e(147 -148) =     15.10311  eV     2   -->   2 G_2            
     e(149 -149) =     15.66816  eV     1   --> G_2            
     e(150 -150) =     15.66827  eV     1   --> G_2            
     e(151 -151) =     15.94937  eV     1   --> G_2            
     e(152 -152) =     15.94948  eV     1   --> G_2            
     e(153 -154) =     16.00679  eV     2   -->   2 G_2            
     e(155 -155) =     16.18444  eV     1   --> G_2            
     e(156 -156) =     16.18469  eV     1   --> G_2            
     e(157 -157) =     16.26764  eV     1   --> G_2            
     e(158 -158) =     16.26776  eV     1   --> G_2            
     e(159 -160) =     16.39124  eV     2   -->   2 G_2            
     e(161 -161) =     16.71585  eV     1   --> G_2            
     e(162 -162) =     16.71597  eV     1   --> G_2            
     e(163 -164) =     16.88068  eV     2   -->   2 G_2            
     e(165 -166) =     17.04671  eV     2   -->   2 G_2            
     e(167 -168) =     17.21540  eV     2   -->   2 G_2            
     e(169 -170) =     17.25746  eV     2   -->   2 G_2            
     e(171 -172) =     17.33056  eV     2   -->   2 G_2            
     e(173 -174) =     17.38977  eV     2   -->   2 G_2            
     e(175 -176) =     17.53584  eV     2   -->   2 G_2            
     e(177 -177) =     17.60182  eV     1   --> G_2            
     e(178 -178) =     17.60193  eV     1   --> G_2            
     e(179 -180) =     17.65434  eV     2   -->   2 G_2            
     e(181 -182) =     17.66984  eV     2   -->   2 G_2            
     e(183 -183) =     17.93367  eV     1   --> G_2            
     e(184 -184) =     17.93383  eV     1   --> G_2            
     e(185 -185) =     17.99461  eV     1   --> G_2            
     e(186 -186) =     17.99475  eV     1   --> G_2            
     e(187 -188) =     18.26338  eV     2   -->   2 G_2            
     e(189 -190) =     18.82456  eV     2   -->   2 G_2            
     e(191 -192) =     18.95761  eV     2   -->   2 G_2            
     e(193 -193) =     19.13940  eV     1   --> G_2            
     e(194 -194) =     19.13953  eV     1   --> G_2            
     e(195 -196) =     19.24605  eV     2   -->   2 G_2            
     e(197 -198) =     19.30047  eV     2   -->   2 G_2            
     e(199 -200) =     19.40979  eV     2   -->   2 G_2            

 **************************************************************************

 **************************************************************************

                    xk=(   0.00476,   0.00836,   0.00000  )

     Band symmetry, C_1 (1)     double point group:

     e(  1 -  2) =    -35.50404  eV     2   -->   2 G_2            
     e(  3 -  4) =    -35.49737  eV     2   -->   2 G_2            
     e(  5 -  6) =    -35.47544  eV     2   -->   2 G_2            
     e(  7 -  8) =    -35.46878  eV     2   -->   2 G_2            
     e(  9 - 10) =    -35.39468  eV     2   -->   2 G_2            
     e( 11 - 12) =    -35.36116  eV     2   -->   2 G_2            
     e( 13 - 14) =    -34.04474  eV     2   -->   2 G_2            
     e( 15 - 16) =    -34.03808  eV     2   -->   2 G_2            
     e( 17 - 18) =    -34.02055  eV     2   -->   2 G_2            
     e( 19 - 20) =    -34.01387  eV     2   -->   2 G_2            
     e( 21 - 22) =    -34.00758  eV     2   -->   2 G_2            
     e( 23 - 24) =    -34.00093  eV     2   -->   2 G_2            
     e( 25 - 26) =    -33.93228  eV     2   -->   2 G_2            
     e( 27 - 28) =    -33.91695  eV     2   -->   2 G_2            
     e( 29 - 30) =    -33.88865  eV     2   -->   2 G_2            
     e( 31 - 32) =    -28.13667  eV     2   -->   2 G_2            
     e( 33 - 34) =    -28.13209  eV     2   -->   2 G_2            
     e( 35 - 36) =    -28.12812  eV     2   -->   2 G_2            
     e( 37 - 38) =    -28.12360  eV     2   -->   2 G_2            
     e( 39 - 40) =    -26.89747  eV     2   -->   2 G_2            
     e( 41 - 42) =    -26.89289  eV     2   -->   2 G_2            
     e( 43 - 44) =    -26.88799  eV     2   -->   2 G_2            
     e( 45 - 46) =    -26.88626  eV     2   -->   2 G_2            
     e( 47 - 48) =    -26.88346  eV     2   -->   2 G_2            
     e( 49 - 50) =    -26.88175  eV     2   -->   2 G_2            
     e( 51 - 52) =    -10.63150  eV     2   -->   2 G_2            
     e( 53 - 54) =    -10.09922  eV     2   -->   2 G_2            
     e( 55 - 56) =     -9.01985  eV     2   -->   2 G_2            
     e( 57 - 58) =     -6.26715  eV     2   -->   2 G_2            
     e( 59 - 60) =     -4.87377  eV     2   -->   2 G_2            
     e( 61 - 62) =     -0.50596  eV     2   -->   2 G_2            
     e( 63 - 63) =     -0.03307  eV     1   --> G_2            
     e( 64 - 64) =     -0.03259  eV     1   --> G_2            
     e( 65 - 65) =      0.23701  eV     1   --> G_2            
     e( 66 - 66) =      0.23758  eV     1   --> G_2            
     e( 67 - 67) =      0.49156  eV     1   --> G_2            
     e( 68 - 68) =      0.49192  eV     1   --> G_2            
     e( 69 - 69) =      0.55363  eV     1   --> G_2            
     e( 70 - 70) =      0.55455  eV     1   --> G_2            
     e( 71 - 71) =      0.69393  eV     1   --> G_2            
     e( 72 - 72) =      0.69505  eV     1   --> G_2            
     e( 73 - 73) =      0.93351  eV     1   --> G_2            
     e( 74 - 74) =      0.93379  eV     1   --> G_2            
     e( 75 - 75) =      1.26812  eV     1   --> G_2            
     e( 76 - 76) =      1.26831  eV     1   --> G_2            
     e( 77 - 78) =      1.42874  eV     2   -->   2 G_2            
     e( 79 - 80) =      2.11880  eV     2   -->   2 G_2            
     e( 81 - 81) =      2.73897  eV     1   --> G_2            
     e( 82 - 82) =      2.73916  eV     1   --> G_2            
     e( 83 - 83) =      3.06927  eV     1   --> G_2            
     e( 84 - 84) =      3.06961  eV     1   --> G_2            
     e( 85 - 85) =      3.30553  eV     1   --> G_2            
     e( 86 - 86) =      3.30616  eV     1   --> G_2            
     e( 87 - 87) =      4.04265  eV     1   --> G_2            
     e( 88 - 88) =      4.04284  eV     1   --> G_2            
     e( 89 - 90) =      4.18939  eV     2   -->   2 G_2            
     e( 91 - 92) =      6.21082  eV     2   -->   2 G_2            
     e( 93 - 94) =      6.40210  eV     2   -->   2 G_2            
     e( 95 - 96) =      6.99174  eV     2   -->   2 G_2            
     e( 97 - 98) =      7.54408  eV     2   -->   2 G_2            
     e( 99 -100) =      7.61594  eV     2   -->   2 G_2            
     e(101 -102) =      7.83748  eV     2   -->   2 G_2            
     e(103 -104) =      8.40301  eV     2   -->   2 G_2            
     e(105 -105) =      8.63077  eV     1   --> G_2            
     e(106 -106) =      8.63118  eV     1   --> G_2            
     e(107 -107) =      8.75900  eV     1   --> G_2            
     e(108 -108) =      8.75962  eV     1   --> G_2            
     e(109 -109) =      8.88023  eV     1   --> G_2            
     e(110 -110) =      8.88045  eV     1   --> G_2            
     e(111 -112) =      9.16327  eV     2   -->   2 G_2            
     e(113 -114) =      9.61592  eV     2   -->   2 G_2            
     e(115 -116) =      9.71894  eV     2   -->   2 G_2            
     e(117 -118) =     10.03242  eV     2   -->   2 G_2            
     e(119 -120) =     10.13175  eV     2   -->   2 G_2            
     e(121 -122) =     10.53952  eV     2   -->   2 G_2            
     e(123 -124) =     11.05180  eV     2   -->   2 G_2            
     e(125 -125) =     11.32541  eV     1   --> G_2            
     e(126 -126) =     11.32572  eV     1   --> G_2            
     e(127 -127) =     11.47772  eV     1   --> G_2            
     e(128 -128) =     11.47818  eV     1   --> G_2            
     e(129 -129) =     11.57979  eV     1   --> G_2            
     e(130 -130) =     11.58003  eV     1   --> G_2            
     e(131 -131) =     11.72074  eV     1   --> G_2            
     e(132 -132) =     11.72088  eV     1   --> G_2            
     e(133 -134) =     12.81632  eV     2   -->   2 G_2            
     e(135 -136) =     12.86904  eV     2   -->   2 G_2            
     e(137 -138) =     13.86598  eV     2   -->   2 G_2            
     e(139 -139) =     14.12053  eV     1   --> G_2            
     e(140 -140) =     14.12109  eV     1   --> G_2            
     e(141 -141) =     14.15506  eV     1   --> G_2            
     e(142 -142) =     14.15576  eV     1   --> G_2            
     e(143 -143) =     14.27251  eV     1   --> G_2            
     e(144 -144) =     14.27262  eV     1   --> G_2            
     e(145 -146) =     14.42413  eV     2   -->   2 G_2            
     e(147 -148) =     15.08763  eV     2   -->   2 G_2            
     e(149 -150) =     15.72239  eV     2   -->   2 G_2            
     e(151 -151) =     15.99172  eV     1   --> G_2            
     e(152 -152) =     15.99191  eV     1   --> G_2            
     e(153 -153) =     16.03268  eV     1   --> G_2            
     e(154 -154) =     16.03286  eV     1   --> G_2            
     e(155 -155) =     16.12217  eV     1   --> G_2            
     e(156 -156) =     16.12237  eV     1   --> G_2            
     e(157 -158) =     16.26041  eV     2   -->   2 G_2            
     e(159 -160) =     16.36657  eV     2   -->   2 G_2            
     e(161 -162) =     16.69763  eV     2   -->   2 G_2            
     e(163 -164) =     16.99293  eV     2   -->   2 G_2            
     e(165 -166) =     17.08770  eV     2   -->   2 G_2            
     e(167 -168) =     17.20908  eV     2   -->   2 G_2            
     e(169 -170) =     17.31038  eV     2   -->   2 G_2            
     e(171 -172) =     17.34463  eV     2   -->   2 G_2            
     e(173 -174) =     17.38732  eV     2   -->   2 G_2            
     e(175 -176) =     17.54879  eV     2   -->   2 G_2            
     e(177 -178) =     17.57179  eV     2   -->   2 G_2            
     e(179 -180) =     17.63483  eV     2   -->   2 G_2            
     e(181 -181) =     17.65178  eV     1   --> G_2            
     e(182 -182) =     17.65189  eV     1   --> G_2            
     e(183 -183) =     17.86251  eV     1   --> G_2            
     e(184 -184) =     17.86266  eV     1   --> G_2            
     e(185 -185) =     17.91730  eV     1   --> G_2            
     e(186 -186) =     17.91745  eV     1   --> G_2            
     e(187 -188) =     18.18602  eV     2   -->   2 G_2            
     e(189 -190) =     18.93146  eV     2   -->   2 G_2            
     e(191 -192) =     19.04541  eV     2   -->   2 G_2            
     e(193 -194) =     19.18446  eV     2   -->   2 G_2            
     e(195 -196) =     19.22973  eV     2   -->   2 G_2            
     e(197 -198) =     19.30319  eV     2   -->   2 G_2            
     e(199 -200) =     19.40690  eV     2   -->   2 G_2            

 **************************************************************************

 **************************************************************************

                    xk=(   0.00000,   0.00000,   0.00000  )

     Band symmetry, C_1 (1)     double point group:

     e(  1 -  2) =    -35.50404  eV     2   -->   2 G_2            
     e(  3 -  4) =    -35.49737  eV     2   -->   2 G_2            
     e(  5 -  6) =    -35.47544  eV     2   -->   2 G_2            
     e(  7 -  8) =    -35.46878  eV     2   -->   2 G_2            
     e(  9 - 10) =    -35.39468  eV     2   -->   2 G_2            
     e( 11 - 12) =    -35.36116  eV     2   -->   2 G_2            
     e( 13 - 14) =    -34.04474  eV     2   -->   2 G_2            
     e( 15 - 16) =    -34.03808  eV     2   -->   2 G_2            
     e( 17 - 18) =    -34.02055  eV     2   -->   2 G_2            
     e( 19 - 20) =    -34.01387  eV     2   -->   2 G_2            
     e( 21 - 22) =    -34.00758  eV     2   -->   2 G_2            
     e( 23 - 24) =    -34.00093  eV     2   -->   2 G_2            
     e( 25 - 26) =    -33.93228  eV     2   -->   2 G_2            
     e( 27 - 28) =    -33.91695  eV     2   -->   2 G_2            
     e( 29 - 30) =    -33.88865  eV     2   -->   2 G_2            
     e( 31 - 32) =    -28.13667  eV     2   -->   2 G_2            
     e( 33 - 34) =    -28.13209  eV     2   -->   2 G_2            
     e( 35 - 36) =    -28.12811  eV     2   -->   2 G_2            
     e( 37 - 38) =    -28.12360  eV     2   -->   2 G_2            
     e( 39 - 40) =    -26.89747  eV     2   -->   2 G_2            
     e( 41 - 42) =    -26.89289  eV     2   -->   2 G_2            
     e( 43 - 44) =    -26.88798  eV     2   -->   2 G_2            
     e( 45 - 46) =    -26.88626  eV     2   -->   2 G_2            
     e( 47 - 48) =    -26.88346  eV     2   -->   2 G_2            
     e( 49 - 50) =    -26.88174  eV     2   -->   2 G_2            
     e( 51 - 52) =    -10.63208  eV     2   -->   2 G_2            
     e( 53 - 54) =    -10.09976  eV     2   -->   2 G_2            
     e( 55 - 56) =     -9.02018  eV     2   -->   2 G_2            
     e( 57 - 58) =     -6.26708  eV     2   -->   2 G_2            
     e( 59 - 60) =     -4.87277  eV     2   -->   2 G_2            
     e( 61 - 62) =     -0.50505  eV     2   -->   2 G_2            
     e( 63 - 64) =     -0.02539  eV     2   -->   2 G_2            
     e( 65 - 66) =      0.23605  eV     2   -->   2 G_2            
     e( 67 - 68) =      0.49523  eV     2   -->   2 G_2            
     e( 69 - 70) =      0.57189  eV     2   -->   2 G_2            
     e( 71 - 72) =      0.68339  eV     2   -->   2 G_2            
     e( 73 - 74) =      0.92949  eV     2   -->   2 G_2            
     e( 75 - 76) =      1.27250  eV     2   -->   2 G_2            
     e( 77 - 78) =      1.42462  eV     2   -->   2 G_2            
     e( 79 - 80) =      2.11116  eV     2   -->   2 G_2            
     e( 81 - 82) =      2.73841  eV     2   -->   2 G_2            
     e( 83 - 84) =      3.07804  eV     2   -->   2 G_2            
     e( 85 - 86) =      3.29696  eV     2   -->   2 G_2            
     e( 87 - 88) =      4.03953  eV     2   -->   2 G_2            
     e( 89 - 90) =      4.18971  eV     2   -->   2 G_2            
     e( 91 - 92) =      6.20975  eV     2   -->   2 G_2            
     e( 93 - 94) =      6.40187  eV     2   -->   2 G_2            
     e( 95 - 96) =      6.99150  eV     2   -->   2 G_2            
     e( 97 - 98) =      7.54549  eV     2   -->   2 G_2            
     e( 99 -100) =      7.61612  eV     2   -->   2 G_2            
     e(101 -102) =      7.84079  eV     2   -->   2 G_2            
     e(103 -104) =      8.39798  eV     2   -->   2 G_2            
     e(105 -106) =      8.63206  eV     2   -->   2 G_2            
     e(107 -108) =      8.76152  eV     2   -->   2 G_2            
     e(109 -110) =      8.88082  eV     2   -->   2 G_2            
     e(111 -112) =      9.16443  eV     2   -->   2 G_2            
     e(113 -114) =      9.61039  eV     2   -->   2 G_2            
     e(115 -116) =      9.71524  eV     2   -->   2 G_2            
     e(117 -118) =     10.03354  eV     2   -->   2 G_2            
     e(119 -120) =     10.12767  eV     2   -->   2 G_2            
     e(121 -122) =     10.53566  eV     2   -->   2 G_2            
     e(123 -124) =     11.05487  eV     2   -->   2 G_2            
     e(125 -126) =     11.33500  eV     2   -->   2 G_2            
     e(127 -128) =     11.50765  eV     2   -->   2 G_2            
     e(129 -130) =     11.54933  eV     2   -->   2 G_2            
     e(131 -132) =     11.70445  eV     2   -->   2 G_2            
     e(133 -134) =     12.81714  eV     2   -->   2 G_2            
     e(135 -136) =     12.86667  eV     2   -->   2 G_2            
     e(137 -138) =     13.88233  eV     2   -->   2 G_2            
     e(139 -140) =     14.13270  eV     2   -->   2 G_2            
     e(141 -142) =     14.15065  eV     2   -->   2 G_2            
     e(143 -144) =     14.26553  eV     2   -->   2 G_2            
     e(145 -146) =     14.41075  eV     2   -->   2 G_2            
     e(147 -148) =     15.08154  eV     2   -->   2 G_2            
     e(149 -150) =     15.74477  eV     2   -->   2 G_2            
     e(151 -152) =     16.00608  eV     2   -->   2 G_2            
     e(153 -154) =     16.05740  eV     2   -->   2 G_2            
     e(155 -156) =     16.08560  eV     2   -->   2 G_2            
     e(157 -158) =     16.25520  eV     2   -->   2 G_2            
     e(159 -160) =     16.35706  eV     2   -->   2 G_2            
     e(161 -162) =     16.69074  eV     2   -->   2 G_2            
     e(163 -164) =     17.07872  eV     2   -->   2 G_2            
     e(165 -166) =     17.10162  eV     2   -->   2 G_2            
     e(167 -168) =     17.13694  eV     2   -->   2 G_2            
     e(169 -170) =     17.34570  eV     2   -->   2 G_2            
     e(171 -172) =     17.35277  eV     2   -->   2 G_2            
     e(173 -174) =     17.44634  eV     2   -->   2 G_2            
     e(175 -176) =     17.47611  eV     2   -->   2 G_2            
     e(177 -178) =     17.54565  eV     2   -->   2 G_2            
     e(179 -180) =     17.63727  eV     2   -->   2 G_2            
     e(181 -182) =     17.69946  eV     2   -->   2 G_2            
     e(183 -184) =     17.81568  eV     2   -->   2 G_2            
     e(185 -186) =     17.89029  eV     2   -->   2 G_2            
     e(187 -188) =     18.15655  eV     2   -->   2 G_2            
     e(189 -190) =     18.99558  eV     2   -->   2 G_2            
     e(191 -192) =     19.07612  eV     2   -->   2 G_2            
     e(193 -194) =     19.14500  eV     2   -->   2 G_2            
     e(195 -196) =     19.26115  eV     2   -->   2 G_2            
     e(197 -198) =     19.31270  eV     2   -->   2 G_2            
     e(199 -200) =     19.41236  eV     2   -->   2 G_2            

 **************************************************************************

     BANDS        :      1h 9m CPU      1h10m WALL


   This run was terminated on:  21: 5:37  22Aug2025            

=------------------------------------------------------------------------------=
   JOB DONE.
=------------------------------------------------------------------------------=
