
     Program BANDS v.7.4.1 starts on 14Aug2025 at 22:15:25 

     This program is part of the open-source Quantum ESPRESSO suite
     for quantum simulation of materials; please cite
         "P. Giannozzi et al., J. Phys.:Condens. Matter 21 395502 (2009);
         "P. Giannozzi et al., J. Phys.:Condens. Matter 29 465901 (2017);
         "P. Giannozzi et al., J. Chem. Phys. 152 154105 (2020);
          URL http://www.quantum-espresso.org", 
     in publications or presentations arising from this work. More details at
     http://www.quantum-espresso.org/quote

     Parallel version (MPI & OpenMP), running on      48 processor cores
     Number of MPI processes:                24
     Threads/MPI process:                     2

     MPI processes distributed on     2 nodes
     R & G space division:  proc/nbgrp/npool/nimage =      24
     89992 MiB available memory on the printing compute node when the environment starts


     Reading xml data from directory:

     tmp/Sb2Te3-uatsx-c4-soc-2.0.save/
Error reading attribute index: expected integer, found *
Error reading attribute index: expected integer, found *

     IMPORTANT: XC functional enforced from input :
     Exchange-correlation= PBE
                           (   1   4   3   4   0   0   0)
     Any further DFT definition will be discarded
     Please, verify this is what you really want


     Parallelization info
     --------------------
     sticks:   dense  smooth     PW     G-vecs:    dense   smooth      PW
     Min          97      39     10                19297     4885     728
     Max          98      40     11                19315     4897     761
     Sum        2329     937    263               463351   117389   17987

     Using Slab Decomposition

     Reading collected, re-writing distributed wavefunctions
     high-symmetry point:  0.0000 0.0000 0.0000   x coordinate   0.0000
     high-symmetry point:  0.5000 0.2887 0.0000   x coordinate   0.5774
     high-symmetry point:  0.3333 0.5851 0.0000   x coordinate   0.9174
     high-symmetry point:  0.0000 0.0000 0.0000   x coordinate   1.5907

     Plottable bands (eV) written to file ./bands/Sb2Te3-uatsx-c4-soc-2.0.bands.gnu
     Bands written to file ./bands/Sb2Te3-uatsx-c4-soc-2.0.bands

 **************************************************************************

                    xk=(   0.00000,   0.00000,   0.00000  )

     double point group C_1 (1)    
     there are  2 classes and  1 irreducible representations
     the character table:

       E     -E   
                  
G_2    1.00 -1.00

     the symmetry operations in each class and the name of the first element:

     E             1
                                                                 
     -E           -1
                                                                 

     Band symmetry, C_1 (1)     double point group:

     e(  1 -  2) =    -35.50395  eV     2   -->   2 G_2            
     e(  3 -  4) =    -35.50032  eV     2   -->   2 G_2            
     e(  5 -  6) =    -35.47530  eV     2   -->   2 G_2            
     e(  7 -  8) =    -35.47172  eV     2   -->   2 G_2            
     e(  9 - 10) =    -35.39317  eV     2   -->   2 G_2            
     e( 11 - 12) =    -35.35962  eV     2   -->   2 G_2            
     e( 13 - 14) =    -34.04466  eV     2   -->   2 G_2            
     e( 15 - 16) =    -34.04102  eV     2   -->   2 G_2            
     e( 17 - 18) =    -34.02041  eV     2   -->   2 G_2            
     e( 19 - 20) =    -34.01682  eV     2   -->   2 G_2            
     e( 21 - 22) =    -34.00744  eV     2   -->   2 G_2            
     e( 23 - 24) =    -34.00385  eV     2   -->   2 G_2            
     e( 25 - 26) =    -33.93077  eV     2   -->   2 G_2            
     e( 27 - 28) =    -33.91541  eV     2   -->   2 G_2            
     e( 29 - 30) =    -33.88710  eV     2   -->   2 G_2            
     e( 31 - 32) =    -28.13603  eV     2   -->   2 G_2            
     e( 33 - 34) =    -28.13233  eV     2   -->   2 G_2            
     e( 35 - 36) =    -28.12750  eV     2   -->   2 G_2            
     e( 37 - 38) =    -28.12386  eV     2   -->   2 G_2            
     e( 39 - 40) =    -26.89683  eV     2   -->   2 G_2            
     e( 41 - 42) =    -26.89312  eV     2   -->   2 G_2            
     e( 43 - 44) =    -26.88736  eV     2   -->   2 G_2            
     e( 45 - 46) =    -26.88564  eV     2   -->   2 G_2            
     e( 47 - 48) =    -26.88371  eV     2   -->   2 G_2            
     e( 49 - 50) =    -26.88200  eV     2   -->   2 G_2            
     e( 51 - 52) =    -10.62834  eV     2   -->   2 G_2            
     e( 53 - 54) =    -10.09695  eV     2   -->   2 G_2            
     e( 55 - 56) =     -9.01609  eV     2   -->   2 G_2            
     e( 57 - 58) =     -6.26281  eV     2   -->   2 G_2            
     e( 59 - 60) =     -4.86758  eV     2   -->   2 G_2            
     e( 61 - 62) =     -0.50426  eV     2   -->   2 G_2            
     e( 63 - 64) =     -0.02523  eV     2   -->   2 G_2            
     e( 65 - 66) =      0.23690  eV     2   -->   2 G_2            
     e( 67 - 68) =      0.49604  eV     2   -->   2 G_2            
     e( 69 - 70) =      0.57280  eV     2   -->   2 G_2            
     e( 71 - 72) =      0.68351  eV     2   -->   2 G_2            
     e( 73 - 74) =      0.93021  eV     2   -->   2 G_2            
     e( 75 - 76) =      1.27327  eV     2   -->   2 G_2            
     e( 77 - 78) =      1.42598  eV     2   -->   2 G_2            
     e( 79 - 80) =      2.11251  eV     2   -->   2 G_2            
     e( 81 - 82) =      2.73930  eV     2   -->   2 G_2            
     e( 83 - 84) =      3.07855  eV     2   -->   2 G_2            
     e( 85 - 86) =      3.29796  eV     2   -->   2 G_2            
     e( 87 - 88) =      4.04079  eV     2   -->   2 G_2            
     e( 89 - 90) =      4.19046  eV     2   -->   2 G_2            
     e( 91 - 92) =      6.20852  eV     2   -->   2 G_2            
     e( 93 - 94) =      6.40135  eV     2   -->   2 G_2            
     e( 95 - 96) =      6.99067  eV     2   -->   2 G_2            
     e( 97 - 98) =      7.54634  eV     2   -->   2 G_2            
     e( 99 -100) =      7.61219  eV     2   -->   2 G_2            

 **************************************************************************

 **************************************************************************

                    xk=(   0.00714,   0.00412,   0.00000  )

     Band symmetry, C_1 (1)     double point group:

     e(  1 -  2) =    -35.50395  eV     2   -->   2 G_2            
     e(  3 -  4) =    -35.50032  eV     2   -->   2 G_2            
     e(  5 -  6) =    -35.47530  eV     2   -->   2 G_2            
     e(  7 -  8) =    -35.47172  eV     2   -->   2 G_2            
     e(  9 - 10) =    -35.39317  eV     2   -->   2 G_2            
     e( 11 - 12) =    -35.35962  eV     2   -->   2 G_2            
     e( 13 - 14) =    -34.04466  eV     2   -->   2 G_2            
     e( 15 - 16) =    -34.04102  eV     2   -->   2 G_2            
     e( 17 - 18) =    -34.02041  eV     2   -->   2 G_2            
     e( 19 - 20) =    -34.01682  eV     2   -->   2 G_2            
     e( 21 - 22) =    -34.00744  eV     2   -->   2 G_2            
     e( 23 - 24) =    -34.00386  eV     2   -->   2 G_2            
     e( 25 - 26) =    -33.93077  eV     2   -->   2 G_2            
     e( 27 - 28) =    -33.91541  eV     2   -->   2 G_2            
     e( 29 - 30) =    -33.88710  eV     2   -->   2 G_2            
     e( 31 - 32) =    -28.13603  eV     2   -->   2 G_2            
     e( 33 - 34) =    -28.13233  eV     2   -->   2 G_2            
     e( 35 - 36) =    -28.12750  eV     2   -->   2 G_2            
     e( 37 - 38) =    -28.12386  eV     2   -->   2 G_2            
     e( 39 - 40) =    -26.89683  eV     2   -->   2 G_2            
     e( 41 - 42) =    -26.89312  eV     2   -->   2 G_2            
     e( 43 - 44) =    -26.88737  eV     2   -->   2 G_2            
     e( 45 - 46) =    -26.88564  eV     2   -->   2 G_2            
     e( 47 - 48) =    -26.88371  eV     2   -->   2 G_2            
     e( 49 - 50) =    -26.88200  eV     2   -->   2 G_2            
     e( 51 - 52) =    -10.62790  eV     2   -->   2 G_2            
     e( 53 - 54) =    -10.09654  eV     2   -->   2 G_2            
     e( 55 - 56) =     -9.01586  eV     2   -->   2 G_2            
     e( 57 - 58) =     -6.26288  eV     2   -->   2 G_2            
     e( 59 - 60) =     -4.86834  eV     2   -->   2 G_2            
     e( 61 - 62) =     -0.50499  eV     2   -->   2 G_2            
     e( 63 - 63) =     -0.03168  eV     1   --> G_2            
     e( 64 - 64) =     -0.03115  eV     1   --> G_2            
     e( 65 - 65) =      0.23769  eV     1   --> G_2            
     e( 66 - 66) =      0.23812  eV     1   --> G_2            
     e( 67 - 67) =      0.49331  eV     1   --> G_2            
     e( 68 - 68) =      0.49370  eV     1   --> G_2            
     e( 69 - 69) =      0.55847  eV     1   --> G_2            
     e( 70 - 70) =      0.55927  eV     1   --> G_2            
     e( 71 - 71) =      0.69289  eV     1   --> G_2            
     e( 72 - 72) =      0.69395  eV     1   --> G_2            
     e( 73 - 73) =      0.93318  eV     1   --> G_2            
     e( 74 - 74) =      0.93337  eV     1   --> G_2            
     e( 75 - 75) =      1.26989  eV     1   --> G_2            
     e( 76 - 76) =      1.27002  eV     1   --> G_2            
     e( 77 - 77) =      1.42901  eV     1   --> G_2            
     e( 78 - 78) =      1.42916  eV     1   --> G_2            
     e( 79 - 79) =      2.11861  eV     1   --> G_2            
     e( 80 - 80) =      2.11876  eV     1   --> G_2            
     e( 81 - 81) =      2.73892  eV     1   --> G_2            
     e( 82 - 82) =      2.73904  eV     1   --> G_2            
     e( 83 - 83) =      3.07248  eV     1   --> G_2            
     e( 84 - 84) =      3.07274  eV     1   --> G_2            
     e( 85 - 85) =      3.30460  eV     1   --> G_2            
     e( 86 - 86) =      3.30486  eV     1   --> G_2            
     e( 87 - 88) =      4.04309  eV     2   -->   2 G_2            
     e( 89 - 90) =      4.19006  eV     2   -->   2 G_2            
     e( 91 - 92) =      6.20931  eV     2   -->   2 G_2            
     e( 93 - 94) =      6.40151  eV     2   -->   2 G_2            
     e( 95 - 96) =      6.99087  eV     2   -->   2 G_2            
     e( 97 - 98) =      7.54362  eV     2   -->   2 G_2            
     e( 99 -100) =      7.61182  eV     2   -->   2 G_2            

 **************************************************************************

 **************************************************************************

                    xk=(   0.01429,   0.00825,   0.00000  )

     Band symmetry, C_1 (1)     double point group:

     e(  1 -  2) =    -35.50395  eV     2   -->   2 G_2            
     e(  3 -  4) =    -35.50032  eV     2   -->   2 G_2            
     e(  5 -  6) =    -35.47531  eV     2   -->   2 G_2            
     e(  7 -  8) =    -35.47172  eV     2   -->   2 G_2            
     e(  9 - 10) =    -35.39317  eV     2   -->   2 G_2            
     e( 11 - 12) =    -35.35962  eV     2   -->   2 G_2            
     e( 13 - 14) =    -34.04466  eV     2   -->   2 G_2            
     e( 15 - 16) =    -34.04102  eV     2   -->   2 G_2            
     e( 17 - 18) =    -34.02041  eV     2   -->   2 G_2            
     e( 19 - 20) =    -34.01682  eV     2   -->   2 G_2            
     e( 21 - 22) =    -34.00744  eV     2   -->   2 G_2            
     e( 23 - 24) =    -34.00386  eV     2   -->   2 G_2            
     e( 25 - 26) =    -33.93077  eV     2   -->   2 G_2            
     e( 27 - 28) =    -33.91541  eV     2   -->   2 G_2            
     e( 29 - 30) =    -33.88709  eV     2   -->   2 G_2            
     e( 31 - 32) =    -28.13603  eV     2   -->   2 G_2            
     e( 33 - 34) =    -28.13233  eV     2   -->   2 G_2            
     e( 35 - 36) =    -28.12750  eV     2   -->   2 G_2            
     e( 37 - 38) =    -28.12386  eV     2   -->   2 G_2            
     e( 39 - 40) =    -26.89682  eV     2   -->   2 G_2            
     e( 41 - 42) =    -26.89312  eV     2   -->   2 G_2            
     e( 43 - 44) =    -26.88737  eV     2   -->   2 G_2            
     e( 45 - 46) =    -26.88564  eV     2   -->   2 G_2            
     e( 47 - 48) =    -26.88372  eV     2   -->   2 G_2            
     e( 49 - 50) =    -26.88200  eV     2   -->   2 G_2            
     e( 51 - 52) =    -10.62660  eV     2   -->   2 G_2            
     e( 53 - 54) =    -10.09534  eV     2   -->   2 G_2            
     e( 55 - 56) =     -9.01513  eV     2   -->   2 G_2            
     e( 57 - 58) =     -6.26306  eV     2   -->   2 G_2            
     e( 59 - 60) =     -4.87066  eV     2   -->   2 G_2            
     e( 61 - 62) =     -0.50717  eV     2   -->   2 G_2            
     e( 63 - 63) =     -0.04974  eV     1   --> G_2            
     e( 64 - 64) =     -0.04874  eV     1   --> G_2            
     e( 65 - 65) =      0.23981  eV     1   --> G_2            
     e( 66 - 66) =      0.24058  eV     1   --> G_2            
     e( 67 - 67) =      0.48270  eV     1   --> G_2            
     e( 68 - 68) =      0.48388  eV     1   --> G_2            
     e( 69 - 69) =      0.52973  eV     1   --> G_2            
     e( 70 - 70) =      0.53086  eV     1   --> G_2            
     e( 71 - 71) =      0.71191  eV     1   --> G_2            
     e( 72 - 72) =      0.71345  eV     1   --> G_2            
     e( 73 - 73) =      0.94207  eV     1   --> G_2            
     e( 74 - 74) =      0.94243  eV     1   --> G_2            
     e( 75 - 75) =      1.26011  eV     1   --> G_2            
     e( 76 - 76) =      1.26038  eV     1   --> G_2            
     e( 77 - 77) =      1.43867  eV     1   --> G_2            
     e( 78 - 78) =      1.43899  eV     1   --> G_2            
     e( 79 - 79) =      2.13635  eV     1   --> G_2            
     e( 80 - 80) =      2.13663  eV     1   --> G_2            
     e( 81 - 81) =      2.73785  eV     1   --> G_2            
     e( 82 - 82) =      2.73807  eV     1   --> G_2            
     e( 83 - 83) =      3.05718  eV     1   --> G_2            
     e( 84 - 84) =      3.05763  eV     1   --> G_2            
     e( 85 - 85) =      3.32245  eV     1   --> G_2            
     e( 86 - 86) =      3.32291  eV     1   --> G_2            
     e( 87 - 87) =      4.04995  eV     1   --> G_2            
     e( 88 - 88) =      4.05011  eV     1   --> G_2            
     e( 89 - 90) =      4.18900  eV     2   -->   2 G_2            
     e( 91 - 92) =      6.21168  eV     2   -->   2 G_2            
     e( 93 - 94) =      6.40199  eV     2   -->   2 G_2            
     e( 95 - 96) =      6.99146  eV     2   -->   2 G_2            
     e( 97 - 98) =      7.53535  eV     2   -->   2 G_2            
     e( 99 -100) =      7.61100  eV     2   -->   2 G_2            

 **************************************************************************

 **************************************************************************

                    xk=(   0.02143,   0.01237,   0.00000  )

     Band symmetry, C_1 (1)     double point group:

     e(  1 -  2) =    -35.50395  eV     2   -->   2 G_2            
     e(  3 -  4) =    -35.50032  eV     2   -->   2 G_2            
     e(  5 -  6) =    -35.47531  eV     2   -->   2 G_2            
     e(  7 -  8) =    -35.47172  eV     2   -->   2 G_2            
     e(  9 - 10) =    -35.39317  eV     2   -->   2 G_2            
     e( 11 - 12) =    -35.35962  eV     2   -->   2 G_2            
     e( 13 - 14) =    -34.04466  eV     2   -->   2 G_2            
     e( 15 - 16) =    -34.04101  eV     2   -->   2 G_2            
     e( 17 - 18) =    -34.02041  eV     2   -->   2 G_2            
     e( 19 - 20) =    -34.01682  eV     2   -->   2 G_2            
     e( 21 - 22) =    -34.00744  eV     2   -->   2 G_2            
     e( 23 - 24) =    -34.00386  eV     2   -->   2 G_2            
     e( 25 - 26) =    -33.93077  eV     2   -->   2 G_2            
     e( 27 - 28) =    -33.91541  eV     2   -->   2 G_2            
     e( 29 - 30) =    -33.88709  eV     2   -->   2 G_2            
     e( 31 - 32) =    -28.13603  eV     2   -->   2 G_2            
     e( 33 - 34) =    -28.13233  eV     2   -->   2 G_2            
     e( 35 - 36) =    -28.12751  eV     2   -->   2 G_2            
     e( 37 - 38) =    -28.12387  eV     2   -->   2 G_2            
     e( 39 - 40) =    -26.89682  eV     2   -->   2 G_2            
     e( 41 - 42) =    -26.89311  eV     2   -->   2 G_2            
     e( 43 - 44) =    -26.88738  eV     2   -->   2 G_2            
     e( 45 - 46) =    -26.88564  eV     2   -->   2 G_2            
     e( 47 - 48) =    -26.88372  eV     2   -->   2 G_2            
     e( 49 - 50) =    -26.88200  eV     2   -->   2 G_2            
     e( 51 - 52) =    -10.62445  eV     2   -->   2 G_2            
     e( 53 - 54) =    -10.09335  eV     2   -->   2 G_2            
     e( 55 - 56) =     -9.01391  eV     2   -->   2 G_2            
     e( 57 - 58) =     -6.26337  eV     2   -->   2 G_2            
     e( 59 - 60) =     -4.87451  eV     2   -->   2 G_2            
     e( 61 - 61) =     -0.51082  eV     1   --> G_2            
     e( 62 - 62) =     -0.51070  eV     1   --> G_2            
     e( 63 - 63) =     -0.07768  eV     1   --> G_2            
     e( 64 - 64) =     -0.07632  eV     1   --> G_2            
     e( 65 - 65) =      0.24160  eV     1   --> G_2            
     e( 66 - 66) =      0.24259  eV     1   --> G_2            
     e( 67 - 67) =      0.45527  eV     1   --> G_2            
     e( 68 - 68) =      0.45723  eV     1   --> G_2            
     e( 69 - 69) =      0.50728  eV     1   --> G_2            
     e( 70 - 70) =      0.50866  eV     1   --> G_2            
     e( 71 - 71) =      0.72926  eV     1   --> G_2            
     e( 72 - 72) =      0.73097  eV     1   --> G_2            
     e( 73 - 73) =      0.95593  eV     1   --> G_2            
     e( 74 - 74) =      0.95645  eV     1   --> G_2            
     e( 75 - 75) =      1.24527  eV     1   --> G_2            
     e( 76 - 76) =      1.24569  eV     1   --> G_2            
     e( 77 - 77) =      1.45548  eV     1   --> G_2            
     e( 78 - 78) =      1.45595  eV     1   --> G_2            
     e( 79 - 79) =      2.16372  eV     1   --> G_2            
     e( 80 - 80) =      2.16413  eV     1   --> G_2            
     e( 81 - 81) =      2.73594  eV     1   --> G_2            
     e( 82 - 82) =      2.73624  eV     1   --> G_2            
     e( 83 - 83) =      3.03795  eV     1   --> G_2            
     e( 84 - 84) =      3.03850  eV     1   --> G_2            
     e( 85 - 85) =      3.34691  eV     1   --> G_2            
     e( 86 - 86) =      3.34749  eV     1   --> G_2            
     e( 87 - 87) =      4.06100  eV     1   --> G_2            
     e( 88 - 88) =      4.06124  eV     1   --> G_2            
     e( 89 - 90) =      4.18764  eV     2   -->   2 G_2            
     e( 91 - 92) =      6.21562  eV     2   -->   2 G_2            
     e( 93 - 94) =      6.40278  eV     2   -->   2 G_2            
     e( 95 - 96) =      6.99236  eV     2   -->   2 G_2            
     e( 97 - 98) =      7.52140  eV     2   -->   2 G_2            
     e( 99 - 99) =      7.61027  eV     1   --> G_2            
     e(100 -100) =      7.61038  eV     1   --> G_2            

 **************************************************************************

 **************************************************************************

                    xk=(   0.02857,   0.01650,   0.00000  )

     Band symmetry, C_1 (1)     double point group:

     e(  1 -  2) =    -35.50395  eV     2   -->   2 G_2            
     e(  3 -  4) =    -35.50032  eV     2   -->   2 G_2            
     e(  5 -  6) =    -35.47531  eV     2   -->   2 G_2            
     e(  7 -  8) =    -35.47172  eV     2   -->   2 G_2            
     e(  9 - 10) =    -35.39317  eV     2   -->   2 G_2            
     e( 11 - 12) =    -35.35962  eV     2   -->   2 G_2            
     e( 13 - 14) =    -34.04466  eV     2   -->   2 G_2            
     e( 15 - 16) =    -34.04101  eV     2   -->   2 G_2            
     e( 17 - 18) =    -34.02041  eV     2   -->   2 G_2            
     e( 19 - 20) =    -34.01682  eV     2   -->   2 G_2            
     e( 21 - 22) =    -34.00744  eV     2   -->   2 G_2            
     e( 23 - 24) =    -34.00385  eV     2   -->   2 G_2            
     e( 25 - 26) =    -33.93077  eV     2   -->   2 G_2            
     e( 27 - 28) =    -33.91541  eV     2   -->   2 G_2            
     e( 29 - 30) =    -33.88709  eV     2   -->   2 G_2            
     e( 31 - 32) =    -28.13603  eV     2   -->   2 G_2            
     e( 33 - 34) =    -28.13233  eV     2   -->   2 G_2            
     e( 35 - 36) =    -28.12751  eV     2   -->   2 G_2            
     e( 37 - 38) =    -28.12387  eV     2   -->   2 G_2            
     e( 39 - 40) =    -26.89681  eV     2   -->   2 G_2            
     e( 41 - 42) =    -26.89311  eV     2   -->   2 G_2            
     e( 43 - 44) =    -26.88739  eV     2   -->   2 G_2            
     e( 45 - 46) =    -26.88564  eV     2   -->   2 G_2            
     e( 47 - 48) =    -26.88373  eV     2   -->   2 G_2            
     e( 49 - 50) =    -26.88200  eV     2   -->   2 G_2            
     e( 51 - 52) =    -10.62145  eV     2   -->   2 G_2            
     e( 53 - 54) =    -10.09058  eV     2   -->   2 G_2            
     e( 55 - 56) =     -9.01220  eV     2   -->   2 G_2            
     e( 57 - 58) =     -6.26380  eV     2   -->   2 G_2            
     e( 59 - 60) =     -4.87995  eV     2   -->   2 G_2            
     e( 61 - 61) =     -0.51601  eV     1   --> G_2            
     e( 62 - 62) =     -0.51583  eV     1   --> G_2            
     e( 63 - 63) =     -0.11362  eV     1   --> G_2            
     e( 64 - 64) =     -0.11198  eV     1   --> G_2            
     e( 65 - 65) =      0.24127  eV     1   --> G_2            
     e( 66 - 66) =      0.24234  eV     1   --> G_2            
     e( 67 - 67) =      0.41281  eV     1   --> G_2            
     e( 68 - 68) =      0.41485  eV     1   --> G_2            
     e( 69 - 69) =      0.49491  eV     1   --> G_2            
     e( 70 - 70) =      0.49616  eV     1   --> G_2            
     e( 71 - 71) =      0.74094  eV     1   --> G_2            
     e( 72 - 72) =      0.74270  eV     1   --> G_2            
     e( 73 - 73) =      0.97259  eV     1   --> G_2            
     e( 74 - 74) =      0.97324  eV     1   --> G_2            
     e( 75 - 75) =      1.22854  eV     1   --> G_2            
     e( 76 - 76) =      1.22911  eV     1   --> G_2            
     e( 77 - 77) =      1.47906  eV     1   --> G_2            
     e( 78 - 78) =      1.47966  eV     1   --> G_2            
     e( 79 - 79) =      2.19793  eV     1   --> G_2            
     e( 80 - 80) =      2.19846  eV     1   --> G_2            
     e( 81 - 81) =      2.73317  eV     1   --> G_2            
     e( 82 - 82) =      2.73352  eV     1   --> G_2            
     e( 83 - 83) =      3.01949  eV     1   --> G_2            
     e( 84 - 84) =      3.02008  eV     1   --> G_2            
     e( 85 - 85) =      3.37427  eV     1   --> G_2            
     e( 86 - 86) =      3.37492  eV     1   --> G_2            
     e( 87 - 87) =      4.07547  eV     1   --> G_2            
     e( 88 - 88) =      4.07579  eV     1   --> G_2            
     e( 89 - 90) =      4.18673  eV     2   -->   2 G_2            
     e( 91 - 92) =      6.22110  eV     2   -->   2 G_2            
     e( 93 - 94) =      6.40386  eV     2   -->   2 G_2            
     e( 95 - 96) =      6.99345  eV     2   -->   2 G_2            
     e( 97 - 98) =      7.50206  eV     2   -->   2 G_2            
     e( 99 - 99) =      7.60999  eV     1   --> G_2            
     e(100 -100) =      7.61011  eV     1   --> G_2            

 **************************************************************************

 **************************************************************************

                    xk=(   0.03571,   0.02062,   0.00000  )

     Band symmetry, C_1 (1)     double point group:

     e(  1 -  2) =    -35.50395  eV     2   -->   2 G_2            
     e(  3 -  4) =    -35.50032  eV     2   -->   2 G_2            
     e(  5 -  6) =    -35.47531  eV     2   -->   2 G_2            
     e(  7 -  8) =    -35.47172  eV     2   -->   2 G_2            
     e(  9 - 10) =    -35.39317  eV     2   -->   2 G_2            
     e( 11 - 12) =    -35.35962  eV     2   -->   2 G_2            
     e( 13 - 14) =    -34.04466  eV     2   -->   2 G_2            
     e( 15 - 16) =    -34.04101  eV     2   -->   2 G_2            
     e( 17 - 18) =    -34.02041  eV     2   -->   2 G_2            
     e( 19 - 20) =    -34.01682  eV     2   -->   2 G_2            
     e( 21 - 22) =    -34.00744  eV     2   -->   2 G_2            
     e( 23 - 24) =    -34.00385  eV     2   -->   2 G_2            
     e( 25 - 26) =    -33.93076  eV     2   -->   2 G_2            
     e( 27 - 28) =    -33.91541  eV     2   -->   2 G_2            
     e( 29 - 30) =    -33.88709  eV     2   -->   2 G_2            
     e( 31 - 32) =    -28.13602  eV     2   -->   2 G_2            
     e( 33 - 34) =    -28.13232  eV     2   -->   2 G_2            
     e( 35 - 36) =    -28.12751  eV     2   -->   2 G_2            
     e( 37 - 38) =    -28.12387  eV     2   -->   2 G_2            
     e( 39 - 40) =    -26.89681  eV     2   -->   2 G_2            
     e( 41 - 42) =    -26.89310  eV     2   -->   2 G_2            
     e( 43 - 44) =    -26.88740  eV     2   -->   2 G_2            
     e( 45 - 46) =    -26.88565  eV     2   -->   2 G_2            
     e( 47 - 48) =    -26.88374  eV     2   -->   2 G_2            
     e( 49 - 50) =    -26.88200  eV     2   -->   2 G_2            
     e( 51 - 52) =    -10.61760  eV     2   -->   2 G_2            
     e( 53 - 54) =    -10.08705  eV     2   -->   2 G_2            
     e( 55 - 56) =     -9.01005  eV     2   -->   2 G_2            
     e( 57 - 58) =     -6.26443  eV     2   -->   2 G_2            
     e( 59 - 60) =     -4.88699  eV     2   -->   2 G_2            
     e( 61 - 61) =     -0.52283  eV     1   --> G_2            
     e( 62 - 62) =     -0.52258  eV     1   --> G_2            
     e( 63 - 63) =     -0.15592  eV     1   --> G_2            
     e( 64 - 64) =     -0.15406  eV     1   --> G_2            
     e( 65 - 65) =      0.23744  eV     1   --> G_2            
     e( 66 - 66) =      0.23845  eV     1   --> G_2            
     e( 67 - 67) =      0.36495  eV     1   --> G_2            
     e( 68 - 68) =      0.36692  eV     1   --> G_2            
     e( 69 - 69) =      0.48496  eV     1   --> G_2            
     e( 70 - 70) =      0.48607  eV     1   --> G_2            
     e( 71 - 71) =      0.74594  eV     1   --> G_2            
     e( 72 - 72) =      0.74769  eV     1   --> G_2            
     e( 73 - 73) =      0.98864  eV     1   --> G_2            
     e( 74 - 74) =      0.98940  eV     1   --> G_2            
     e( 75 - 75) =      1.21471  eV     1   --> G_2            
     e( 76 - 76) =      1.21540  eV     1   --> G_2            
     e( 77 - 77) =      1.50807  eV     1   --> G_2            
     e( 78 - 78) =      1.50877  eV     1   --> G_2            
     e( 79 - 79) =      2.23585  eV     1   --> G_2            
     e( 80 - 80) =      2.23648  eV     1   --> G_2            
     e( 81 - 81) =      2.72998  eV     1   --> G_2            
     e( 82 - 82) =      2.73032  eV     1   --> G_2            
     e( 83 - 83) =      3.00518  eV     1   --> G_2            
     e( 84 - 84) =      3.00575  eV     1   --> G_2            
     e( 85 - 85) =      3.40222  eV     1   --> G_2            
     e( 86 - 86) =      3.40292  eV     1   --> G_2            
     e( 87 - 87) =      4.09178  eV     1   --> G_2            
     e( 88 - 88) =      4.09219  eV     1   --> G_2            
     e( 89 - 90) =      4.18776  eV     2   -->   2 G_2            
     e( 91 - 92) =      6.22807  eV     2   -->   2 G_2            
     e( 93 - 94) =      6.40522  eV     2   -->   2 G_2            
     e( 95 - 96) =      6.99453  eV     2   -->   2 G_2            
     e( 97 - 98) =      7.47814  eV     2   -->   2 G_2            
     e( 99 - 99) =      7.61026  eV     1   --> G_2            
     e(100 -100) =      7.61038  eV     1   --> G_2            

 **************************************************************************

 **************************************************************************

                    xk=(   0.04286,   0.02474,   0.00000  )

     Band symmetry, C_1 (1)     double point group:

     e(  1 -  2) =    -35.50395  eV     2   -->   2 G_2            
     e(  3 -  4) =    -35.50031  eV     2   -->   2 G_2            
     e(  5 -  6) =    -35.47531  eV     2   -->   2 G_2            
     e(  7 -  8) =    -35.47172  eV     2   -->   2 G_2            
     e(  9 - 10) =    -35.39317  eV     2   -->   2 G_2            
     e( 11 - 12) =    -35.35961  eV     2   -->   2 G_2            
     e( 13 - 14) =    -34.04465  eV     2   -->   2 G_2            
     e( 15 - 16) =    -34.04101  eV     2   -->   2 G_2            
     e( 17 - 18) =    -34.02041  eV     2   -->   2 G_2            
     e( 19 - 20) =    -34.01682  eV     2   -->   2 G_2            
     e( 21 - 22) =    -34.00744  eV     2   -->   2 G_2            
     e( 23 - 24) =    -34.00385  eV     2   -->   2 G_2            
     e( 25 - 26) =    -33.93076  eV     2   -->   2 G_2            
     e( 27 - 28) =    -33.91541  eV     2   -->   2 G_2            
     e( 29 - 30) =    -33.88708  eV     2   -->   2 G_2            
     e( 31 - 32) =    -28.13602  eV     2   -->   2 G_2            
     e( 33 - 34) =    -28.13232  eV     2   -->   2 G_2            
     e( 35 - 36) =    -28.12752  eV     2   -->   2 G_2            
     e( 37 - 38) =    -28.12388  eV     2   -->   2 G_2            
     e( 39 - 40) =    -26.89680  eV     2   -->   2 G_2            
     e( 41 - 42) =    -26.89309  eV     2   -->   2 G_2            
     e( 43 - 44) =    -26.88741  eV     2   -->   2 G_2            
     e( 45 - 46) =    -26.88565  eV     2   -->   2 G_2            
     e( 47 - 48) =    -26.88375  eV     2   -->   2 G_2            
     e( 49 - 50) =    -26.88200  eV     2   -->   2 G_2            
     e( 51 - 52) =    -10.61288  eV     2   -->   2 G_2            
     e( 53 - 54) =    -10.08273  eV     2   -->   2 G_2            
     e( 55 - 56) =     -9.00740  eV     2   -->   2 G_2            
     e( 57 - 58) =     -6.26519  eV     2   -->   2 G_2            
     e( 59 - 60) =     -4.89555  eV     2   -->   2 G_2            
     e( 61 - 61) =     -0.53142  eV     1   --> G_2            
     e( 62 - 62) =     -0.53107  eV     1   --> G_2            
     e( 63 - 63) =     -0.20329  eV     1   --> G_2            
     e( 64 - 64) =     -0.20124  eV     1   --> G_2            
     e( 65 - 65) =      0.22902  eV     1   --> G_2            
     e( 66 - 66) =      0.22983  eV     1   --> G_2            
     e( 67 - 67) =      0.31596  eV     1   --> G_2            
     e( 68 - 68) =      0.31782  eV     1   --> G_2            
     e( 69 - 69) =      0.47469  eV     1   --> G_2            
     e( 70 - 70) =      0.47570  eV     1   --> G_2            
     e( 71 - 71) =      0.74406  eV     1   --> G_2            
     e( 72 - 72) =      0.74573  eV     1   --> G_2            
     e( 73 - 73) =      1.00041  eV     1   --> G_2            
     e( 74 - 74) =      1.00124  eV     1   --> G_2            
     e( 75 - 75) =      1.20905  eV     1   --> G_2            
     e( 76 - 76) =      1.20981  eV     1   --> G_2            
     e( 77 - 77) =      1.54072  eV     1   --> G_2            
     e( 78 - 78) =      1.54147  eV     1   --> G_2            
     e( 79 - 79) =      2.27420  eV     1   --> G_2            
     e( 80 - 80) =      2.27492  eV     1   --> G_2            
     e( 81 - 81) =      2.72771  eV     1   --> G_2            
     e( 82 - 82) =      2.72798  eV     1   --> G_2            
     e( 83 - 83) =      2.99710  eV     1   --> G_2            
     e( 84 - 84) =      2.99759  eV     1   --> G_2            
     e( 85 - 85) =      3.42948  eV     1   --> G_2            
     e( 86 - 86) =      3.43022  eV     1   --> G_2            
     e( 87 - 87) =      4.10710  eV     1   --> G_2            
     e( 88 - 88) =      4.10763  eV     1   --> G_2            
     e( 89 - 89) =      4.19345  eV     1   --> G_2            
     e( 90 - 90) =      4.19359  eV     1   --> G_2            
     e( 91 - 92) =      6.23651  eV     2   -->   2 G_2            
     e( 93 - 94) =      6.40683  eV     2   -->   2 G_2            
     e( 95 - 96) =      6.99530  eV     2   -->   2 G_2            
     e( 97 - 98) =      7.45080  eV     2   -->   2 G_2            
     e( 99 - 99) =      7.61101  eV     1   --> G_2            
     e(100 -100) =      7.61111  eV     1   --> G_2            

 **************************************************************************

 **************************************************************************

                    xk=(   0.05000,   0.02887,   0.00000  )

     Band symmetry, C_1 (1)     double point group:

     e(  1 -  2) =    -35.50394  eV     2   -->   2 G_2            
     e(  3 -  4) =    -35.50031  eV     2   -->   2 G_2            
     e(  5 -  6) =    -35.47531  eV     2   -->   2 G_2            
     e(  7 -  8) =    -35.47172  eV     2   -->   2 G_2            
     e(  9 - 10) =    -35.39317  eV     2   -->   2 G_2            
     e( 11 - 12) =    -35.35961  eV     2   -->   2 G_2            
     e( 13 - 14) =    -34.04465  eV     2   -->   2 G_2            
     e( 15 - 16) =    -34.04100  eV     2   -->   2 G_2            
     e( 17 - 18) =    -34.02041  eV     2   -->   2 G_2            
     e( 19 - 20) =    -34.01682  eV     2   -->   2 G_2            
     e( 21 - 22) =    -34.00744  eV     2   -->   2 G_2            
     e( 23 - 24) =    -34.00385  eV     2   -->   2 G_2            
     e( 25 - 26) =    -33.93076  eV     2   -->   2 G_2            
     e( 27 - 28) =    -33.91541  eV     2   -->   2 G_2            
     e( 29 - 30) =    -33.88708  eV     2   -->   2 G_2            
     e( 31 - 32) =    -28.13602  eV     2   -->   2 G_2            
     e( 33 - 34) =    -28.13232  eV     2   -->   2 G_2            
     e( 35 - 36) =    -28.12752  eV     2   -->   2 G_2            
     e( 37 - 38) =    -28.12388  eV     2   -->   2 G_2            
     e( 39 - 40) =    -26.89679  eV     2   -->   2 G_2            
     e( 41 - 42) =    -26.89308  eV     2   -->   2 G_2            
     e( 43 - 44) =    -26.88742  eV     2   -->   2 G_2            
     e( 45 - 46) =    -26.88565  eV     2   -->   2 G_2            
     e( 47 - 48) =    -26.88375  eV     2   -->   2 G_2            
     e( 49 - 50) =    -26.88200  eV     2   -->   2 G_2            
     e( 51 - 52) =    -10.60729  eV     2   -->   2 G_2            
     e( 53 - 54) =    -10.07761  eV     2   -->   2 G_2            
     e( 55 - 56) =     -9.00431  eV     2   -->   2 G_2            
     e( 57 - 58) =     -6.26610  eV     2   -->   2 G_2            
     e( 59 - 60) =     -4.90564  eV     2   -->   2 G_2            
     e( 61 - 61) =     -0.54198  eV     1   --> G_2            
     e( 62 - 62) =     -0.54152  eV     1   --> G_2            
     e( 63 - 63) =     -0.25462  eV     1   --> G_2            
     e( 64 - 64) =     -0.25239  eV     1   --> G_2            
     e( 65 - 65) =      0.21423  eV     1   --> G_2            
     e( 66 - 66) =      0.21474  eV     1   --> G_2            
     e( 67 - 67) =      0.26899  eV     1   --> G_2            
     e( 68 - 68) =      0.27063  eV     1   --> G_2            
     e( 69 - 69) =      0.46317  eV     1   --> G_2            
     e( 70 - 70) =      0.46412  eV     1   --> G_2            
     e( 71 - 71) =      0.73514  eV     1   --> G_2            
     e( 72 - 72) =      0.73670  eV     1   --> G_2            
     e( 73 - 73) =      1.00605  eV     1   --> G_2            
     e( 74 - 74) =      1.00687  eV     1   --> G_2            
     e( 75 - 75) =      1.21501  eV     1   --> G_2            
     e( 76 - 76) =      1.21575  eV     1   --> G_2            
     e( 77 - 77) =      1.57493  eV     1   --> G_2            
     e( 78 - 78) =      1.57571  eV     1   --> G_2            
     e( 79 - 79) =      2.30973  eV     1   --> G_2            
     e( 80 - 80) =      2.31054  eV     1   --> G_2            
     e( 81 - 81) =      2.72872  eV     1   --> G_2            
     e( 82 - 82) =      2.72893  eV     1   --> G_2            
     e( 83 - 83) =      2.99620  eV     1   --> G_2            
     e( 84 - 84) =      2.99657  eV     1   --> G_2            
     e( 85 - 85) =      3.45542  eV     1   --> G_2            
     e( 86 - 86) =      3.45618  eV     1   --> G_2            
     e( 87 - 87) =      4.11783  eV     1   --> G_2            
     e( 88 - 88) =      4.11847  eV     1   --> G_2            
     e( 89 - 89) =      4.20726  eV     1   --> G_2            
     e( 90 - 90) =      4.20750  eV     1   --> G_2            
     e( 91 - 92) =      6.24635  eV     2   -->   2 G_2            
     e( 93 - 94) =      6.40865  eV     2   -->   2 G_2            
     e( 95 - 96) =      6.99539  eV     2   -->   2 G_2            
     e( 97 - 98) =      7.42142  eV     2   -->   2 G_2            
     e( 99 - 99) =      7.61210  eV     1   --> G_2            
     e(100 -100) =      7.61220  eV     1   --> G_2            

 **************************************************************************

 **************************************************************************

                    xk=(   0.05714,   0.03299,   0.00000  )

     Band symmetry, C_1 (1)     double point group:

     e(  1 -  2) =    -35.50394  eV     2   -->   2 G_2            
     e(  3 -  4) =    -35.50031  eV     2   -->   2 G_2            
     e(  5 -  6) =    -35.47531  eV     2   -->   2 G_2            
     e(  7 -  8) =    -35.47172  eV     2   -->   2 G_2            
     e(  9 - 10) =    -35.39317  eV     2   -->   2 G_2            
     e( 11 - 12) =    -35.35961  eV     2   -->   2 G_2            
     e( 13 - 14) =    -34.04464  eV     2   -->   2 G_2            
     e( 15 - 16) =    -34.04100  eV     2   -->   2 G_2            
     e( 17 - 18) =    -34.02041  eV     2   -->   2 G_2            
     e( 19 - 20) =    -34.01682  eV     2   -->   2 G_2            
     e( 21 - 22) =    -34.00744  eV     2   -->   2 G_2            
     e( 23 - 24) =    -34.00385  eV     2   -->   2 G_2            
     e( 25 - 26) =    -33.93076  eV     2   -->   2 G_2            
     e( 27 - 28) =    -33.91541  eV     2   -->   2 G_2            
     e( 29 - 30) =    -33.88707  eV     2   -->   2 G_2            
     e( 31 - 32) =    -28.13601  eV     2   -->   2 G_2            
     e( 33 - 34) =    -28.13231  eV     2   -->   2 G_2            
     e( 35 - 36) =    -28.12753  eV     2   -->   2 G_2            
     e( 37 - 38) =    -28.12389  eV     2   -->   2 G_2            
     e( 39 - 40) =    -26.89678  eV     2   -->   2 G_2            
     e( 41 - 42) =    -26.89307  eV     2   -->   2 G_2            
     e( 43 - 44) =    -26.88743  eV     2   -->   2 G_2            
     e( 45 - 46) =    -26.88565  eV     2   -->   2 G_2            
     e( 47 - 48) =    -26.88376  eV     2   -->   2 G_2            
     e( 49 - 50) =    -26.88200  eV     2   -->   2 G_2            
     e( 51 - 52) =    -10.60086  eV     2   -->   2 G_2            
     e( 53 - 54) =    -10.07171  eV     2   -->   2 G_2            
     e( 55 - 56) =     -9.00072  eV     2   -->   2 G_2            
     e( 57 - 58) =     -6.26720  eV     2   -->   2 G_2            
     e( 59 - 60) =     -4.91727  eV     2   -->   2 G_2            
     e( 61 - 61) =     -0.55488  eV     1   --> G_2            
     e( 62 - 62) =     -0.55426  eV     1   --> G_2            
     e( 63 - 63) =     -0.30887  eV     1   --> G_2            
     e( 64 - 64) =     -0.30644  eV     1   --> G_2            
     e( 65 - 65) =      0.18720  eV     1   --> G_2            
     e( 66 - 66) =      0.18838  eV     1   --> G_2            
     e( 67 - 67) =      0.23027  eV     1   --> G_2            
     e( 68 - 68) =      0.23172  eV     1   --> G_2            
     e( 69 - 69) =      0.44973  eV     1   --> G_2            
     e( 70 - 70) =      0.45067  eV     1   --> G_2            
     e( 71 - 71) =      0.71931  eV     1   --> G_2            
     e( 72 - 72) =      0.72071  eV     1   --> G_2            
     e( 73 - 73) =      1.00714  eV     1   --> G_2            
     e( 74 - 74) =      1.00790  eV     1   --> G_2            
     e( 75 - 75) =      1.23213  eV     1   --> G_2            
     e( 76 - 76) =      1.23278  eV     1   --> G_2            
     e( 77 - 77) =      1.60850  eV     1   --> G_2            
     e( 78 - 78) =      1.60928  eV     1   --> G_2            
     e( 79 - 79) =      2.33974  eV     1   --> G_2            
     e( 80 - 80) =      2.34059  eV     1   --> G_2            
     e( 81 - 81) =      2.73587  eV     1   --> G_2            
     e( 82 - 82) =      2.73614  eV     1   --> G_2            
     e( 83 - 83) =      3.00255  eV     1   --> G_2            
     e( 84 - 84) =      3.00278  eV     1   --> G_2            
     e( 85 - 85) =      3.47980  eV     1   --> G_2            
     e( 86 - 86) =      3.48057  eV     1   --> G_2            
     e( 87 - 87) =      4.12276  eV     1   --> G_2            
     e( 88 - 88) =      4.12347  eV     1   --> G_2            
     e( 89 - 89) =      4.23030  eV     1   --> G_2            
     e( 90 - 90) =      4.23060  eV     1   --> G_2            
     e( 91 - 92) =      6.25754  eV     2   -->   2 G_2            
     e( 93 - 94) =      6.41063  eV     2   -->   2 G_2            
     e( 95 - 96) =      6.99427  eV     2   -->   2 G_2            
     e( 97 - 98) =      7.39145  eV     2   -->   2 G_2            
     e( 99 -100) =      7.61343  eV     2   -->   2 G_2            

 **************************************************************************

 **************************************************************************

                    xk=(   0.06429,   0.03712,   0.00000  )

     Band symmetry, C_1 (1)     double point group:

     e(  1 -  2) =    -35.50394  eV     2   -->   2 G_2            
     e(  3 -  4) =    -35.50030  eV     2   -->   2 G_2            
     e(  5 -  6) =    -35.47531  eV     2   -->   2 G_2            
     e(  7 -  8) =    -35.47172  eV     2   -->   2 G_2            
     e(  9 - 10) =    -35.39317  eV     2   -->   2 G_2            
     e( 11 - 12) =    -35.35960  eV     2   -->   2 G_2            
     e( 13 - 14) =    -34.04464  eV     2   -->   2 G_2            
     e( 15 - 16) =    -34.04099  eV     2   -->   2 G_2            
     e( 17 - 18) =    -34.02041  eV     2   -->   2 G_2            
     e( 19 - 20) =    -34.01682  eV     2   -->   2 G_2            
     e( 21 - 22) =    -34.00744  eV     2   -->   2 G_2            
     e( 23 - 24) =    -34.00385  eV     2   -->   2 G_2            
     e( 25 - 26) =    -33.93076  eV     2   -->   2 G_2            
     e( 27 - 28) =    -33.91541  eV     2   -->   2 G_2            
     e( 29 - 30) =    -33.88707  eV     2   -->   2 G_2            
     e( 31 - 32) =    -28.13601  eV     2   -->   2 G_2            
     e( 33 - 34) =    -28.13231  eV     2   -->   2 G_2            
     e( 35 - 36) =    -28.12753  eV     2   -->   2 G_2            
     e( 37 - 38) =    -28.12389  eV     2   -->   2 G_2            
     e( 39 - 40) =    -26.89676  eV     2   -->   2 G_2            
     e( 41 - 42) =    -26.89306  eV     2   -->   2 G_2            
     e( 43 - 44) =    -26.88744  eV     2   -->   2 G_2            
     e( 45 - 46) =    -26.88564  eV     2   -->   2 G_2            
     e( 47 - 48) =    -26.88377  eV     2   -->   2 G_2            
     e( 49 - 50) =    -26.88200  eV     2   -->   2 G_2            
     e( 51 - 52) =    -10.59356  eV     2   -->   2 G_2            
     e( 53 - 54) =    -10.06504  eV     2   -->   2 G_2            
     e( 55 - 56) =     -8.99670  eV     2   -->   2 G_2            
     e( 57 - 58) =     -6.26849  eV     2   -->   2 G_2            
     e( 59 - 60) =     -4.93046  eV     2   -->   2 G_2            
     e( 61 - 61) =     -0.57074  eV     1   --> G_2            
     e( 62 - 62) =     -0.56991  eV     1   --> G_2            
     e( 63 - 63) =     -0.36481  eV     1   --> G_2            
     e( 64 - 64) =     -0.36217  eV     1   --> G_2            
     e( 65 - 65) =      0.14549  eV     1   --> G_2            
     e( 66 - 66) =      0.14725  eV     1   --> G_2            
     e( 67 - 67) =      0.20357  eV     1   --> G_2            
     e( 68 - 68) =      0.20492  eV     1   --> G_2            
     e( 69 - 69) =      0.43377  eV     1   --> G_2            
     e( 70 - 70) =      0.43477  eV     1   --> G_2            
     e( 71 - 71) =      0.69739  eV     1   --> G_2            
     e( 72 - 72) =      0.69859  eV     1   --> G_2            
     e( 73 - 73) =      1.00693  eV     1   --> G_2            
     e( 74 - 74) =      1.00762  eV     1   --> G_2            
     e( 75 - 75) =      1.25728  eV     1   --> G_2            
     e( 76 - 76) =      1.25787  eV     1   --> G_2            
     e( 77 - 77) =      1.63916  eV     1   --> G_2            
     e( 78 - 78) =      1.63994  eV     1   --> G_2            
     e( 79 - 79) =      2.36294  eV     1   --> G_2            
     e( 80 - 80) =      2.36381  eV     1   --> G_2            
     e( 81 - 81) =      2.75133  eV     1   --> G_2            
     e( 82 - 82) =      2.75179  eV     1   --> G_2            
     e( 83 - 83) =      3.01571  eV     1   --> G_2            
     e( 84 - 84) =      3.01585  eV     1   --> G_2            
     e( 85 - 85) =      3.50265  eV     1   --> G_2            
     e( 86 - 86) =      3.50343  eV     1   --> G_2            
     e( 87 - 87) =      4.12394  eV     1   --> G_2            
     e( 88 - 88) =      4.12468  eV     1   --> G_2            
     e( 89 - 89) =      4.26034  eV     1   --> G_2            
     e( 90 - 90) =      4.26067  eV     1   --> G_2            
     e( 91 - 92) =      6.26999  eV     2   -->   2 G_2            
     e( 93 - 94) =      6.41270  eV     2   -->   2 G_2            
     e( 95 - 96) =      6.99126  eV     2   -->   2 G_2            
     e( 97 - 97) =      7.36239  eV     1   --> G_2            
     e( 98 - 98) =      7.36249  eV     1   --> G_2            
     e( 99 -100) =      7.61492  eV     2   -->   2 G_2            

 **************************************************************************

 **************************************************************************

                    xk=(   0.07143,   0.04124,   0.00000  )

     Band symmetry, C_1 (1)     double point group:

     e(  1 -  2) =    -35.50393  eV     2   -->   2 G_2            
     e(  3 -  4) =    -35.50030  eV     2   -->   2 G_2            
     e(  5 -  6) =    -35.47531  eV     2   -->   2 G_2            
     e(  7 -  8) =    -35.47172  eV     2   -->   2 G_2            
     e(  9 - 10) =    -35.39317  eV     2   -->   2 G_2            
     e( 11 - 12) =    -35.35960  eV     2   -->   2 G_2            
     e( 13 - 14) =    -34.04463  eV     2   -->   2 G_2            
     e( 15 - 16) =    -34.04098  eV     2   -->   2 G_2            
     e( 17 - 18) =    -34.02041  eV     2   -->   2 G_2            
     e( 19 - 20) =    -34.01682  eV     2   -->   2 G_2            
     e( 21 - 22) =    -34.00743  eV     2   -->   2 G_2            
     e( 23 - 24) =    -34.00385  eV     2   -->   2 G_2            
     e( 25 - 26) =    -33.93075  eV     2   -->   2 G_2            
     e( 27 - 28) =    -33.91541  eV     2   -->   2 G_2            
     e( 29 - 30) =    -33.88706  eV     2   -->   2 G_2            
     e( 31 - 32) =    -28.13600  eV     2   -->   2 G_2            
     e( 33 - 34) =    -28.13230  eV     2   -->   2 G_2            
     e( 35 - 36) =    -28.12753  eV     2   -->   2 G_2            
     e( 37 - 38) =    -28.12389  eV     2   -->   2 G_2            
     e( 39 - 40) =    -26.89675  eV     2   -->   2 G_2            
     e( 41 - 42) =    -26.89304  eV     2   -->   2 G_2            
     e( 43 - 44) =    -26.88745  eV     2   -->   2 G_2            
     e( 45 - 46) =    -26.88564  eV     2   -->   2 G_2            
     e( 47 - 48) =    -26.88378  eV     2   -->   2 G_2            
     e( 49 - 50) =    -26.88200  eV     2   -->   2 G_2            
     e( 51 - 52) =    -10.58540  eV     2   -->   2 G_2            
     e( 53 - 54) =    -10.05760  eV     2   -->   2 G_2            
     e( 55 - 56) =     -8.99221  eV     2   -->   2 G_2            
     e( 57 - 58) =     -6.26997  eV     2   -->   2 G_2            
     e( 59 - 60) =     -4.94517  eV     2   -->   2 G_2            
     e( 61 - 61) =     -0.59070  eV     1   --> G_2            
     e( 62 - 62) =     -0.58960  eV     1   --> G_2            
     e( 63 - 63) =     -0.42077  eV     1   --> G_2            
     e( 64 - 64) =     -0.41787  eV     1   --> G_2            
     e( 65 - 65) =      0.09758  eV     1   --> G_2            
     e( 66 - 66) =      0.09944  eV     1   --> G_2            
     e( 67 - 67) =      0.18138  eV     1   --> G_2            
     e( 68 - 68) =      0.18253  eV     1   --> G_2            
     e( 69 - 69) =      0.41472  eV     1   --> G_2            
     e( 70 - 70) =      0.41586  eV     1   --> G_2            
     e( 71 - 71) =      0.67099  eV     1   --> G_2            
     e( 72 - 72) =      0.67198  eV     1   --> G_2            
     e( 73 - 73) =      1.00776  eV     1   --> G_2            
     e( 74 - 74) =      1.00838  eV     1   --> G_2            
     e( 75 - 75) =      1.28732  eV     1   --> G_2            
     e( 76 - 76) =      1.28788  eV     1   --> G_2            
     e( 77 - 77) =      1.66462  eV     1   --> G_2            
     e( 78 - 78) =      1.66539  eV     1   --> G_2            
     e( 79 - 79) =      2.38036  eV     1   --> G_2            
     e( 80 - 80) =      2.38121  eV     1   --> G_2            
     e( 81 - 81) =      2.77539  eV     1   --> G_2            
     e( 82 - 82) =      2.77604  eV     1   --> G_2            
     e( 83 - 83) =      3.03504  eV     1   --> G_2            
     e( 84 - 84) =      3.03524  eV     1   --> G_2            
     e( 85 - 85) =      3.52424  eV     1   --> G_2            
     e( 86 - 86) =      3.52502  eV     1   --> G_2            
     e( 87 - 87) =      4.12380  eV     1   --> G_2            
     e( 88 - 88) =      4.12457  eV     1   --> G_2            
     e( 89 - 89) =      4.29477  eV     1   --> G_2            
     e( 90 - 90) =      4.29510  eV     1   --> G_2            
     e( 91 - 91) =      6.28364  eV     1   --> G_2            
     e( 92 - 92) =      6.28375  eV     1   --> G_2            
     e( 93 - 93) =      6.41476  eV     1   --> G_2            
     e( 94 - 94) =      6.41487  eV     1   --> G_2            
     e( 95 - 96) =      6.98561  eV     2   -->   2 G_2            
     e( 97 - 97) =      7.33576  eV     1   --> G_2            
     e( 98 - 98) =      7.33588  eV     1   --> G_2            
     e( 99 -100) =      7.61653  eV     2   -->   2 G_2            

 **************************************************************************

 **************************************************************************

                    xk=(   0.07857,   0.04536,   0.00000  )

     Band symmetry, C_1 (1)     double point group:

     e(  1 -  2) =    -35.50393  eV     2   -->   2 G_2            
     e(  3 -  4) =    -35.50030  eV     2   -->   2 G_2            
     e(  5 -  6) =    -35.47531  eV     2   -->   2 G_2            
     e(  7 -  8) =    -35.47172  eV     2   -->   2 G_2            
     e(  9 - 10) =    -35.39316  eV     2   -->   2 G_2            
     e( 11 - 12) =    -35.35960  eV     2   -->   2 G_2            
     e( 13 - 14) =    -34.04462  eV     2   -->   2 G_2            
     e( 15 - 16) =    -34.04098  eV     2   -->   2 G_2            
     e( 17 - 18) =    -34.02041  eV     2   -->   2 G_2            
     e( 19 - 20) =    -34.01682  eV     2   -->   2 G_2            
     e( 21 - 22) =    -34.00743  eV     2   -->   2 G_2            
     e( 23 - 24) =    -34.00384  eV     2   -->   2 G_2            
     e( 25 - 26) =    -33.93075  eV     2   -->   2 G_2            
     e( 27 - 28) =    -33.91542  eV     2   -->   2 G_2            
     e( 29 - 30) =    -33.88705  eV     2   -->   2 G_2            
     e( 31 - 32) =    -28.13599  eV     2   -->   2 G_2            
     e( 33 - 34) =    -28.13230  eV     2   -->   2 G_2            
     e( 35 - 36) =    -28.12754  eV     2   -->   2 G_2            
     e( 37 - 38) =    -28.12390  eV     2   -->   2 G_2            
     e( 39 - 40) =    -26.89673  eV     2   -->   2 G_2            
     e( 41 - 42) =    -26.89303  eV     2   -->   2 G_2            
     e( 43 - 44) =    -26.88746  eV     2   -->   2 G_2            
     e( 45 - 46) =    -26.88564  eV     2   -->   2 G_2            
     e( 47 - 48) =    -26.88380  eV     2   -->   2 G_2            
     e( 49 - 50) =    -26.88199  eV     2   -->   2 G_2            
     e( 51 - 52) =    -10.57642  eV     2   -->   2 G_2            
     e( 53 - 54) =    -10.04940  eV     2   -->   2 G_2            
     e( 55 - 56) =     -8.98727  eV     2   -->   2 G_2            
     e( 57 - 58) =     -6.27170  eV     2   -->   2 G_2            
     e( 59 - 60) =     -4.96142  eV     2   -->   2 G_2            
     e( 61 - 61) =     -0.61687  eV     1   --> G_2            
     e( 62 - 62) =     -0.61551  eV     1   --> G_2            
     e( 63 - 63) =     -0.47408  eV     1   --> G_2            
     e( 64 - 64) =     -0.47094  eV     1   --> G_2            
     e( 65 - 65) =      0.04791  eV     1   --> G_2            
     e( 66 - 66) =      0.04975  eV     1   --> G_2            
     e( 67 - 67) =      0.15953  eV     1   --> G_2            
     e( 68 - 68) =      0.16049  eV     1   --> G_2            
     e( 69 - 69) =      0.39214  eV     1   --> G_2            
     e( 70 - 70) =      0.39346  eV     1   --> G_2            
     e( 71 - 71) =      0.64215  eV     1   --> G_2            
     e( 72 - 72) =      0.64295  eV     1   --> G_2            
     e( 73 - 73) =      1.01039  eV     1   --> G_2            
     e( 74 - 74) =      1.01094  eV     1   --> G_2            
     e( 75 - 75) =      1.32005  eV     1   --> G_2            
     e( 76 - 76) =      1.32061  eV     1   --> G_2            
     e( 77 - 77) =      1.68280  eV     1   --> G_2            
     e( 78 - 78) =      1.68357  eV     1   --> G_2            
     e( 79 - 79) =      2.39494  eV     1   --> G_2            
     e( 80 - 80) =      2.39574  eV     1   --> G_2            
     e( 81 - 81) =      2.80634  eV     1   --> G_2            
     e( 82 - 82) =      2.80715  eV     1   --> G_2            
     e( 83 - 83) =      3.05989  eV     1   --> G_2            
     e( 84 - 84) =      3.06021  eV     1   --> G_2            
     e( 85 - 85) =      3.54502  eV     1   --> G_2            
     e( 86 - 86) =      3.54580  eV     1   --> G_2            
     e( 87 - 87) =      4.12402  eV     1   --> G_2            
     e( 88 - 88) =      4.12480  eV     1   --> G_2            
     e( 89 - 89) =      4.33178  eV     1   --> G_2            
     e( 90 - 90) =      4.33211  eV     1   --> G_2            
     e( 91 - 91) =      6.29837  eV     1   --> G_2            
     e( 92 - 92) =      6.29850  eV     1   --> G_2            
     e( 93 - 93) =      6.41671  eV     1   --> G_2            
     e( 94 - 94) =      6.41683  eV     1   --> G_2            
     e( 95 - 95) =      6.97656  eV     1   --> G_2            
     e( 96 - 96) =      6.97666  eV     1   --> G_2            
     e( 97 - 97) =      7.31299  eV     1   --> G_2            
     e( 98 - 98) =      7.31313  eV     1   --> G_2            
     e( 99 -100) =      7.61828  eV     2   -->   2 G_2            

 **************************************************************************

 **************************************************************************

                    xk=(   0.08571,   0.04949,   0.00000  )

     Band symmetry, C_1 (1)     double point group:

     e(  1 -  2) =    -35.50392  eV     2   -->   2 G_2            
     e(  3 -  4) =    -35.50029  eV     2   -->   2 G_2            
     e(  5 -  6) =    -35.47530  eV     2   -->   2 G_2            
     e(  7 -  8) =    -35.47172  eV     2   -->   2 G_2            
     e(  9 - 10) =    -35.39316  eV     2   -->   2 G_2            
     e( 11 - 12) =    -35.35959  eV     2   -->   2 G_2            
     e( 13 - 14) =    -34.04461  eV     2   -->   2 G_2            
     e( 15 - 16) =    -34.04097  eV     2   -->   2 G_2            
     e( 17 - 18) =    -34.02041  eV     2   -->   2 G_2            
     e( 19 - 20) =    -34.01682  eV     2   -->   2 G_2            
     e( 21 - 22) =    -34.00743  eV     2   -->   2 G_2            
     e( 23 - 24) =    -34.00384  eV     2   -->   2 G_2            
     e( 25 - 26) =    -33.93075  eV     2   -->   2 G_2            
     e( 27 - 28) =    -33.91542  eV     2   -->   2 G_2            
     e( 29 - 30) =    -33.88705  eV     2   -->   2 G_2            
     e( 31 - 32) =    -28.13599  eV     2   -->   2 G_2            
     e( 33 - 34) =    -28.13229  eV     2   -->   2 G_2            
     e( 35 - 36) =    -28.12754  eV     2   -->   2 G_2            
     e( 37 - 38) =    -28.12390  eV     2   -->   2 G_2            
     e( 39 - 40) =    -26.89672  eV     2   -->   2 G_2            
     e( 41 - 42) =    -26.89301  eV     2   -->   2 G_2            
     e( 43 - 43) =    -26.88747  eV     1   --> G_2            
     e( 44 - 44) =    -26.88737  eV     1   --> G_2            
     e( 45 - 46) =    -26.88564  eV     2   -->   2 G_2            
     e( 47 - 48) =    -26.88381  eV     2   -->   2 G_2            
     e( 49 - 50) =    -26.88199  eV     2   -->   2 G_2            
     e( 51 - 52) =    -10.56656  eV     2   -->   2 G_2            
     e( 53 - 54) =    -10.04043  eV     2   -->   2 G_2            
     e( 55 - 56) =     -8.98194  eV     2   -->   2 G_2            
     e( 57 - 58) =     -6.27367  eV     2   -->   2 G_2            
     e( 59 - 60) =     -4.97922  eV     2   -->   2 G_2            
     e( 61 - 61) =     -0.65228  eV     1   --> G_2            
     e( 62 - 62) =     -0.65084  eV     1   --> G_2            
     e( 63 - 63) =     -0.52105  eV     1   --> G_2            
     e( 64 - 64) =     -0.51787  eV     1   --> G_2            
     e( 65 - 65) =     -0.00242  eV     1   --> G_2            
     e( 66 - 66) =     -0.00063  eV     1   --> G_2            
     e( 67 - 67) =      0.13722  eV     1   --> G_2            
     e( 68 - 68) =      0.13801  eV     1   --> G_2            
     e( 69 - 69) =      0.36581  eV     1   --> G_2            
     e( 70 - 70) =      0.36734  eV     1   --> G_2            
     e( 71 - 71) =      0.61278  eV     1   --> G_2            
     e( 72 - 72) =      0.61348  eV     1   --> G_2            
     e( 73 - 73) =      1.01463  eV     1   --> G_2            
     e( 74 - 74) =      1.01512  eV     1   --> G_2            
     e( 75 - 75) =      1.35398  eV     1   --> G_2            
     e( 76 - 76) =      1.35457  eV     1   --> G_2            
     e( 77 - 77) =      1.69215  eV     1   --> G_2            
     e( 78 - 78) =      1.69292  eV     1   --> G_2            
     e( 79 - 79) =      2.41018  eV     1   --> G_2            
     e( 80 - 80) =      2.41091  eV     1   --> G_2            
     e( 81 - 81) =      2.84168  eV     1   --> G_2            
     e( 82 - 82) =      2.84259  eV     1   --> G_2            
     e( 83 - 83) =      3.08936  eV     1   --> G_2            
     e( 84 - 84) =      3.08979  eV     1   --> G_2            
     e( 85 - 85) =      3.56564  eV     1   --> G_2            
     e( 86 - 86) =      3.56641  eV     1   --> G_2            
     e( 87 - 87) =      4.12568  eV     1   --> G_2            
     e( 88 - 88) =      4.12648  eV     1   --> G_2            
     e( 89 - 89) =      4.37018  eV     1   --> G_2            
     e( 90 - 90) =      4.37049  eV     1   --> G_2            
     e( 91 - 91) =      6.31407  eV     1   --> G_2            
     e( 92 - 92) =      6.31423  eV     1   --> G_2            
     e( 93 - 93) =      6.41839  eV     1   --> G_2            
     e( 94 - 94) =      6.41853  eV     1   --> G_2            
     e( 95 - 95) =      6.96361  eV     1   --> G_2            
     e( 96 - 96) =      6.96372  eV     1   --> G_2            
     e( 97 - 97) =      7.29525  eV     1   --> G_2            
     e( 98 - 98) =      7.29540  eV     1   --> G_2            
     e( 99 -100) =      7.62020  eV     2   -->   2 G_2            

 **************************************************************************

 **************************************************************************

                    xk=(   0.09286,   0.05361,   0.00000  )

     Band symmetry, C_1 (1)     double point group:

     e(  1 -  2) =    -35.50392  eV     2   -->   2 G_2            
     e(  3 -  4) =    -35.50029  eV     2   -->   2 G_2            
     e(  5 -  6) =    -35.47530  eV     2   -->   2 G_2            
     e(  7 -  8) =    -35.47172  eV     2   -->   2 G_2            
     e(  9 - 10) =    -35.39316  eV     2   -->   2 G_2            
     e( 11 - 12) =    -35.35959  eV     2   -->   2 G_2            
     e( 13 - 14) =    -34.04460  eV     2   -->   2 G_2            
     e( 15 - 16) =    -34.04096  eV     2   -->   2 G_2            
     e( 17 - 18) =    -34.02041  eV     2   -->   2 G_2            
     e( 19 - 20) =    -34.01682  eV     2   -->   2 G_2            
     e( 21 - 22) =    -34.00743  eV     2   -->   2 G_2            
     e( 23 - 24) =    -34.00384  eV     2   -->   2 G_2            
     e( 25 - 26) =    -33.93074  eV     2   -->   2 G_2            
     e( 27 - 28) =    -33.91542  eV     2   -->   2 G_2            
     e( 29 - 30) =    -33.88704  eV     2   -->   2 G_2            
     e( 31 - 32) =    -28.13598  eV     2   -->   2 G_2            
     e( 33 - 34) =    -28.13228  eV     2   -->   2 G_2            
     e( 35 - 36) =    -28.12755  eV     2   -->   2 G_2            
     e( 37 - 38) =    -28.12391  eV     2   -->   2 G_2            
     e( 39 - 40) =    -26.89670  eV     2   -->   2 G_2            
     e( 41 - 42) =    -26.89299  eV     2   -->   2 G_2            
     e( 43 - 43) =    -26.88749  eV     1   --> G_2            
     e( 44 - 44) =    -26.88738  eV     1   --> G_2            
     e( 45 - 46) =    -26.88564  eV     2   -->   2 G_2            
     e( 47 - 48) =    -26.88382  eV     2   -->   2 G_2            
     e( 49 - 50) =    -26.88199  eV     2   -->   2 G_2            
     e( 51 - 52) =    -10.55586  eV     2   -->   2 G_2            
     e( 53 - 54) =    -10.03069  eV     2   -->   2 G_2            
     e( 55 - 56) =     -8.97614  eV     2   -->   2 G_2            
     e( 57 - 58) =     -6.27591  eV     2   -->   2 G_2            
     e( 59 - 60) =     -4.99847  eV     2   -->   2 G_2            
     e( 61 - 61) =     -0.69884  eV     1   --> G_2            
     e( 62 - 62) =     -0.69763  eV     1   --> G_2            
     e( 63 - 63) =     -0.55918  eV     1   --> G_2            
     e( 64 - 64) =     -0.55628  eV     1   --> G_2            
     e( 65 - 65) =     -0.05320  eV     1   --> G_2            
     e( 66 - 66) =     -0.05147  eV     1   --> G_2            
     e( 67 - 67) =      0.11438  eV     1   --> G_2            
     e( 68 - 68) =      0.11502  eV     1   --> G_2            
     e( 69 - 69) =      0.33586  eV     1   --> G_2            
     e( 70 - 70) =      0.33759  eV     1   --> G_2            
     e( 71 - 71) =      0.58436  eV     1   --> G_2            
     e( 72 - 72) =      0.58504  eV     1   --> G_2            
     e( 73 - 73) =      1.01993  eV     1   --> G_2            
     e( 74 - 74) =      1.02036  eV     1   --> G_2            
     e( 75 - 75) =      1.38804  eV     1   --> G_2            
     e( 76 - 76) =      1.38866  eV     1   --> G_2            
     e( 77 - 77) =      1.69203  eV     1   --> G_2            
     e( 78 - 78) =      1.69284  eV     1   --> G_2            
     e( 79 - 79) =      2.42871  eV     1   --> G_2            
     e( 80 - 80) =      2.42937  eV     1   --> G_2            
     e( 81 - 81) =      2.87926  eV     1   --> G_2            
     e( 82 - 82) =      2.88022  eV     1   --> G_2            
     e( 83 - 83) =      3.12219  eV     1   --> G_2            
     e( 84 - 84) =      3.12269  eV     1   --> G_2            
     e( 85 - 85) =      3.58694  eV     1   --> G_2            
     e( 86 - 86) =      3.58768  eV     1   --> G_2            
     e( 87 - 87) =      4.12959  eV     1   --> G_2            
     e( 88 - 88) =      4.13039  eV     1   --> G_2            
     e( 89 - 89) =      4.40908  eV     1   --> G_2            
     e( 90 - 90) =      4.40938  eV     1   --> G_2            
     e( 91 - 91) =      6.33057  eV     1   --> G_2            
     e( 92 - 92) =      6.33075  eV     1   --> G_2            
     e( 93 - 93) =      6.41963  eV     1   --> G_2            
     e( 94 - 94) =      6.41981  eV     1   --> G_2            
     e( 95 - 95) =      6.94678  eV     1   --> G_2            
     e( 96 - 96) =      6.94689  eV     1   --> G_2            
     e( 97 - 97) =      7.28316  eV     1   --> G_2            
     e( 98 - 98) =      7.28331  eV     1   --> G_2            
     e( 99 -100) =      7.62241  eV     2   -->   2 G_2            

 **************************************************************************

 **************************************************************************

                    xk=(   0.10000,   0.05774,   0.00000  )

     Band symmetry, C_1 (1)     double point group:

     e(  1 -  2) =    -35.50391  eV     2   -->   2 G_2            
     e(  3 -  4) =    -35.50028  eV     2   -->   2 G_2            
     e(  5 -  6) =    -35.47530  eV     2   -->   2 G_2            
     e(  7 -  8) =    -35.47172  eV     2   -->   2 G_2            
     e(  9 - 10) =    -35.39316  eV     2   -->   2 G_2            
     e( 11 - 12) =    -35.35958  eV     2   -->   2 G_2            
     e( 13 - 14) =    -34.04459  eV     2   -->   2 G_2            
     e( 15 - 16) =    -34.04095  eV     2   -->   2 G_2            
     e( 17 - 18) =    -34.02041  eV     2   -->   2 G_2            
     e( 19 - 20) =    -34.01682  eV     2   -->   2 G_2            
     e( 21 - 22) =    -34.00742  eV     2   -->   2 G_2            
     e( 23 - 24) =    -34.00384  eV     2   -->   2 G_2            
     e( 25 - 26) =    -33.93074  eV     2   -->   2 G_2            
     e( 27 - 28) =    -33.91542  eV     2   -->   2 G_2            
     e( 29 - 30) =    -33.88703  eV     2   -->   2 G_2            
     e( 31 - 32) =    -28.13597  eV     2   -->   2 G_2            
     e( 33 - 34) =    -28.13227  eV     2   -->   2 G_2            
     e( 35 - 36) =    -28.12755  eV     2   -->   2 G_2            
     e( 37 - 38) =    -28.12391  eV     2   -->   2 G_2            
     e( 39 - 40) =    -26.89668  eV     2   -->   2 G_2            
     e( 41 - 42) =    -26.89297  eV     2   -->   2 G_2            
     e( 43 - 43) =    -26.88750  eV     1   --> G_2            
     e( 44 - 44) =    -26.88739  eV     1   --> G_2            
     e( 45 - 46) =    -26.88564  eV     2   -->   2 G_2            
     e( 47 - 47) =    -26.88383  eV     1   --> G_2            
     e( 48 - 48) =    -26.88373  eV     1   --> G_2            
     e( 49 - 50) =    -26.88199  eV     2   -->   2 G_2            
     e( 51 - 52) =    -10.54434  eV     2   -->   2 G_2            
     e( 53 - 54) =    -10.02022  eV     2   -->   2 G_2            
     e( 55 - 56) =     -8.96996  eV     2   -->   2 G_2            
     e( 57 - 58) =     -6.27847  eV     2   -->   2 G_2            
     e( 59 - 60) =     -5.01927  eV     2   -->   2 G_2            
     e( 61 - 61) =     -0.75494  eV     1   --> G_2            
     e( 62 - 62) =     -0.75411  eV     1   --> G_2            
     e( 63 - 63) =     -0.58981  eV     1   --> G_2            
     e( 64 - 64) =     -0.58733  eV     1   --> G_2            
     e( 65 - 65) =     -0.10443  eV     1   --> G_2            
     e( 66 - 66) =     -0.10277  eV     1   --> G_2            
     e( 67 - 67) =      0.09103  eV     1   --> G_2            
     e( 68 - 68) =      0.09153  eV     1   --> G_2            
     e( 69 - 69) =      0.30282  eV     1   --> G_2            
     e( 70 - 70) =      0.30471  eV     1   --> G_2            
     e( 71 - 71) =      0.55774  eV     1   --> G_2            
     e( 72 - 72) =      0.55846  eV     1   --> G_2            
     e( 73 - 73) =      1.02571  eV     1   --> G_2            
     e( 74 - 74) =      1.02609  eV     1   --> G_2            
     e( 75 - 75) =      1.42116  eV     1   --> G_2            
     e( 76 - 76) =      1.42182  eV     1   --> G_2            
     e( 77 - 77) =      1.68300  eV     1   --> G_2            
     e( 78 - 78) =      1.68386  eV     1   --> G_2            
     e( 79 - 79) =      2.45175  eV     1   --> G_2            
     e( 80 - 80) =      2.45235  eV     1   --> G_2            
     e( 81 - 81) =      2.91773  eV     1   --> G_2            
     e( 82 - 82) =      2.91868  eV     1   --> G_2            
     e( 83 - 83) =      3.15668  eV     1   --> G_2            
     e( 84 - 84) =      3.15723  eV     1   --> G_2            
     e( 85 - 85) =      3.60991  eV     1   --> G_2            
     e( 86 - 86) =      3.61063  eV     1   --> G_2            
     e( 87 - 87) =      4.13637  eV     1   --> G_2            
     e( 88 - 88) =      4.13716  eV     1   --> G_2            
     e( 89 - 89) =      4.44783  eV     1   --> G_2            
     e( 90 - 90) =      4.44811  eV     1   --> G_2            
     e( 91 - 91) =      6.34756  eV     1   --> G_2            
     e( 92 - 92) =      6.34778  eV     1   --> G_2            
     e( 93 - 93) =      6.42031  eV     1   --> G_2            
     e( 94 - 94) =      6.42052  eV     1   --> G_2            
     e( 95 - 95) =      6.92672  eV     1   --> G_2            
     e( 96 - 96) =      6.92683  eV     1   --> G_2            
     e( 97 - 97) =      7.27672  eV     1   --> G_2            
     e( 98 - 98) =      7.27687  eV     1   --> G_2            
     e( 99 -100) =      7.62503  eV     2   -->   2 G_2            

 **************************************************************************

 **************************************************************************

                    xk=(   0.10714,   0.06186,   0.00000  )

     Band symmetry, C_1 (1)     double point group:

     e(  1 -  2) =    -35.50391  eV     2   -->   2 G_2            
     e(  3 -  4) =    -35.50027  eV     2   -->   2 G_2            
     e(  5 -  6) =    -35.47530  eV     2   -->   2 G_2            
     e(  7 -  8) =    -35.47172  eV     2   -->   2 G_2            
     e(  9 - 10) =    -35.39316  eV     2   -->   2 G_2            
     e( 11 - 12) =    -35.35958  eV     2   -->   2 G_2            
     e( 13 - 14) =    -34.04459  eV     2   -->   2 G_2            
     e( 15 - 16) =    -34.04094  eV     2   -->   2 G_2            
     e( 17 - 18) =    -34.02041  eV     2   -->   2 G_2            
     e( 19 - 20) =    -34.01682  eV     2   -->   2 G_2            
     e( 21 - 22) =    -34.00742  eV     2   -->   2 G_2            
     e( 23 - 24) =    -34.00383  eV     2   -->   2 G_2            
     e( 25 - 26) =    -33.93073  eV     2   -->   2 G_2            
     e( 27 - 28) =    -33.91542  eV     2   -->   2 G_2            
     e( 29 - 30) =    -33.88702  eV     2   -->   2 G_2            
     e( 31 - 32) =    -28.13596  eV     2   -->   2 G_2            
     e( 33 - 34) =    -28.13227  eV     2   -->   2 G_2            
     e( 35 - 36) =    -28.12756  eV     2   -->   2 G_2            
     e( 37 - 38) =    -28.12392  eV     2   -->   2 G_2            
     e( 39 - 40) =    -26.89666  eV     2   -->   2 G_2            
     e( 41 - 42) =    -26.89295  eV     2   -->   2 G_2            
     e( 43 - 43) =    -26.88752  eV     1   --> G_2            
     e( 44 - 44) =    -26.88740  eV     1   --> G_2            
     e( 45 - 46) =    -26.88563  eV     2   -->   2 G_2            
     e( 47 - 47) =    -26.88385  eV     1   --> G_2            
     e( 48 - 48) =    -26.88374  eV     1   --> G_2            
     e( 49 - 50) =    -26.88198  eV     2   -->   2 G_2            
     e( 51 - 52) =    -10.53200  eV     2   -->   2 G_2            
     e( 53 - 54) =    -10.00900  eV     2   -->   2 G_2            
     e( 55 - 56) =     -8.96337  eV     2   -->   2 G_2            
     e( 57 - 58) =     -6.28137  eV     2   -->   2 G_2            
     e( 59 - 60) =     -5.04157  eV     2   -->   2 G_2            
     e( 61 - 61) =     -0.81722  eV     1   --> G_2            
     e( 62 - 62) =     -0.81671  eV     1   --> G_2            
     e( 63 - 63) =     -0.61607  eV     1   --> G_2            
     e( 64 - 64) =     -0.61397  eV     1   --> G_2            
     e( 65 - 65) =     -0.15620  eV     1   --> G_2            
     e( 66 - 66) =     -0.15460  eV     1   --> G_2            
     e( 67 - 67) =      0.06714  eV     1   --> G_2            
     e( 68 - 68) =      0.06752  eV     1   --> G_2            
     e( 69 - 69) =      0.26754  eV     1   --> G_2            
     e( 70 - 70) =      0.26957  eV     1   --> G_2            
     e( 71 - 71) =      0.53324  eV     1   --> G_2            
     e( 72 - 72) =      0.53403  eV     1   --> G_2            
     e( 73 - 73) =      1.03143  eV     1   --> G_2            
     e( 74 - 74) =      1.03177  eV     1   --> G_2            
     e( 75 - 75) =      1.45192  eV     1   --> G_2            
     e( 76 - 76) =      1.45265  eV     1   --> G_2            
     e( 77 - 77) =      1.66698  eV     1   --> G_2            
     e( 78 - 78) =      1.66793  eV     1   --> G_2            
     e( 79 - 79) =      2.47916  eV     1   --> G_2            
     e( 80 - 80) =      2.47971  eV     1   --> G_2            
     e( 81 - 81) =      2.95654  eV     1   --> G_2            
     e( 82 - 82) =      2.95745  eV     1   --> G_2            
     e( 83 - 83) =      3.19089  eV     1   --> G_2            
     e( 84 - 84) =      3.19146  eV     1   --> G_2            
     e( 85 - 85) =      3.63562  eV     1   --> G_2            
     e( 86 - 86) =      3.63629  eV     1   --> G_2            
     e( 87 - 87) =      4.14653  eV     1   --> G_2            
     e( 88 - 88) =      4.14728  eV     1   --> G_2            
     e( 89 - 89) =      4.48587  eV     1   --> G_2            
     e( 90 - 90) =      4.48613  eV     1   --> G_2            
     e( 91 - 91) =      6.36442  eV     1   --> G_2            
     e( 92 - 92) =      6.36470  eV     1   --> G_2            
     e( 93 - 93) =      6.42051  eV     1   --> G_2            
     e( 94 - 94) =      6.42077  eV     1   --> G_2            
     e( 95 - 95) =      6.90468  eV     1   --> G_2            
     e( 96 - 96) =      6.90479  eV     1   --> G_2            
     e( 97 - 97) =      7.27544  eV     1   --> G_2            
     e( 98 - 98) =      7.27557  eV     1   --> G_2            
     e( 99 -100) =      7.62824  eV     2   -->   2 G_2            

 **************************************************************************

 **************************************************************************

                    xk=(   0.11429,   0.06598,   0.00000  )

     Band symmetry, C_1 (1)     double point group:

     e(  1 -  2) =    -35.50390  eV     2   -->   2 G_2            
     e(  3 -  4) =    -35.50027  eV     2   -->   2 G_2            
     e(  5 -  6) =    -35.47530  eV     2   -->   2 G_2            
     e(  7 -  8) =    -35.47172  eV     2   -->   2 G_2            
     e(  9 - 10) =    -35.39316  eV     2   -->   2 G_2            
     e( 11 - 12) =    -35.35957  eV     2   -->   2 G_2            
     e( 13 - 14) =    -34.04457  eV     2   -->   2 G_2            
     e( 15 - 16) =    -34.04093  eV     2   -->   2 G_2            
     e( 17 - 18) =    -34.02041  eV     2   -->   2 G_2            
     e( 19 - 20) =    -34.01682  eV     2   -->   2 G_2            
     e( 21 - 22) =    -34.00742  eV     2   -->   2 G_2            
     e( 23 - 24) =    -34.00383  eV     2   -->   2 G_2            
     e( 25 - 26) =    -33.93073  eV     2   -->   2 G_2            
     e( 27 - 28) =    -33.91542  eV     2   -->   2 G_2            
     e( 29 - 30) =    -33.88701  eV     2   -->   2 G_2            
     e( 31 - 32) =    -28.13595  eV     2   -->   2 G_2            
     e( 33 - 34) =    -28.13226  eV     2   -->   2 G_2            
     e( 35 - 36) =    -28.12756  eV     2   -->   2 G_2            
     e( 37 - 38) =    -28.12392  eV     2   -->   2 G_2            
     e( 39 - 40) =    -26.89663  eV     2   -->   2 G_2            
     e( 41 - 42) =    -26.89293  eV     2   -->   2 G_2            
     e( 43 - 43) =    -26.88753  eV     1   --> G_2            
     e( 44 - 44) =    -26.88740  eV     1   --> G_2            
     e( 45 - 46) =    -26.88563  eV     2   -->   2 G_2            
     e( 47 - 47) =    -26.88386  eV     1   --> G_2            
     e( 48 - 48) =    -26.88375  eV     1   --> G_2            
     e( 49 - 50) =    -26.88198  eV     2   -->   2 G_2            
     e( 51 - 52) =    -10.51881  eV     2   -->   2 G_2            
     e( 53 - 54) =     -9.99701  eV     2   -->   2 G_2            
     e( 55 - 56) =     -8.95637  eV     2   -->   2 G_2            
     e( 57 - 58) =     -6.28463  eV     2   -->   2 G_2            
     e( 59 - 60) =     -5.06526  eV     2   -->   2 G_2            
     e( 61 - 61) =     -0.88306  eV     1   --> G_2            
     e( 62 - 62) =     -0.88277  eV     1   --> G_2            
     e( 63 - 63) =     -0.64021  eV     1   --> G_2            
     e( 64 - 64) =     -0.63840  eV     1   --> G_2            
     e( 65 - 65) =     -0.20858  eV     1   --> G_2            
     e( 66 - 66) =     -0.20705  eV     1   --> G_2            
     e( 67 - 67) =      0.04255  eV     1   --> G_2            
     e( 68 - 68) =      0.04285  eV     1   --> G_2            
     e( 69 - 69) =      0.23111  eV     1   --> G_2            
     e( 70 - 70) =      0.23322  eV     1   --> G_2            
     e( 71 - 71) =      0.51082  eV     1   --> G_2            
     e( 72 - 72) =      0.51168  eV     1   --> G_2            
     e( 73 - 73) =      1.03662  eV     1   --> G_2            
     e( 74 - 74) =      1.03695  eV     1   --> G_2            
     e( 75 - 75) =      1.47772  eV     1   --> G_2            
     e( 76 - 76) =      1.47854  eV     1   --> G_2            
     e( 77 - 77) =      1.64773  eV     1   --> G_2            
[...]
     e( 55 - 56) =     -9.01075  eV     2   -->   2 G_2            
     e( 57 - 58) =     -6.26395  eV     2   -->   2 G_2            
     e( 59 - 60) =     -4.88353  eV     2   -->   2 G_2            
     e( 61 - 61) =     -0.51893  eV     1   --> G_2            
     e( 62 - 62) =     -0.51872  eV     1   --> G_2            
     e( 63 - 63) =     -0.12926  eV     1   --> G_2            
     e( 64 - 64) =     -0.12746  eV     1   --> G_2            
     e( 65 - 65) =      0.23690  eV     1   --> G_2            
     e( 66 - 66) =      0.23807  eV     1   --> G_2            
     e( 67 - 67) =      0.39443  eV     1   --> G_2            
     e( 68 - 68) =      0.39593  eV     1   --> G_2            
     e( 69 - 69) =      0.47281  eV     1   --> G_2            
     e( 70 - 70) =      0.47414  eV     1   --> G_2            
     e( 71 - 71) =      0.73159  eV     1   --> G_2            
     e( 72 - 72) =      0.73374  eV     1   --> G_2            
     e( 73 - 73) =      0.98764  eV     1   --> G_2            
     e( 74 - 74) =      0.98848  eV     1   --> G_2            
     e( 75 - 75) =      1.21455  eV     1   --> G_2            
     e( 76 - 76) =      1.21520  eV     1   --> G_2            
     e( 77 - 77) =      1.49884  eV     1   --> G_2            
     e( 78 - 78) =      1.49965  eV     1   --> G_2            
     e( 79 - 79) =      2.21216  eV     1   --> G_2            
     e( 80 - 80) =      2.21291  eV     1   --> G_2            
     e( 81 - 81) =      2.74876  eV     1   --> G_2            
     e( 82 - 82) =      2.74920  eV     1   --> G_2            
     e( 83 - 83) =      2.99951  eV     1   --> G_2            
     e( 84 - 84) =      3.00028  eV     1   --> G_2            
     e( 85 - 85) =      3.38942  eV     1   --> G_2            
     e( 86 - 86) =      3.39002  eV     1   --> G_2            
     e( 87 - 87) =      4.08515  eV     1   --> G_2            
     e( 88 - 88) =      4.08538  eV     1   --> G_2            
     e( 89 - 89) =      4.19216  eV     1   --> G_2            
     e( 90 - 90) =      4.19238  eV     1   --> G_2            
     e( 91 - 92) =      6.22558  eV     2   -->   2 G_2            
     e( 93 - 94) =      6.40519  eV     2   -->   2 G_2            
     e( 95 - 96) =      6.99400  eV     2   -->   2 G_2            
     e( 97 - 98) =      7.51718  eV     2   -->   2 G_2            
     e( 99 - 99) =      7.61049  eV     1   --> G_2            
     e(100 -100) =      7.61060  eV     1   --> G_2            

 **************************************************************************

 **************************************************************************

                    xk=(   0.01429,   0.02507,   0.00000  )

     Band symmetry, C_1 (1)     double point group:

     e(  1 -  2) =    -35.50395  eV     2   -->   2 G_2            
     e(  3 -  4) =    -35.50032  eV     2   -->   2 G_2            
     e(  5 -  6) =    -35.47531  eV     2   -->   2 G_2            
     e(  7 -  8) =    -35.47172  eV     2   -->   2 G_2            
     e(  9 - 10) =    -35.39317  eV     2   -->   2 G_2            
     e( 11 - 12) =    -35.35962  eV     2   -->   2 G_2            
     e( 13 - 14) =    -34.04466  eV     2   -->   2 G_2            
     e( 15 - 16) =    -34.04101  eV     2   -->   2 G_2            
     e( 17 - 18) =    -34.02041  eV     2   -->   2 G_2            
     e( 19 - 20) =    -34.01682  eV     2   -->   2 G_2            
     e( 21 - 22) =    -34.00744  eV     2   -->   2 G_2            
     e( 23 - 24) =    -34.00386  eV     2   -->   2 G_2            
     e( 25 - 26) =    -33.93077  eV     2   -->   2 G_2            
     e( 27 - 28) =    -33.91541  eV     2   -->   2 G_2            
     e( 29 - 30) =    -33.88709  eV     2   -->   2 G_2            
     e( 31 - 32) =    -28.13603  eV     2   -->   2 G_2            
     e( 33 - 34) =    -28.13233  eV     2   -->   2 G_2            
     e( 35 - 36) =    -28.12751  eV     2   -->   2 G_2            
     e( 37 - 38) =    -28.12387  eV     2   -->   2 G_2            
     e( 39 - 40) =    -26.89682  eV     2   -->   2 G_2            
     e( 41 - 42) =    -26.89311  eV     2   -->   2 G_2            
     e( 43 - 44) =    -26.88738  eV     2   -->   2 G_2            
     e( 45 - 46) =    -26.88566  eV     2   -->   2 G_2            
     e( 47 - 48) =    -26.88372  eV     2   -->   2 G_2            
     e( 49 - 50) =    -26.88201  eV     2   -->   2 G_2            
     e( 51 - 52) =    -10.62307  eV     2   -->   2 G_2            
     e( 53 - 54) =    -10.09206  eV     2   -->   2 G_2            
     e( 55 - 56) =     -9.01308  eV     2   -->   2 G_2            
     e( 57 - 58) =     -6.26344  eV     2   -->   2 G_2            
     e( 59 - 60) =     -4.87654  eV     2   -->   2 G_2            
     e( 61 - 61) =     -0.51242  eV     1   --> G_2            
     e( 62 - 62) =     -0.51227  eV     1   --> G_2            
     e( 63 - 63) =     -0.08737  eV     1   --> G_2            
     e( 64 - 64) =     -0.08587  eV     1   --> G_2            
     e( 65 - 65) =      0.24129  eV     1   --> G_2            
     e( 66 - 66) =      0.24239  eV     1   --> G_2            
     e( 67 - 67) =      0.44312  eV     1   --> G_2            
     e( 68 - 68) =      0.44483  eV     1   --> G_2            
     e( 69 - 69) =      0.49089  eV     1   --> G_2            
     e( 70 - 70) =      0.49264  eV     1   --> G_2            
     e( 71 - 71) =      0.72699  eV     1   --> G_2            
     e( 72 - 72) =      0.72908  eV     1   --> G_2            
     e( 73 - 73) =      0.96507  eV     1   --> G_2            
     e( 74 - 74) =      0.96573  eV     1   --> G_2            
     e( 75 - 75) =      1.23634  eV     1   --> G_2            
     e( 76 - 76) =      1.23683  eV     1   --> G_2            
     e( 77 - 77) =      1.46679  eV     1   --> G_2            
     e( 78 - 78) =      1.46746  eV     1   --> G_2            
     e( 79 - 79) =      2.17379  eV     1   --> G_2            
     e( 80 - 80) =      2.17438  eV     1   --> G_2            
     e( 81 - 81) =      2.74490  eV     1   --> G_2            
     e( 82 - 82) =      2.74522  eV     1   --> G_2            
     e( 83 - 83) =      3.02276  eV     1   --> G_2            
     e( 84 - 84) =      3.02345  eV     1   --> G_2            
     e( 85 - 85) =      3.35827  eV     1   --> G_2            
     e( 86 - 86) =      3.35879  eV     1   --> G_2            
     e( 87 - 87) =      4.06778  eV     1   --> G_2            
     e( 88 - 88) =      4.06793  eV     1   --> G_2            
     e( 89 - 89) =      4.18951  eV     1   --> G_2            
     e( 90 - 90) =      4.18970  eV     1   --> G_2            
     e( 91 - 92) =      6.21817  eV     2   -->   2 G_2            
     e( 93 - 94) =      6.40352  eV     2   -->   2 G_2            
     e( 95 - 96) =      6.99274  eV     2   -->   2 G_2            
     e( 97 - 98) =      7.53154  eV     2   -->   2 G_2            
     e( 99 -100) =      7.61090  eV     2   -->   2 G_2            

 **************************************************************************

 **************************************************************************

                    xk=(   0.00952,   0.01672,   0.00000  )

     Band symmetry, C_1 (1)     double point group:

     e(  1 -  2) =    -35.50395  eV     2   -->   2 G_2            
     e(  3 -  4) =    -35.50032  eV     2   -->   2 G_2            
     e(  5 -  6) =    -35.47531  eV     2   -->   2 G_2            
     e(  7 -  8) =    -35.47172  eV     2   -->   2 G_2            
     e(  9 - 10) =    -35.39317  eV     2   -->   2 G_2            
     e( 11 - 12) =    -35.35962  eV     2   -->   2 G_2            
     e( 13 - 14) =    -34.04466  eV     2   -->   2 G_2            
     e( 15 - 16) =    -34.04102  eV     2   -->   2 G_2            
     e( 17 - 18) =    -34.02041  eV     2   -->   2 G_2            
     e( 19 - 20) =    -34.01682  eV     2   -->   2 G_2            
     e( 21 - 22) =    -34.00744  eV     2   -->   2 G_2            
     e( 23 - 24) =    -34.00386  eV     2   -->   2 G_2            
     e( 25 - 26) =    -33.93077  eV     2   -->   2 G_2            
     e( 27 - 28) =    -33.91541  eV     2   -->   2 G_2            
     e( 29 - 30) =    -33.88709  eV     2   -->   2 G_2            
     e( 31 - 32) =    -28.13603  eV     2   -->   2 G_2            
     e( 33 - 34) =    -28.13233  eV     2   -->   2 G_2            
     e( 35 - 36) =    -28.12751  eV     2   -->   2 G_2            
     e( 37 - 38) =    -28.12387  eV     2   -->   2 G_2            
     e( 39 - 40) =    -26.89682  eV     2   -->   2 G_2            
     e( 41 - 42) =    -26.89311  eV     2   -->   2 G_2            
     e( 43 - 44) =    -26.88737  eV     2   -->   2 G_2            
     e( 45 - 46) =    -26.88565  eV     2   -->   2 G_2            
     e( 47 - 48) =    -26.88372  eV     2   -->   2 G_2            
     e( 49 - 50) =    -26.88201  eV     2   -->   2 G_2            
     e( 51 - 52) =    -10.62597  eV     2   -->   2 G_2            
     e( 53 - 54) =    -10.09477  eV     2   -->   2 G_2            
     e( 55 - 56) =     -9.01478  eV     2   -->   2 G_2            
     e( 57 - 58) =     -6.26308  eV     2   -->   2 G_2            
     e( 59 - 60) =     -4.87154  eV     2   -->   2 G_2            
     e( 61 - 62) =     -0.50786  eV     2   -->   2 G_2            
     e( 63 - 63) =     -0.05444  eV     1   --> G_2            
     e( 64 - 64) =     -0.05334  eV     1   --> G_2            
     e( 65 - 65) =      0.24028  eV     1   --> G_2            
     e( 66 - 66) =      0.24114  eV     1   --> G_2            
     e( 67 - 67) =      0.47835  eV     1   --> G_2            
     e( 68 - 68) =      0.47965  eV     1   --> G_2            
     e( 69 - 69) =      0.51814  eV     1   --> G_2            
     e( 70 - 70) =      0.51982  eV     1   --> G_2            
     e( 71 - 71) =      0.71311  eV     1   --> G_2            
     e( 72 - 72) =      0.71497  eV     1   --> G_2            
     e( 73 - 73) =      0.94632  eV     1   --> G_2            
     e( 74 - 74) =      0.94678  eV     1   --> G_2            
     e( 75 - 75) =      1.25604  eV     1   --> G_2            
     e( 76 - 76) =      1.25637  eV     1   --> G_2            
     e( 77 - 77) =      1.44335  eV     1   --> G_2            
     e( 78 - 78) =      1.44384  eV     1   --> G_2            
     e( 79 - 79) =      2.14167  eV     1   --> G_2            
     e( 80 - 80) =      2.14207  eV     1   --> G_2            
     e( 81 - 81) =      2.74183  eV     1   --> G_2            
     e( 82 - 82) =      2.74204  eV     1   --> G_2            
     e( 83 - 83) =      3.04846  eV     1   --> G_2            
     e( 84 - 84) =      3.04902  eV     1   --> G_2            
     e( 85 - 85) =      3.32914  eV     1   --> G_2            
     e( 86 - 86) =      3.32955  eV     1   --> G_2            
     e( 87 - 88) =      4.05331  eV     2   -->   2 G_2            
     e( 89 - 89) =      4.18951  eV     1   --> G_2            
     e( 90 - 90) =      4.18965  eV     1   --> G_2            
     e( 91 - 92) =      6.21282  eV     2   -->   2 G_2            
     e( 93 - 94) =      6.40232  eV     2   -->   2 G_2            
     e( 95 - 96) =      6.99165  eV     2   -->   2 G_2            
     e( 97 - 98) =      7.54040  eV     2   -->   2 G_2            
     e( 99 -100) =      7.61143  eV     2   -->   2 G_2            

 **************************************************************************

 **************************************************************************

                    xk=(   0.00476,   0.00836,   0.00000  )

     Band symmetry, C_1 (1)     double point group:

     e(  1 -  2) =    -35.50395  eV     2   -->   2 G_2            
     e(  3 -  4) =    -35.50032  eV     2   -->   2 G_2            
     e(  5 -  6) =    -35.47531  eV     2   -->   2 G_2            
     e(  7 -  8) =    -35.47172  eV     2   -->   2 G_2            
     e(  9 - 10) =    -35.39317  eV     2   -->   2 G_2            
     e( 11 - 12) =    -35.35962  eV     2   -->   2 G_2            
     e( 13 - 14) =    -34.04466  eV     2   -->   2 G_2            
     e( 15 - 16) =    -34.04102  eV     2   -->   2 G_2            
     e( 17 - 18) =    -34.02041  eV     2   -->   2 G_2            
     e( 19 - 20) =    -34.01682  eV     2   -->   2 G_2            
     e( 21 - 22) =    -34.00744  eV     2   -->   2 G_2            
     e( 23 - 24) =    -34.00386  eV     2   -->   2 G_2            
     e( 25 - 26) =    -33.93077  eV     2   -->   2 G_2            
     e( 27 - 28) =    -33.91541  eV     2   -->   2 G_2            
     e( 29 - 30) =    -33.88710  eV     2   -->   2 G_2            
     e( 31 - 32) =    -28.13603  eV     2   -->   2 G_2            
     e( 33 - 34) =    -28.13233  eV     2   -->   2 G_2            
     e( 35 - 36) =    -28.12750  eV     2   -->   2 G_2            
     e( 37 - 38) =    -28.12386  eV     2   -->   2 G_2            
     e( 39 - 40) =    -26.89683  eV     2   -->   2 G_2            
     e( 41 - 42) =    -26.89312  eV     2   -->   2 G_2            
     e( 43 - 44) =    -26.88737  eV     2   -->   2 G_2            
     e( 45 - 46) =    -26.88565  eV     2   -->   2 G_2            
     e( 47 - 48) =    -26.88371  eV     2   -->   2 G_2            
     e( 49 - 50) =    -26.88200  eV     2   -->   2 G_2            
     e( 51 - 52) =    -10.62774  eV     2   -->   2 G_2            
     e( 53 - 54) =    -10.09640  eV     2   -->   2 G_2            
     e( 55 - 56) =     -9.01577  eV     2   -->   2 G_2            
     e( 57 - 58) =     -6.26288  eV     2   -->   2 G_2            
     e( 59 - 60) =     -4.86857  eV     2   -->   2 G_2            
     e( 61 - 62) =     -0.50516  eV     2   -->   2 G_2            
     e( 63 - 63) =     -0.03295  eV     1   --> G_2            
     e( 64 - 64) =     -0.03235  eV     1   --> G_2            
     e( 65 - 65) =      0.23789  eV     1   --> G_2            
     e( 66 - 66) =      0.23837  eV     1   --> G_2            
     e( 67 - 67) =      0.49234  eV     1   --> G_2            
     e( 68 - 68) =      0.49275  eV     1   --> G_2            
     e( 69 - 69) =      0.55442  eV     1   --> G_2            
     e( 70 - 70) =      0.55542  eV     1   --> G_2            
     e( 71 - 71) =      0.69404  eV     1   --> G_2            
     e( 72 - 72) =      0.69533  eV     1   --> G_2            
     e( 73 - 73) =      0.93426  eV     1   --> G_2            
     e( 74 - 74) =      0.93450  eV     1   --> G_2            
     e( 75 - 75) =      1.26891  eV     1   --> G_2            
     e( 76 - 76) =      1.26908  eV     1   --> G_2            
     e( 77 - 77) =      1.43002  eV     1   --> G_2            
     e( 78 - 78) =      1.43027  eV     1   --> G_2            
     e( 79 - 79) =      2.12008  eV     1   --> G_2            
     e( 80 - 80) =      2.12029  eV     1   --> G_2            
     e( 81 - 81) =      2.73991  eV     1   --> G_2            
     e( 82 - 82) =      2.74002  eV     1   --> G_2            
     e( 83 - 83) =      3.06981  eV     1   --> G_2            
     e( 84 - 84) =      3.07014  eV     1   --> G_2            
     e( 85 - 85) =      3.30670  eV     1   --> G_2            
     e( 86 - 86) =      3.30694  eV     1   --> G_2            
     e( 87 - 88) =      4.04398  eV     2   -->   2 G_2            
     e( 89 - 90) =      4.19014  eV     2   -->   2 G_2            
     e( 91 - 92) =      6.20960  eV     2   -->   2 G_2            
     e( 93 - 94) =      6.40159  eV     2   -->   2 G_2            
     e( 95 - 96) =      6.99092  eV     2   -->   2 G_2            
     e( 97 - 98) =      7.54496  eV     2   -->   2 G_2            
     e( 99 -100) =      7.61196  eV     2   -->   2 G_2            

 **************************************************************************

 **************************************************************************

                    xk=(   0.00000,   0.00000,   0.00000  )

     Band symmetry, C_1 (1)     double point group:

     e(  1 -  2) =    -35.50395  eV     2   -->   2 G_2            
     e(  3 -  4) =    -35.50032  eV     2   -->   2 G_2            
     e(  5 -  6) =    -35.47530  eV     2   -->   2 G_2            
     e(  7 -  8) =    -35.47172  eV     2   -->   2 G_2            
     e(  9 - 10) =    -35.39317  eV     2   -->   2 G_2            
     e( 11 - 12) =    -35.35962  eV     2   -->   2 G_2            
     e( 13 - 14) =    -34.04466  eV     2   -->   2 G_2            
     e( 15 - 16) =    -34.04102  eV     2   -->   2 G_2            
     e( 17 - 18) =    -34.02041  eV     2   -->   2 G_2            
     e( 19 - 20) =    -34.01682  eV     2   -->   2 G_2            
     e( 21 - 22) =    -34.00744  eV     2   -->   2 G_2            
     e( 23 - 24) =    -34.00385  eV     2   -->   2 G_2            
     e( 25 - 26) =    -33.93077  eV     2   -->   2 G_2            
     e( 27 - 28) =    -33.91541  eV     2   -->   2 G_2            
     e( 29 - 30) =    -33.88710  eV     2   -->   2 G_2            
     e( 31 - 32) =    -28.13603  eV     2   -->   2 G_2            
     e( 33 - 34) =    -28.13233  eV     2   -->   2 G_2            
     e( 35 - 36) =    -28.12750  eV     2   -->   2 G_2            
     e( 37 - 38) =    -28.12386  eV     2   -->   2 G_2            
     e( 39 - 40) =    -26.89683  eV     2   -->   2 G_2            
     e( 41 - 42) =    -26.89312  eV     2   -->   2 G_2            
     e( 43 - 44) =    -26.88736  eV     2   -->   2 G_2            
     e( 45 - 46) =    -26.88564  eV     2   -->   2 G_2            
     e( 47 - 48) =    -26.88371  eV     2   -->   2 G_2            
     e( 49 - 50) =    -26.88200  eV     2   -->   2 G_2            
     e( 51 - 52) =    -10.62834  eV     2   -->   2 G_2            
     e( 53 - 54) =    -10.09695  eV     2   -->   2 G_2            
     e( 55 - 56) =     -9.01609  eV     2   -->   2 G_2            
     e( 57 - 58) =     -6.26281  eV     2   -->   2 G_2            
     e( 59 - 60) =     -4.86758  eV     2   -->   2 G_2            
     e( 61 - 62) =     -0.50426  eV     2   -->   2 G_2            
     e( 63 - 64) =     -0.02523  eV     2   -->   2 G_2            
     e( 65 - 66) =      0.23690  eV     2   -->   2 G_2            
     e( 67 - 68) =      0.49604  eV     2   -->   2 G_2            
     e( 69 - 70) =      0.57280  eV     2   -->   2 G_2            
     e( 71 - 72) =      0.68351  eV     2   -->   2 G_2            
     e( 73 - 74) =      0.93021  eV     2   -->   2 G_2            
     e( 75 - 76) =      1.27327  eV     2   -->   2 G_2            
     e( 77 - 78) =      1.42598  eV     2   -->   2 G_2            
     e( 79 - 80) =      2.11251  eV     2   -->   2 G_2            
     e( 81 - 82) =      2.73930  eV     2   -->   2 G_2            
     e( 83 - 84) =      3.07855  eV     2   -->   2 G_2            
     e( 85 - 86) =      3.29796  eV     2   -->   2 G_2            
     e( 87 - 88) =      4.04079  eV     2   -->   2 G_2            
     e( 89 - 90) =      4.19046  eV     2   -->   2 G_2            
     e( 91 - 92) =      6.20852  eV     2   -->   2 G_2            
     e( 93 - 94) =      6.40135  eV     2   -->   2 G_2            
     e( 95 - 96) =      6.99067  eV     2   -->   2 G_2            
     e( 97 - 98) =      7.54634  eV     2   -->   2 G_2            
     e( 99 -100) =      7.61219  eV     2   -->   2 G_2            

 **************************************************************************

     BANDS        :  19m43.59s CPU  18m44.01s WALL


   This run was terminated on:  22:34: 9  14Aug2025            

=------------------------------------------------------------------------------=
   JOB DONE.
=------------------------------------------------------------------------------=
