
     Program BANDS v.7.4.1 starts on 22Aug2025 at 14:45:54 

     This program is part of the open-source Quantum ESPRESSO suite
     for quantum simulation of materials; please cite
         "P. Giannozzi et al., J. Phys.:Condens. Matter 21 395502 (2009);
         "P. Giannozzi et al., J. Phys.:Condens. Matter 29 465901 (2017);
         "P. Giannozzi et al., J. Chem. Phys. 152 154105 (2020);
          URL http://www.quantum-espresso.org", 
     in publications or presentations arising from this work. More details at
     http://www.quantum-espresso.org/quote

     Parallel version (MPI & OpenMP), running on      48 processor cores
     Number of MPI processes:                24
     Threads/MPI process:                     2

     MPI processes distributed on     2 nodes
     R & G space division:  proc/nbgrp/npool/nimage =      24
     77141 MiB available memory on the printing compute node when the environment starts


     Reading xml data from directory:

     tmp/Sb2Te3-uatsx-c5-soc-0.0.save/
Error reading attribute index: expected integer, found *
Error reading attribute index: expected integer, found *

     IMPORTANT: XC functional enforced from input :
     Exchange-correlation= PBE
                           (   1   4   3   4   0   0   0)
     Any further DFT definition will be discarded
     Please, verify this is what you really want


     Parallelization info
     --------------------
     sticks:   dense  smooth     PW     G-vecs:    dense   smooth      PW
     Min         133      53     15                31371     7939    1183
     Max         134      54     16                31398     7956    1202
     Sum        3205    1285    361               753229   190727   28571

     Using Slab Decomposition

     Reading collected, re-writing distributed wavefunctions
     high-symmetry point:  0.0000 0.0000 0.0000   x coordinate   0.0000
     high-symmetry point:  0.5000 0.2886 0.0000   x coordinate   0.5773
     high-symmetry point:  0.3333 0.5771 0.0000   x coordinate   0.9105
     high-symmetry point:  0.0000 0.0000 0.0000   x coordinate   1.5770

     Plottable bands (eV) written to file ./bands/Sb2Te3-uatsx-c5-soc-0.0.bands.gnu
     Bands written to file ./bands/Sb2Te3-uatsx-c5-soc-0.0.bands

 **************************************************************************

                    xk=(   0.00000,   0.00000,   0.00000  )

     double point group C_1 (1)    
     there are  2 classes and  1 irreducible representations
     the character table:

       E     -E   
                  
G_2    1.00 -1.00

     the symmetry operations in each class and the name of the first element:

     E             1
                                                                 
     -E           -1
                                                                 

     Band symmetry, C_1 (1)     double point group:

     e(  1 -  2) =    -35.36695  eV     2   -->   2 G_2            
     e(  3 -  4) =    -35.36355  eV     2   -->   2 G_2            
     e(  5 -  6) =    -35.34208  eV     2   -->   2 G_2            
     e(  7 -  8) =    -35.33872  eV     2   -->   2 G_2            
     e(  9 - 10) =    -35.26173  eV     2   -->   2 G_2            
     e( 11 - 12) =    -35.22553  eV     2   -->   2 G_2            
     e( 13 - 14) =    -33.90699  eV     2   -->   2 G_2            
     e( 15 - 16) =    -33.90359  eV     2   -->   2 G_2            
     e( 17 - 18) =    -33.88592  eV     2   -->   2 G_2            
     e( 19 - 20) =    -33.88253  eV     2   -->   2 G_2            
     e( 21 - 22) =    -33.87461  eV     2   -->   2 G_2            
     e( 23 - 24) =    -33.87128  eV     2   -->   2 G_2            
     e( 25 - 26) =    -33.79918  eV     2   -->   2 G_2            
     e( 27 - 28) =    -33.78379  eV     2   -->   2 G_2            
     e( 29 - 30) =    -33.75226  eV     2   -->   2 G_2            
     e( 31 - 32) =    -27.98193  eV     2   -->   2 G_2            
     e( 33 - 34) =    -27.97980  eV     2   -->   2 G_2            
     e( 35 - 36) =    -27.97301  eV     2   -->   2 G_2            
     e( 37 - 38) =    -27.97092  eV     2   -->   2 G_2            
     e( 39 - 40) =    -26.74298  eV     2   -->   2 G_2            
     e( 41 - 42) =    -26.74084  eV     2   -->   2 G_2            
     e( 43 - 44) =    -26.73285  eV     2   -->   2 G_2            
     e( 45 - 46) =    -26.73167  eV     2   -->   2 G_2            
     e( 47 - 48) =    -26.73075  eV     2   -->   2 G_2            
     e( 49 - 50) =    -26.72958  eV     2   -->   2 G_2            
     e( 51 - 52) =    -10.57782  eV     2   -->   2 G_2            
     e( 53 - 54) =    -10.04057  eV     2   -->   2 G_2            
     e( 55 - 56) =     -8.94634  eV     2   -->   2 G_2            
     e( 57 - 58) =     -6.16466  eV     2   -->   2 G_2            
     e( 59 - 60) =     -4.70743  eV     2   -->   2 G_2            
     e( 61 - 62) =     -0.39280  eV     2   -->   2 G_2            
     e( 63 - 64) =      0.16129  eV     2   -->   2 G_2            
     e( 65 - 66) =      0.38804  eV     2   -->   2 G_2            
     e( 67 - 68) =      0.66641  eV     2   -->   2 G_2            
     e( 69 - 70) =      0.76502  eV     2   -->   2 G_2            
     e( 71 - 72) =      0.87831  eV     2   -->   2 G_2            
     e( 73 - 74) =      1.08040  eV     2   -->   2 G_2            
     e( 75 - 76) =      1.47719  eV     2   -->   2 G_2            
     e( 77 - 78) =      1.63104  eV     2   -->   2 G_2            
     e( 79 - 80) =      2.35205  eV     2   -->   2 G_2            
     e( 81 - 82) =      2.95263  eV     2   -->   2 G_2            
     e( 83 - 84) =      3.26255  eV     2   -->   2 G_2            
     e( 85 - 86) =      3.50889  eV     2   -->   2 G_2            
     e( 87 - 88) =      4.28322  eV     2   -->   2 G_2            
     e( 89 - 90) =      4.36244  eV     2   -->   2 G_2            
     e( 91 - 92) =      6.32273  eV     2   -->   2 G_2            
     e( 93 - 94) =      6.52279  eV     2   -->   2 G_2            
     e( 95 - 96) =      7.07754  eV     2   -->   2 G_2            
     e( 97 - 98) =      7.75621  eV     2   -->   2 G_2            
     e( 99 -100) =      7.86900  eV     2   -->   2 G_2            
     e(101 -102) =      7.90198  eV     2   -->   2 G_2            
     e(103 -104) =      8.52277  eV     2   -->   2 G_2            
     e(105 -106) =      8.82103  eV     2   -->   2 G_2            
     e(107 -108) =      8.96054  eV     2   -->   2 G_2            
     e(109 -110) =      9.19624  eV     2   -->   2 G_2            
     e(111 -112) =      9.20214  eV     2   -->   2 G_2            
     e(113 -114) =      9.83458  eV     2   -->   2 G_2            
     e(115 -116) =      9.85706  eV     2   -->   2 G_2            
     e(117 -118) =     10.16924  eV     2   -->   2 G_2            
     e(119 -120) =     10.27473  eV     2   -->   2 G_2            
     e(121 -122) =     10.66368  eV     2   -->   2 G_2            
     e(123 -124) =     11.33536  eV     2   -->   2 G_2            
     e(125 -126) =     11.40280  eV     2   -->   2 G_2            
     e(127 -128) =     11.69590  eV     2   -->   2 G_2            
     e(129 -130) =     11.77232  eV     2   -->   2 G_2            
     e(131 -132) =     11.84708  eV     2   -->   2 G_2            
     e(133 -134) =     12.91442  eV     2   -->   2 G_2            
     e(135 -136) =     12.99350  eV     2   -->   2 G_2            
     e(137 -138) =     14.19196  eV     2   -->   2 G_2            
     e(139 -140) =     14.22309  eV     2   -->   2 G_2            
     e(141 -142) =     14.38533  eV     2   -->   2 G_2            
     e(143 -144) =     14.45992  eV     2   -->   2 G_2            
     e(145 -146) =     14.54100  eV     2   -->   2 G_2            
     e(147 -148) =     15.27620  eV     2   -->   2 G_2            
     e(149 -150) =     16.09317  eV     2   -->   2 G_2            
     e(151 -152) =     16.14945  eV     2   -->   2 G_2            
     e(153 -154) =     16.19673  eV     2   -->   2 G_2            
     e(155 -156) =     16.41216  eV     2   -->   2 G_2            
     e(157 -158) =     16.47807  eV     2   -->   2 G_2            
     e(159 -160) =     16.51349  eV     2   -->   2 G_2            
     e(161 -162) =     16.88775  eV     2   -->   2 G_2            
     e(163 -164) =     17.36513  eV     2   -->   2 G_2            
     e(165 -166) =     17.49046  eV     2   -->   2 G_2            
     e(167 -168) =     17.52064  eV     2   -->   2 G_2            
     e(169 -170) =     17.55111  eV     2   -->   2 G_2            
     e(171 -172) =     17.65838  eV     2   -->   2 G_2            
     e(173 -174) =     17.68446  eV     2   -->   2 G_2            
     e(175 -176) =     17.88536  eV     2   -->   2 G_2            
     e(177 -178) =     17.89316  eV     2   -->   2 G_2            
     e(179 -180) =     17.90674  eV     2   -->   2 G_2            
     e(181 -182) =     17.93371  eV     2   -->   2 G_2            
     e(183 -184) =     17.94424  eV     2   -->   2 G_2            
     e(185 -186) =     18.14644  eV     2   -->   2 G_2            
     e(187 -188) =     18.41005  eV     2   -->   2 G_2            
     e(189 -190) =     19.36363  eV     2   -->   2 G_2            
     e(191 -192) =     19.43836  eV     2   -->   2 G_2            
     e(193 -194) =     19.47705  eV     2   -->   2 G_2            
     e(195 -196) =     19.50546  eV     2   -->   2 G_2            
     e(197 -198) =     19.50970  eV     2   -->   2 G_2            
     e(199 -200) =     19.71506  eV     2   -->   2 G_2            

 **************************************************************************

 **************************************************************************

                    xk=(   0.00714,   0.00412,   0.00000  )

     Band symmetry, C_1 (1)     double point group:

     e(  1 -  2) =    -35.36695  eV     2   -->   2 G_2            
     e(  3 -  4) =    -35.36355  eV     2   -->   2 G_2            
     e(  5 -  6) =    -35.34208  eV     2   -->   2 G_2            
     e(  7 -  8) =    -35.33872  eV     2   -->   2 G_2            
     e(  9 - 10) =    -35.26173  eV     2   -->   2 G_2            
     e( 11 - 12) =    -35.22553  eV     2   -->   2 G_2            
     e( 13 - 14) =    -33.90699  eV     2   -->   2 G_2            
     e( 15 - 16) =    -33.90359  eV     2   -->   2 G_2            
     e( 17 - 18) =    -33.88592  eV     2   -->   2 G_2            
     e( 19 - 20) =    -33.88253  eV     2   -->   2 G_2            
     e( 21 - 22) =    -33.87461  eV     2   -->   2 G_2            
     e( 23 - 24) =    -33.87128  eV     2   -->   2 G_2            
     e( 25 - 26) =    -33.79918  eV     2   -->   2 G_2            
     e( 27 - 28) =    -33.78379  eV     2   -->   2 G_2            
     e( 29 - 30) =    -33.75226  eV     2   -->   2 G_2            
     e( 31 - 32) =    -27.98193  eV     2   -->   2 G_2            
     e( 33 - 34) =    -27.97980  eV     2   -->   2 G_2            
     e( 35 - 36) =    -27.97302  eV     2   -->   2 G_2            
     e( 37 - 38) =    -27.97093  eV     2   -->   2 G_2            
     e( 39 - 40) =    -26.74298  eV     2   -->   2 G_2            
     e( 41 - 42) =    -26.74084  eV     2   -->   2 G_2            
     e( 43 - 44) =    -26.73285  eV     2   -->   2 G_2            
     e( 45 - 46) =    -26.73168  eV     2   -->   2 G_2            
     e( 47 - 48) =    -26.73075  eV     2   -->   2 G_2            
     e( 49 - 50) =    -26.72958  eV     2   -->   2 G_2            
     e( 51 - 52) =    -10.57737  eV     2   -->   2 G_2            
     e( 53 - 54) =    -10.04015  eV     2   -->   2 G_2            
     e( 55 - 56) =     -8.94608  eV     2   -->   2 G_2            
     e( 57 - 58) =     -6.16468  eV     2   -->   2 G_2            
     e( 59 - 60) =     -4.70816  eV     2   -->   2 G_2            
     e( 61 - 62) =     -0.39340  eV     2   -->   2 G_2            
     e( 63 - 63) =      0.15507  eV     1   --> G_2            
     e( 64 - 64) =      0.15565  eV     1   --> G_2            
     e( 65 - 65) =      0.38838  eV     1   --> G_2            
     e( 66 - 66) =      0.38937  eV     1   --> G_2            
     e( 67 - 67) =      0.66355  eV     1   --> G_2            
     e( 68 - 68) =      0.66467  eV     1   --> G_2            
     e( 69 - 69) =      0.74683  eV     1   --> G_2            
     e( 70 - 70) =      0.75369  eV     1   --> G_2            
     e( 71 - 71) =      0.88266  eV     1   --> G_2            
     e( 72 - 72) =      0.89060  eV     1   --> G_2            
     e( 73 - 73) =      1.08359  eV     1   --> G_2            
     e( 74 - 74) =      1.08525  eV     1   --> G_2            
     e( 75 - 75) =      1.47250  eV     1   --> G_2            
     e( 76 - 76) =      1.47363  eV     1   --> G_2            
     e( 77 - 77) =      1.63480  eV     1   --> G_2            
     e( 78 - 78) =      1.63577  eV     1   --> G_2            
     e( 79 - 79) =      2.35719  eV     1   --> G_2            
     e( 80 - 80) =      2.35801  eV     1   --> G_2            
     e( 81 - 81) =      2.95314  eV     1   --> G_2            
     e( 82 - 82) =      2.95389  eV     1   --> G_2            
     e( 83 - 83) =      3.25547  eV     1   --> G_2            
     e( 84 - 84) =      3.25748  eV     1   --> G_2            
     e( 85 - 85) =      3.51388  eV     1   --> G_2            
     e( 86 - 86) =      3.51591  eV     1   --> G_2            
     e( 87 - 87) =      4.28591  eV     1   --> G_2            
     e( 88 - 88) =      4.28633  eV     1   --> G_2            
     e( 89 - 89) =      4.36160  eV     1   --> G_2            
     e( 90 - 90) =      4.36211  eV     1   --> G_2            
     e( 91 - 92) =      6.32357  eV     2   -->   2 G_2            
     e( 93 - 94) =      6.52301  eV     2   -->   2 G_2            
     e( 95 - 96) =      7.07781  eV     2   -->   2 G_2            
     e( 97 - 98) =      7.75622  eV     2   -->   2 G_2            
     e( 99 - 99) =      7.86686  eV     1   --> G_2            
     e(100 -100) =      7.86704  eV     1   --> G_2            
     e(101 -101) =      7.90005  eV     1   --> G_2            
     e(102 -102) =      7.90023  eV     1   --> G_2            
     e(103 -104) =      8.52658  eV     2   -->   2 G_2            
     e(105 -105) =      8.82033  eV     1   --> G_2            
     e(106 -106) =      8.82051  eV     1   --> G_2            
     e(107 -107) =      8.95836  eV     1   --> G_2            
     e(108 -108) =      8.95861  eV     1   --> G_2            
     e(109 -109) =      9.19535  eV     1   --> G_2            
     e(110 -110) =      9.19560  eV     1   --> G_2            
     e(111 -111) =      9.20131  eV     1   --> G_2            
     e(112 -112) =      9.20149  eV     1   --> G_2            
     e(113 -113) =      9.83788  eV     1   --> G_2            
     e(114 -114) =      9.83824  eV     1   --> G_2            
     e(115 -115) =      9.86035  eV     1   --> G_2            
     e(116 -116) =      9.86071  eV     1   --> G_2            
     e(117 -118) =     10.16885  eV     2   -->   2 G_2            
     e(119 -120) =     10.27808  eV     2   -->   2 G_2            
     e(121 -122) =     10.66693  eV     2   -->   2 G_2            
     e(123 -123) =     11.33187  eV     1   --> G_2            
     e(124 -124) =     11.33309  eV     1   --> G_2            
     e(125 -125) =     11.39702  eV     1   --> G_2            
     e(126 -126) =     11.39895  eV     1   --> G_2            
     e(127 -127) =     11.67237  eV     1   --> G_2            
     e(128 -128) =     11.67312  eV     1   --> G_2            
     e(129 -129) =     11.78978  eV     1   --> G_2            
     e(130 -130) =     11.79140  eV     1   --> G_2            
     e(131 -131) =     11.86197  eV     1   --> G_2            
     e(132 -132) =     11.86365  eV     1   --> G_2            
     e(133 -134) =     12.91439  eV     2   -->   2 G_2            
     e(135 -136) =     12.99499  eV     2   -->   2 G_2            
     e(137 -137) =     14.17885  eV     1   --> G_2            
     e(138 -138) =     14.18090  eV     1   --> G_2            
     e(139 -139) =     14.20371  eV     1   --> G_2            
     e(140 -140) =     14.20702  eV     1   --> G_2            
     e(141 -141) =     14.39615  eV     1   --> G_2            
     e(142 -142) =     14.39927  eV     1   --> G_2            
     e(143 -143) =     14.46539  eV     1   --> G_2            
     e(144 -144) =     14.46723  eV     1   --> G_2            
     e(145 -146) =     14.54997  eV     2   -->   2 G_2            
     e(147 -148) =     15.28080  eV     2   -->   2 G_2            
     e(149 -149) =     16.08087  eV     1   --> G_2            
     e(150 -150) =     16.08169  eV     1   --> G_2            
     e(151 -151) =     16.13053  eV     1   --> G_2            
     e(152 -152) =     16.13204  eV     1   --> G_2            
     e(153 -153) =     16.18936  eV     1   --> G_2            
     e(154 -154) =     16.18964  eV     1   --> G_2            
     e(155 -155) =     16.42646  eV     1   --> G_2            
     e(156 -156) =     16.42825  eV     1   --> G_2            
     e(157 -157) =     16.48723  eV     1   --> G_2            
     e(158 -158) =     16.48847  eV     1   --> G_2            
     e(159 -159) =     16.51681  eV     1   --> G_2            
     e(160 -160) =     16.51692  eV     1   --> G_2            
     e(161 -162) =     16.89599  eV     2   -->   2 G_2            
     e(163 -163) =     17.35642  eV     1   --> G_2            
     e(164 -164) =     17.35657  eV     1   --> G_2            
     e(165 -166) =     17.42295  eV     2   -->   2 G_2            
     e(167 -167) =     17.48107  eV     1   --> G_2            
     e(168 -168) =     17.48146  eV     1   --> G_2            
     e(169 -169) =     17.60304  eV     1   --> G_2            
     e(170 -170) =     17.60321  eV     1   --> G_2            
     e(171 -171) =     17.68383  eV     1   --> G_2            
     e(172 -172) =     17.68508  eV     1   --> G_2            
     e(173 -173) =     17.69762  eV     1   --> G_2            
     e(174 -174) =     17.69856  eV     1   --> G_2            
     e(175 -176) =     17.78340  eV     2   -->   2 G_2            
     e(177 -178) =     17.84124  eV     2   -->   2 G_2            
     e(179 -180) =     17.92307  eV     2   -->   2 G_2            
     e(181 -181) =     17.98710  eV     1   --> G_2            
     e(182 -182) =     17.98724  eV     1   --> G_2            
     e(183 -183) =     18.03215  eV     1   --> G_2            
     e(184 -184) =     18.03227  eV     1   --> G_2            
     e(185 -186) =     18.16541  eV     2   -->   2 G_2            
     e(187 -188) =     18.42651  eV     2   -->   2 G_2            
     e(189 -189) =     19.32823  eV     1   --> G_2            
     e(190 -190) =     19.32859  eV     1   --> G_2            
     e(191 -191) =     19.38379  eV     1   --> G_2            
     e(192 -192) =     19.38421  eV     1   --> G_2            
     e(193 -193) =     19.43219  eV     1   --> G_2            
     e(194 -194) =     19.43322  eV     1   --> G_2            
     e(195 -195) =     19.50709  eV     1   --> G_2            
     e(196 -196) =     19.50740  eV     1   --> G_2            
     e(197 -197) =     19.57670  eV     1   --> G_2            
     e(198 -198) =     19.57709  eV     1   --> G_2            
     e(199 -199) =     19.69796  eV     1   --> G_2            
     e(200 -200) =     19.69845  eV     1   --> G_2            

 **************************************************************************

 **************************************************************************

                    xk=(   0.01429,   0.00824,   0.00000  )

     Band symmetry, C_1 (1)     double point group:

     e(  1 -  2) =    -35.36695  eV     2   -->   2 G_2            
     e(  3 -  4) =    -35.36355  eV     2   -->   2 G_2            
     e(  5 -  6) =    -35.34208  eV     2   -->   2 G_2            
     e(  7 -  8) =    -35.33873  eV     2   -->   2 G_2            
     e(  9 - 10) =    -35.26173  eV     2   -->   2 G_2            
     e( 11 - 12) =    -35.22553  eV     2   -->   2 G_2            
     e( 13 - 14) =    -33.90699  eV     2   -->   2 G_2            
     e( 15 - 16) =    -33.90358  eV     2   -->   2 G_2            
     e( 17 - 18) =    -33.88592  eV     2   -->   2 G_2            
     e( 19 - 20) =    -33.88253  eV     2   -->   2 G_2            
     e( 21 - 22) =    -33.87461  eV     2   -->   2 G_2            
     e( 23 - 24) =    -33.87128  eV     2   -->   2 G_2            
     e( 25 - 26) =    -33.79918  eV     2   -->   2 G_2            
     e( 27 - 28) =    -33.78379  eV     2   -->   2 G_2            
     e( 29 - 30) =    -33.75226  eV     2   -->   2 G_2            
     e( 31 - 32) =    -27.98193  eV     2   -->   2 G_2            
     e( 33 - 34) =    -27.97980  eV     2   -->   2 G_2            
     e( 35 - 36) =    -27.97302  eV     2   -->   2 G_2            
     e( 37 - 38) =    -27.97093  eV     2   -->   2 G_2            
     e( 39 - 40) =    -26.74297  eV     2   -->   2 G_2            
     e( 41 - 42) =    -26.74084  eV     2   -->   2 G_2            
     e( 43 - 44) =    -26.73285  eV     2   -->   2 G_2            
     e( 45 - 46) =    -26.73168  eV     2   -->   2 G_2            
     e( 47 - 48) =    -26.73075  eV     2   -->   2 G_2            
     e( 49 - 50) =    -26.72959  eV     2   -->   2 G_2            
     e( 51 - 52) =    -10.57602  eV     2   -->   2 G_2            
     e( 53 - 54) =    -10.03890  eV     2   -->   2 G_2            
     e( 55 - 56) =     -8.94528  eV     2   -->   2 G_2            
     e( 57 - 58) =     -6.16475  eV     2   -->   2 G_2            
     e( 59 - 60) =     -4.71033  eV     2   -->   2 G_2            
     e( 61 - 61) =     -0.39518  eV     1   --> G_2            
     e( 62 - 62) =     -0.39507  eV     1   --> G_2            
     e( 63 - 63) =      0.13778  eV     1   --> G_2            
     e( 64 - 64) =      0.13883  eV     1   --> G_2            
     e( 65 - 65) =      0.38969  eV     1   --> G_2            
     e( 66 - 66) =      0.39159  eV     1   --> G_2            
     e( 67 - 67) =      0.65578  eV     1   --> G_2            
     e( 68 - 68) =      0.65799  eV     1   --> G_2            
     e( 69 - 69) =      0.71119  eV     1   --> G_2            
     e( 70 - 70) =      0.72076  eV     1   --> G_2            
     e( 71 - 71) =      0.89656  eV     1   --> G_2            
     e( 72 - 72) =      0.90815  eV     1   --> G_2            
     e( 73 - 73) =      1.09459  eV     1   --> G_2            
     e( 74 - 74) =      1.09767  eV     1   --> G_2            
     e( 75 - 75) =      1.46005  eV     1   --> G_2            
     e( 76 - 76) =      1.46225  eV     1   --> G_2            
     e( 77 - 77) =      1.64709  eV     1   --> G_2            
     e( 78 - 78) =      1.64896  eV     1   --> G_2            
     e( 79 - 79) =      2.37270  eV     1   --> G_2            
     e( 80 - 80) =      2.37428  eV     1   --> G_2            
     e( 81 - 81) =      2.95544  eV     1   --> G_2            
     e( 82 - 82) =      2.95689  eV     1   --> G_2            
     e( 83 - 83) =      3.23871  eV     1   --> G_2            
     e( 84 - 84) =      3.24220  eV     1   --> G_2            
     e( 85 - 85) =      3.52918  eV     1   --> G_2            
     e( 86 - 86) =      3.53273  eV     1   --> G_2            
     e( 87 - 87) =      4.29428  eV     1   --> G_2            
     e( 88 - 88) =      4.29507  eV     1   --> G_2            
     e( 89 - 89) =      4.35973  eV     1   --> G_2            
     e( 90 - 90) =      4.36076  eV     1   --> G_2            
     e( 91 - 92) =      6.32611  eV     2   -->   2 G_2            
     e( 93 - 94) =      6.52366  eV     2   -->   2 G_2            
     e( 95 - 96) =      7.07859  eV     2   -->   2 G_2            
     e( 97 - 98) =      7.75620  eV     2   -->   2 G_2            
     e( 99 - 99) =      7.85831  eV     1   --> G_2            
     e(100 -100) =      7.85862  eV     1   --> G_2            
     e(101 -101) =      7.89732  eV     1   --> G_2            
     e(102 -102) =      7.89763  eV     1   --> G_2            
     e(103 -104) =      8.53755  eV     2   -->   2 G_2            
     e(105 -105) =      8.81821  eV     1   --> G_2            
     e(106 -106) =      8.81856  eV     1   --> G_2            
     e(107 -107) =      8.95206  eV     1   --> G_2            
     e(108 -108) =      8.95255  eV     1   --> G_2            
     e(109 -109) =      9.19267  eV     1   --> G_2            
     e(110 -110) =      9.19327  eV     1   --> G_2            
     e(111 -111) =      9.20015  eV     1   --> G_2            
     e(112 -112) =      9.20049  eV     1   --> G_2            
     e(113 -113) =      9.84710  eV     1   --> G_2            
     e(114 -114) =      9.84770  eV     1   --> G_2            
     e(115 -115) =      9.87062  eV     1   --> G_2            
     e(116 -116) =      9.87128  eV     1   --> G_2            
     e(117 -117) =     10.16816  eV     1   --> G_2            
     e(118 -118) =     10.16828  eV     1   --> G_2            
     e(119 -120) =     10.28810  eV     2   -->   2 G_2            
     e(121 -122) =     10.67673  eV     2   -->   2 G_2            
     e(123 -123) =     11.32248  eV     1   --> G_2            
     e(124 -124) =     11.32488  eV     1   --> G_2            
     e(125 -125) =     11.38220  eV     1   --> G_2            
     e(126 -126) =     11.38581  eV     1   --> G_2            
     e(127 -127) =     11.63306  eV     1   --> G_2            
     e(128 -128) =     11.63404  eV     1   --> G_2            
     e(129 -129) =     11.81918  eV     1   --> G_2            
     e(130 -130) =     11.82137  eV     1   --> G_2            
     e(131 -131) =     11.90335  eV     1   --> G_2            
     e(132 -132) =     11.90563  eV     1   --> G_2            
     e(133 -134) =     12.91437  eV     2   -->   2 G_2            
     e(135 -136) =     12.99946  eV     2   -->   2 G_2            
     e(137 -137) =     14.14433  eV     1   --> G_2            
     e(138 -138) =     14.14665  eV     1   --> G_2            
     e(139 -139) =     14.16499  eV     1   --> G_2            
     e(140 -140) =     14.16857  eV     1   --> G_2            
     e(141 -141) =     14.41811  eV     1   --> G_2            
     e(142 -142) =     14.42188  eV     1   --> G_2            
     e(143 -143) =     14.48263  eV     1   --> G_2            
     e(144 -144) =     14.48494  eV     1   --> G_2            
     e(145 -146) =     14.57755  eV     2   -->   2 G_2            
     e(147 -148) =     15.29332  eV     2   -->   2 G_2            
     e(149 -149) =     16.04249  eV     1   --> G_2            
     e(150 -150) =     16.04353  eV     1   --> G_2            
     e(151 -151) =     16.08784  eV     1   --> G_2            
     e(152 -152) =     16.08974  eV     1   --> G_2            
     e(153 -153) =     16.17803  eV     1   --> G_2            
     e(154 -154) =     16.17829  eV     1   --> G_2            
     e(155 -155) =     16.45663  eV     1   --> G_2            
     e(156 -156) =     16.45885  eV     1   --> G_2            
     e(157 -157) =     16.50731  eV     1   --> G_2            
     e(158 -158) =     16.50820  eV     1   --> G_2            
     e(159 -159) =     16.53207  eV     1   --> G_2            
     e(160 -160) =     16.53301  eV     1   --> G_2            
     e(161 -162) =     16.92055  eV     2   -->   2 G_2            
     e(163 -163) =     17.27919  eV     1   --> G_2            
     e(164 -164) =     17.27933  eV     1   --> G_2            
     e(165 -165) =     17.38033  eV     1   --> G_2            
     e(166 -166) =     17.38061  eV     1   --> G_2            
     e(167 -167) =     17.42810  eV     1   --> G_2            
     e(168 -168) =     17.42832  eV     1   --> G_2            
     e(169 -170) =     17.59419  eV     2   -->   2 G_2            
     e(171 -171) =     17.65005  eV     1   --> G_2            
     e(172 -172) =     17.65022  eV     1   --> G_2            
     e(173 -174) =     17.71380  eV     2   -->   2 G_2            
     e(175 -175) =     17.78393  eV     1   --> G_2            
     e(176 -176) =     17.78406  eV     1   --> G_2            
     e(177 -177) =     17.80764  eV     1   --> G_2            
     e(178 -178) =     17.80778  eV     1   --> G_2            
     e(179 -180) =     17.91359  eV     2   -->   2 G_2            
     e(181 -182) =     18.05954  eV     2   -->   2 G_2            
     e(183 -184) =     18.14883  eV     2   -->   2 G_2            
     e(185 -186) =     18.21833  eV     2   -->   2 G_2            
     e(187 -188) =     18.47426  eV     2   -->   2 G_2            
     e(189 -189) =     19.23451  eV     1   --> G_2            
     e(190 -190) =     19.23468  eV     1   --> G_2            
     e(191 -191) =     19.31364  eV     1   --> G_2            
     e(192 -192) =     19.31496  eV     1   --> G_2            
     e(193 -193) =     19.35780  eV     1   --> G_2            
     e(194 -194) =     19.35957  eV     1   --> G_2            
     e(195 -195) =     19.50810  eV     1   --> G_2            
     e(196 -196) =     19.50830  eV     1   --> G_2            
     e(197 -197) =     19.59341  eV     1   --> G_2            
     e(198 -198) =     19.59360  eV     1   --> G_2            
     e(199 -199) =     19.66996  eV     1   --> G_2            
     e(200 -200) =     19.67035  eV     1   --> G_2            

 **************************************************************************

 **************************************************************************

                    xk=(   0.02143,   0.01237,   0.00000  )

     Band symmetry, C_1 (1)     double point group:

     e(  1 -  2) =    -35.36695  eV     2   -->   2 G_2            
     e(  3 -  4) =    -35.36355  eV     2   -->   2 G_2            
     e(  5 -  6) =    -35.34208  eV     2   -->   2 G_2            
     e(  7 -  8) =    -35.33873  eV     2   -->   2 G_2            
     e(  9 - 10) =    -35.26173  eV     2   -->   2 G_2            
     e( 11 - 12) =    -35.22553  eV     2   -->   2 G_2            
     e( 13 - 14) =    -33.90699  eV     2   -->   2 G_2            
     e( 15 - 16) =    -33.90358  eV     2   -->   2 G_2            
     e( 17 - 18) =    -33.88592  eV     2   -->   2 G_2            
     e( 19 - 20) =    -33.88253  eV     2   -->   2 G_2            
     e( 21 - 22) =    -33.87461  eV     2   -->   2 G_2            
     e( 23 - 24) =    -33.87128  eV     2   -->   2 G_2            
     e( 25 - 26) =    -33.79918  eV     2   -->   2 G_2            
     e( 27 - 28) =    -33.78379  eV     2   -->   2 G_2            
     e( 29 - 30) =    -33.75226  eV     2   -->   2 G_2            
     e( 31 - 32) =    -27.98193  eV     2   -->   2 G_2            
     e( 33 - 34) =    -27.97980  eV     2   -->   2 G_2            
     e( 35 - 36) =    -27.97303  eV     2   -->   2 G_2            
     e( 37 - 38) =    -27.97094  eV     2   -->   2 G_2            
     e( 39 - 40) =    -26.74297  eV     2   -->   2 G_2            
     e( 41 - 42) =    -26.74083  eV     2   -->   2 G_2            
     e( 43 - 44) =    -26.73286  eV     2   -->   2 G_2            
     e( 45 - 46) =    -26.73168  eV     2   -->   2 G_2            
     e( 47 - 48) =    -26.73075  eV     2   -->   2 G_2            
     e( 49 - 50) =    -26.72959  eV     2   -->   2 G_2            
     e( 51 - 52) =    -10.57376  eV     2   -->   2 G_2            
     e( 53 - 54) =    -10.03681  eV     2   -->   2 G_2            
     e( 55 - 56) =     -8.94394  eV     2   -->   2 G_2            
     e( 57 - 58) =     -6.16486  eV     2   -->   2 G_2            
     e( 59 - 60) =     -4.71396  eV     2   -->   2 G_2            
     e( 61 - 61) =     -0.39815  eV     1   --> G_2            
     e( 62 - 62) =     -0.39799  eV     1   --> G_2            
     e( 63 - 63) =      0.11110  eV     1   --> G_2            
     e( 64 - 64) =      0.11248  eV     1   --> G_2            
     e( 65 - 65) =      0.39026  eV     1   --> G_2            
     e( 66 - 66) =      0.39292  eV     1   --> G_2            
     e( 67 - 67) =      0.63957  eV     1   --> G_2            
     e( 68 - 68) =      0.64349  eV     1   --> G_2            
     e( 69 - 69) =      0.67224  eV     1   --> G_2            
     e( 70 - 70) =      0.68174  eV     1   --> G_2            
     e( 71 - 71) =      0.90891  eV     1   --> G_2            
     e( 72 - 72) =      0.92192  eV     1   --> G_2            
     e( 73 - 73) =      1.11197  eV     1   --> G_2            
     e( 74 - 74) =      1.11614  eV     1   --> G_2            
     e( 75 - 75) =      1.44165  eV     1   --> G_2            
     e( 76 - 76) =      1.44484  eV     1   --> G_2            
     e( 77 - 77) =      1.66757  eV     1   --> G_2            
     e( 78 - 78) =      1.67017  eV     1   --> G_2            
     e( 79 - 79) =      2.39652  eV     1   --> G_2            
     e( 80 - 80) =      2.39875  eV     1   --> G_2            
     e( 81 - 81) =      2.95954  eV     1   --> G_2            
     e( 82 - 82) =      2.96155  eV     1   --> G_2            
     e( 83 - 83) =      3.21705  eV     1   --> G_2            
     e( 84 - 84) =      3.22142  eV     1   --> G_2            
     e( 85 - 85) =      3.55087  eV     1   --> G_2            
     e( 86 - 86) =      3.55535  eV     1   --> G_2            
     e( 87 - 87) =      4.30774  eV     1   --> G_2            
     e( 88 - 88) =      4.30878  eV     1   --> G_2            
     e( 89 - 89) =      4.35735  eV     1   --> G_2            
     e( 90 - 90) =      4.35895  eV     1   --> G_2            
     e( 91 - 92) =      6.33032  eV     2   -->   2 G_2            
     e( 93 - 94) =      6.52474  eV     2   -->   2 G_2            
     e( 95 - 96) =      7.07983  eV     2   -->   2 G_2            
     e( 97 - 98) =      7.75579  eV     2   -->   2 G_2            
     e( 99 - 99) =      7.84063  eV     1   --> G_2            
     e(100 -100) =      7.84096  eV     1   --> G_2            
     e(101 -101) =      7.89816  eV     1   --> G_2            
     e(102 -102) =      7.89847  eV     1   --> G_2            
     e(103 -104) =      8.55452  eV     2   -->   2 G_2            
     e(105 -105) =      8.81398  eV     1   --> G_2            
     e(106 -106) =      8.81450  eV     1   --> G_2            
     e(107 -107) =      8.94194  eV     1   --> G_2            
     e(108 -108) =      8.94263  eV     1   --> G_2            
     e(109 -109) =      9.18877  eV     1   --> G_2            
     e(110 -110) =      9.18960  eV     1   --> G_2            
     e(111 -111) =      9.20047  eV     1   --> G_2            
     e(112 -112) =      9.20092  eV     1   --> G_2            
     e(113 -113) =      9.86027  eV     1   --> G_2            
     e(114 -114) =      9.86094  eV     1   --> G_2            
     e(115 -115) =      9.88687  eV     1   --> G_2            
     e(116 -116) =      9.88773  eV     1   --> G_2            
     e(117 -117) =     10.16852  eV     1   --> G_2            
     e(118 -118) =     10.16869  eV     1   --> G_2            
     e(119 -119) =     10.30455  eV     1   --> G_2            
     e(120 -120) =     10.30465  eV     1   --> G_2            
     e(121 -122) =     10.69318  eV     2   -->   2 G_2            
     e(123 -123) =     11.30703  eV     1   --> G_2            
     e(124 -124) =     11.31052  eV     1   --> G_2            
     e(125 -125) =     11.35937  eV     1   --> G_2            
     e(126 -126) =     11.36428  eV     1   --> G_2            
     e(127 -127) =     11.59760  eV     1   --> G_2            
     e(128 -128) =     11.59852  eV     1   --> G_2            
     e(129 -129) =     11.85252  eV     1   --> G_2            
     e(130 -130) =     11.85481  eV     1   --> G_2            
     e(131 -131) =     11.95799  eV     1   --> G_2            
     e(132 -132) =     11.96026  eV     1   --> G_2            
     e(133 -134) =     12.91441  eV     2   -->   2 G_2            
     e(135 -136) =     13.00688  eV     2   -->   2 G_2            
     e(137 -137) =     14.09291  eV     1   --> G_2            
     e(138 -138) =     14.09399  eV     1   --> G_2            
     e(139 -139) =     14.12371  eV     1   --> G_2            
     e(140 -140) =     14.12546  eV     1   --> G_2            
     e(141 -141) =     14.43180  eV     1   --> G_2            
     e(142 -142) =     14.43440  eV     1   --> G_2            
     e(143 -143) =     14.51354  eV     1   --> G_2            
     e(144 -144) =     14.51486  eV     1   --> G_2            
     e(145 -145) =     14.62055  eV     1   --> G_2            
     e(146 -146) =     14.62067  eV     1   --> G_2            
     e(147 -147) =     15.30968  eV     1   --> G_2            
     e(148 -148) =     15.30980  eV     1   --> G_2            
     e(149 -149) =     15.98090  eV     1   --> G_2            
     e(150 -150) =     15.98131  eV     1   --> G_2            
     e(151 -151) =     16.04362  eV     1   --> G_2            
     e(152 -152) =     16.04477  eV     1   --> G_2            
     e(153 -153) =     16.16699  eV     1   --> G_2            
     e(154 -154) =     16.16718  eV     1   --> G_2            
     e(155 -155) =     16.47597  eV     1   --> G_2            
     e(156 -156) =     16.47713  eV     1   --> G_2            
     e(157 -157) =     16.53789  eV     1   --> G_2            
     e(158 -158) =     16.53966  eV     1   --> G_2            
     e(159 -159) =     16.55902  eV     1   --> G_2            
     e(160 -160) =     16.56141  eV     1   --> G_2            
     e(161 -161) =     16.95905  eV     1   --> G_2            
     e(162 -162) =     16.95918  eV     1   --> G_2            
     e(163 -164) =     17.16200  eV     2   -->   2 G_2            
     e(165 -165) =     17.35558  eV     1   --> G_2            
     e(166 -166) =     17.35659  eV     1   --> G_2            
     e(167 -167) =     17.37064  eV     1   --> G_2            
     e(168 -168) =     17.37149  eV     1   --> G_2            
     e(169 -169) =     17.54113  eV     1   --> G_2            
     e(170 -170) =     17.54123  eV     1   --> G_2            
     e(171 -172) =     17.56500  eV     2   -->   2 G_2            
     e(173 -174) =     17.67179  eV     2   -->   2 G_2            
     e(175 -175) =     17.84570  eV     1   --> G_2            
     e(176 -176) =     17.84608  eV     1   --> G_2            
     e(177 -177) =     17.86552  eV     1   --> G_2            
     e(178 -178) =     17.86594  eV     1   --> G_2            
     e(179 -179) =     17.91420  eV     1   --> G_2            
     e(180 -180) =     17.91430  eV     1   --> G_2            
     e(181 -182) =     18.13522  eV     2   -->   2 G_2            
     e(183 -184) =     18.25794  eV     2   -->   2 G_2            
     e(185 -185) =     18.29549  eV     1   --> G_2            
     e(186 -186) =     18.29559  eV     1   --> G_2            
     e(187 -188) =     18.54941  eV     2   -->   2 G_2            
     e(189 -189) =     19.12109  eV     1   --> G_2            
     e(190 -190) =     19.12119  eV     1   --> G_2            
     e(191 -191) =     19.23755  eV     1   --> G_2            
     e(192 -192) =     19.23964  eV     1   --> G_2            
     e(193 -193) =     19.27136  eV     1   --> G_2            
     e(194 -194) =     19.27377  eV     1   --> G_2            
     e(195 -195) =     19.47857  eV     1   --> G_2            
     e(196 -196) =     19.47882  eV     1   --> G_2            
     e(197 -198) =     19.55976  eV     2   -->   2 G_2            
     e(199 -199) =     19.62917  eV     1   --> G_2            
     e(200 -200) =     19.62947  eV     1   --> G_2            

 **************************************************************************

 **************************************************************************

                    xk=(   0.02857,   0.01649,   0.00000  )

     Band symmetry, C_1 (1)     double point group:

     e(  1 -  2) =    -35.36695  eV     2   -->   2 G_2            
     e(  3 -  4) =    -35.36355  eV     2   -->   2 G_2            
     e(  5 -  6) =    -35.34208  eV     2   -->   2 G_2            
     e(  7 -  8) =    -35.33873  eV     2   -->   2 G_2            
     e(  9 - 10) =    -35.26173  eV     2   -->   2 G_2            
     e( 11 - 12) =    -35.22553  eV     2   -->   2 G_2            
     e( 13 - 14) =    -33.90699  eV     2   -->   2 G_2            
     e( 15 - 16) =    -33.90358  eV     2   -->   2 G_2            
     e( 17 - 18) =    -33.88592  eV     2   -->   2 G_2            
     e( 19 - 20) =    -33.88253  eV     2   -->   2 G_2            
     e( 21 - 22) =    -33.87461  eV     2   -->   2 G_2            
     e( 23 - 24) =    -33.87128  eV     2   -->   2 G_2            
     e( 25 - 26) =    -33.79918  eV     2   -->   2 G_2            
     e( 27 - 28) =    -33.78379  eV     2   -->   2 G_2            
     e( 29 - 30) =    -33.75225  eV     2   -->   2 G_2            
     e( 31 - 32) =    -27.98192  eV     2   -->   2 G_2            
     e( 33 - 34) =    -27.97980  eV     2   -->   2 G_2            
     e( 35 - 36) =    -27.97303  eV     2   -->   2 G_2            
     e( 37 - 38) =    -27.97094  eV     2   -->   2 G_2            
     e( 39 - 40) =    -26.74296  eV     2   -->   2 G_2            
     e( 41 - 42) =    -26.74083  eV     2   -->   2 G_2            
     e( 43 - 44) =    -26.73286  eV     2   -->   2 G_2            
     e( 45 - 46) =    -26.73169  eV     2   -->   2 G_2            
     e( 47 - 48) =    -26.73076  eV     2   -->   2 G_2            
     e( 49 - 50) =    -26.72959  eV     2   -->   2 G_2            
     e( 51 - 52) =    -10.57060  eV     2   -->   2 G_2            
     e( 53 - 54) =    -10.03389  eV     2   -->   2 G_2            
     e( 55 - 56) =     -8.94208  eV     2   -->   2 G_2            
     e( 57 - 58) =     -6.16502  eV     2   -->   2 G_2            
     e( 59 - 60) =     -4.71903  eV     2   -->   2 G_2            
     e( 61 - 61) =     -0.40241  eV     1   --> G_2            
     e( 62 - 62) =     -0.40218  eV     1   --> G_2            
     e( 63 - 63) =      0.07682  eV     1   --> G_2            
     e( 64 - 64) =      0.07841  eV     1   --> G_2            
     e( 65 - 65) =      0.38825  eV     1   --> G_2            
     e( 66 - 66) =      0.39154  eV     1   --> G_2            
     e( 67 - 67) =      0.60289  eV     1   --> G_2            
     e( 68 - 68) =      0.61057  eV     1   --> G_2            
     e( 69 - 69) =      0.64691  eV     1   --> G_2            
     e( 70 - 70) =      0.65375  eV     1   --> G_2            
     e( 71 - 71) =      0.91600  eV     1   --> G_2            
     e( 72 - 72) =      0.92947  eV     1   --> G_2            
     e( 73 - 73) =      1.13269  eV     1   --> G_2            
     e( 74 - 74) =      1.13780  eV     1   --> G_2            
     e( 75 - 75) =      1.42074  eV     1   --> G_2            
     e( 76 - 76) =      1.42487  eV     1   --> G_2            
     e( 77 - 77) =      1.69502  eV     1   --> G_2            
     e( 78 - 78) =      1.69812  eV     1   --> G_2            
     e( 79 - 79) =      2.42576  eV     1   --> G_2            
     e( 80 - 80) =      2.42850  eV     1   --> G_2            
     e( 81 - 81) =      2.96551  eV     1   --> G_2            
     e( 82 - 82) =      2.96784  eV     1   --> G_2            
     e( 83 - 83) =      3.19515  eV     1   --> G_2            
     e( 84 - 84) =      3.19990  eV     1   --> G_2            
     e( 85 - 85) =      3.57545  eV     1   --> G_2            
     e( 86 - 86) =      3.58044  eV     1   --> G_2            
     e( 87 - 87) =      4.32404  eV     1   --> G_2            
     e( 88 - 88) =      4.32511  eV     1   --> G_2            
     e( 89 - 89) =      4.35658  eV     1   --> G_2            
     e( 90 - 90) =      4.35890  eV     1   --> G_2            
     e( 91 - 92) =      6.33617  eV     2   -->   2 G_2            
     e( 93 - 94) =      6.52625  eV     2   -->   2 G_2            
     e( 95 - 96) =      7.08144  eV     2   -->   2 G_2            
     e( 97 - 97) =      7.75387  eV     1   --> G_2            
     e( 98 - 98) =      7.75399  eV     1   --> G_2            
     e( 99 - 99) =      7.81623  eV     1   --> G_2            
     e(100 -100) =      7.81654  eV     1   --> G_2            
     e(101 -101) =      7.90284  eV     1   --> G_2            
     e(102 -102) =      7.90310  eV     1   --> G_2            
     e(103 -104) =      8.57592  eV     2   -->   2 G_2            
     e(105 -105) =      8.80625  eV     1   --> G_2            
     e(106 -106) =      8.80691  eV     1   --> G_2            
     e(107 -107) =      8.92946  eV     1   --> G_2            
     e(108 -108) =      8.93030  eV     1   --> G_2            
     e(109 -109) =      9.18479  eV     1   --> G_2            
     e(110 -110) =      9.18564  eV     1   --> G_2            
     e(111 -111) =      9.20355  eV     1   --> G_2            
     e(112 -112) =      9.20400  eV     1   --> G_2            
     e(113 -113) =      9.87616  eV     1   --> G_2            
     e(114 -114) =      9.87684  eV     1   --> G_2            
     e(115 -115) =      9.90578  eV     1   --> G_2            
     e(116 -116) =      9.90678  eV     1   --> G_2            
     e(117 -117) =     10.17222  eV     1   --> G_2            
     e(118 -118) =     10.17243  eV     1   --> G_2            
     e(119 -119) =     10.32708  eV     1   --> G_2            
     e(120 -120) =     10.32719  eV     1   --> G_2            
     e(121 -121) =     10.71637  eV     1   --> G_2            
     e(122 -122) =     10.71648  eV     1   --> G_2            
     e(123 -123) =     11.28551  eV     1   --> G_2            
     e(124 -124) =     11.28997  eV     1   --> G_2            
     e(125 -125) =     11.33007  eV     1   --> G_2            
     e(126 -126) =     11.33586  eV     1   --> G_2            
     e(127 -127) =     11.57117  eV     1   --> G_2            
     e(128 -128) =     11.57182  eV     1   --> G_2            
     e(129 -129) =     11.89096  eV     1   --> G_2            
     e(130 -130) =     11.89326  eV     1   --> G_2            
     e(131 -131) =     12.01730  eV     1   --> G_2            
     e(132 -132) =     12.01942  eV     1   --> G_2            
     e(133 -134) =     12.91458  eV     2   -->   2 G_2            
     e(135 -136) =     13.01720  eV     2   -->   2 G_2            
     e(137 -137) =     14.03249  eV     1   --> G_2            
     e(138 -138) =     14.03356  eV     1   --> G_2            
     e(139 -139) =     14.08067  eV     1   --> G_2            
     e(140 -140) =     14.08164  eV     1   --> G_2            
     e(141 -141) =     14.43602  eV     1   --> G_2            
     e(142 -142) =     14.43758  eV     1   --> G_2            
     e(143 -143) =     14.55417  eV     1   --> G_2            
     e(144 -144) =     14.55466  eV     1   --> G_2            
     e(145 -145) =     14.67262  eV     1   --> G_2            
     e(146 -146) =     14.67272  eV     1   --> G_2            
     e(147 -147) =     15.32301  eV     1   --> G_2            
     e(148 -148) =     15.32315  eV     1   --> G_2            
     e(149 -150) =     15.91398  eV     2   -->   2 G_2            
     e(151 -151) =     15.99983  eV     1   --> G_2            
     e(152 -152) =     16.00048  eV     1   --> G_2            
     e(153 -153) =     16.15497  eV     1   --> G_2            
     e(154 -154) =     16.15512  eV     1   --> G_2            
     e(155 -155) =     16.48030  eV     1   --> G_2            
     e(156 -156) =     16.48083  eV     1   --> G_2            
     e(157 -157) =     16.57176  eV     1   --> G_2            
     e(158 -158) =     16.57378  eV     1   --> G_2            
     e(159 -159) =     16.59783  eV     1   --> G_2            
     e(160 -160) =     16.60000  eV     1   --> G_2            
     e(161 -161) =     16.99989  eV     1   --> G_2            
     e(162 -162) =     17.00024  eV     1   --> G_2            
     e(163 -163) =     17.04475  eV     1   --> G_2            
     e(164 -164) =     17.04503  eV     1   --> G_2            
     e(165 -165) =     17.29893  eV     1   --> G_2            
     e(166 -166) =     17.30000  eV     1   --> G_2            
     e(167 -167) =     17.31352  eV     1   --> G_2            
     e(168 -168) =     17.31444  eV     1   --> G_2            
     e(169 -170) =     17.46569  eV     2   -->   2 G_2            
     e(171 -172) =     17.53035  eV     2   -->   2 G_2            
     e(173 -174) =     17.60939  eV     2   -->   2 G_2            
     e(175 -175) =     17.88406  eV     1   --> G_2            
     e(176 -176) =     17.88440  eV     1   --> G_2            
     e(177 -177) =     17.91169  eV     1   --> G_2            
     e(178 -178) =     17.91197  eV     1   --> G_2            
     e(179 -179) =     17.98405  eV     1   --> G_2            
     e(180 -180) =     17.98422  eV     1   --> G_2            
     e(181 -182) =     18.21263  eV     2   -->   2 G_2            
     e(183 -184) =     18.35359  eV     2   -->   2 G_2            
     e(185 -185) =     18.39097  eV     1   --> G_2            
     e(186 -186) =     18.39108  eV     1   --> G_2            
     e(187 -188) =     18.64571  eV     2   -->   2 G_2            
     e(189 -190) =     19.00648  eV     2   -->   2 G_2            
     e(191 -191) =     19.13768  eV     1   --> G_2            
     e(192 -192) =     19.13879  eV     1   --> G_2            
     e(193 -193) =     19.19710  eV     1   --> G_2            
     e(194 -194) =     19.19845  eV     1   --> G_2            
     e(195 -195) =     19.43226  eV     1   --> G_2            
     e(196 -196) =     19.43250  eV     1   --> G_2            
     e(197 -197) =     19.51498  eV     1   --> G_2            
     e(198 -198) =     19.51509  eV     1   --> G_2            
     e(199 -199) =     19.57750  eV     1   --> G_2            
     e(200 -200) =     19.57771  eV     1   --> G_2            

 **************************************************************************

 **************************************************************************

                    xk=(   0.03571,   0.02061,   0.00000  )

     Band symmetry, C_1 (1)     double point group:

     e(  1 -  2) =    -35.36695  eV     2   -->   2 G_2            
     e(  3 -  4) =    -35.36354  eV     2   -->   2 G_2            
     e(  5 -  6) =    -35.34208  eV     2   -->   2 G_2            
     e(  7 -  8) =    -35.33873  eV     2   -->   2 G_2            
     e(  9 - 10) =    -35.26173  eV     2   -->   2 G_2            
     e( 11 - 12) =    -35.22553  eV     2   -->   2 G_2            
     e( 13 - 14) =    -33.90698  eV     2   -->   2 G_2            
     e( 15 - 16) =    -33.90358  eV     2   -->   2 G_2            
     e( 17 - 18) =    -33.88592  eV     2   -->   2 G_2            
     e( 19 - 20) =    -33.88253  eV     2   -->   2 G_2            
     e( 21 - 22) =    -33.87461  eV     2   -->   2 G_2            
     e( 23 - 24) =    -33.87128  eV     2   -->   2 G_2            
     e( 25 - 26) =    -33.79918  eV     2   -->   2 G_2            
     e( 27 - 28) =    -33.78379  eV     2   -->   2 G_2            
     e( 29 - 30) =    -33.75225  eV     2   -->   2 G_2            
     e( 31 - 32) =    -27.98192  eV     2   -->   2 G_2            
     e( 33 - 34) =    -27.97979  eV     2   -->   2 G_2            
     e( 35 - 36) =    -27.97304  eV     2   -->   2 G_2            
     e( 37 - 38) =    -27.97095  eV     2   -->   2 G_2            
     e( 39 - 40) =    -26.74295  eV     2   -->   2 G_2            
     e( 41 - 42) =    -26.74082  eV     2   -->   2 G_2            
     e( 43 - 44) =    -26.73287  eV     2   -->   2 G_2            
     e( 45 - 46) =    -26.73169  eV     2   -->   2 G_2            
     e( 47 - 48) =    -26.73076  eV     2   -->   2 G_2            
     e( 49 - 50) =    -26.72959  eV     2   -->   2 G_2            
     e( 51 - 52) =    -10.56654  eV     2   -->   2 G_2            
     e( 53 - 54) =    -10.03014  eV     2   -->   2 G_2            
     e( 55 - 56) =     -8.93969  eV     2   -->   2 G_2            
     e( 57 - 58) =     -6.16525  eV     2   -->   2 G_2            
     e( 59 - 60) =     -4.72556  eV     2   -->   2 G_2            
     e( 61 - 61) =     -0.40803  eV     1   --> G_2            
     e( 62 - 62) =     -0.40775  eV     1   --> G_2            
     e( 63 - 63) =      0.03643  eV     1   --> G_2            
     e( 64 - 64) =      0.03813  eV     1   --> G_2            
     e( 65 - 65) =      0.38219  eV     1   --> G_2            
     e( 66 - 66) =      0.38594  eV     1   --> G_2            
     e( 67 - 67) =      0.55359  eV     1   --> G_2            
     e( 68 - 68) =      0.56268  eV     1   --> G_2            
     e( 69 - 69) =      0.63031  eV     1   --> G_2            
     e( 70 - 70) =      0.63657  eV     1   --> G_2            
     e( 71 - 71) =      0.91724  eV     1   --> G_2            
     e( 72 - 72) =      0.93066  eV     1   --> G_2            
     e( 73 - 73) =      1.15261  eV     1   --> G_2            
     e( 74 - 74) =      1.15859  eV     1   --> G_2            
     e( 75 - 75) =      1.40228  eV     1   --> G_2            
     e( 76 - 76) =      1.40727  eV     1   --> G_2            
     e( 77 - 77) =      1.72753  eV     1   --> G_2            
     e( 78 - 78) =      1.73090  eV     1   --> G_2            
     e( 79 - 79) =      2.45716  eV     1   --> G_2            
     e( 80 - 80) =      2.46025  eV     1   --> G_2            
     e( 81 - 81) =      2.97351  eV     1   --> G_2            
     e( 82 - 82) =      2.97573  eV     1   --> G_2            
     e( 83 - 83) =      3.17692  eV     1   --> G_2            
     e( 84 - 84) =      3.18157  eV     1   --> G_2            
     e( 85 - 85) =      3.60070  eV     1   --> G_2            
     e( 86 - 86) =      3.60591  eV     1   --> G_2            
     e( 87 - 87) =      4.33402  eV     1   --> G_2            
     e( 88 - 88) =      4.33544  eV     1   --> G_2            
     e( 89 - 89) =      4.36631  eV     1   --> G_2            
     e( 90 - 90) =      4.36916  eV     1   --> G_2            
     e( 91 - 92) =      6.34362  eV     2   -->   2 G_2            
     e( 93 - 94) =      6.52818  eV     2   -->   2 G_2            
     e( 95 - 96) =      7.08326  eV     2   -->   2 G_2            
     e( 97 - 97) =      7.74630  eV     1   --> G_2            
     e( 98 - 98) =      7.74645  eV     1   --> G_2            
     e( 99 - 99) =      7.79185  eV     1   --> G_2            
     e(100 -100) =      7.79217  eV     1   --> G_2            
     e(101 -101) =      7.91034  eV     1   --> G_2            
     e(102 -102) =      7.91056  eV     1   --> G_2            
     e(103 -104) =      8.60018  eV     2   -->   2 G_2            
     e(105 -105) =      8.79302  eV     1   --> G_2            
     e(106 -106) =      8.79377  eV     1   --> G_2            
     e(107 -107) =      8.91754  eV     1   --> G_2            
     e(108 -108) =      8.91844  eV     1   --> G_2            
     e(109 -109) =      9.18118  eV     1   --> G_2            
     e(110 -110) =      9.18190  eV     1   --> G_2            
     e(111 -111) =      9.21042  eV     1   --> G_2            
     e(112 -112) =      9.21079  eV     1   --> G_2            
     e(113 -113) =      9.89373  eV     1   --> G_2            
     e(114 -114) =      9.89447  eV     1   --> G_2            
     e(115 -115) =      9.92318  eV     1   --> G_2            
     e(116 -116) =      9.92430  eV     1   --> G_2            
     e(117 -117) =     10.18236  eV     1   --> G_2            
     e(118 -118) =     10.18259  eV     1   --> G_2            
     e(119 -119) =     10.35519  eV     1   --> G_2            
     e(120 -120) =     10.35532  eV     1   --> G_2            
     e(121 -121) =     10.74635  eV     1   --> G_2            
     e(122 -122) =     10.74649  eV     1   --> G_2            
     e(123 -123) =     11.25779  eV     1   --> G_2            
     e(124 -124) =     11.26274  eV     1   --> G_2            
     e(125 -125) =     11.29767  eV     1   --> G_2            
     e(126 -126) =     11.30374  eV     1   --> G_2            
     e(127 -127) =     11.55441  eV     1   --> G_2            
     e(128 -128) =     11.55475  eV     1   --> G_2            
     e(129 -129) =     11.93401  eV     1   --> G_2            
     e(130 -130) =     11.93628  eV     1   --> G_2            
     e(131 -131) =     12.07765  eV     1   --> G_2            
     e(132 -132) =     12.07964  eV     1   --> G_2            
     e(133 -133) =     12.91501  eV     1   --> G_2            
     e(134 -134) =     12.91512  eV     1   --> G_2            
     e(135 -136) =     13.03033  eV     2   -->   2 G_2            
     e(137 -137) =     13.96898  eV     1   --> G_2            
     e(138 -138) =     13.97013  eV     1   --> G_2            
     e(139 -139) =     14.03658  eV     1   --> G_2            
     e(140 -140) =     14.03736  eV     1   --> G_2            
     e(141 -141) =     14.43740  eV     1   --> G_2            
     e(142 -142) =     14.43842  eV     1   --> G_2            
     e(143 -143) =     14.59811  eV     1   --> G_2            
     e(144 -144) =     14.59835  eV     1   --> G_2            
     e(145 -145) =     14.72902  eV     1   --> G_2            
     e(146 -146) =     14.72916  eV     1   --> G_2            
     e(147 -147) =     15.32387  eV     1   --> G_2            
     e(148 -148) =     15.32402  eV     1   --> G_2            
     e(149 -149) =     15.85699  eV     1   --> G_2            
     e(150 -150) =     15.85717  eV     1   --> G_2            
     e(151 -151) =     15.95641  eV     1   --> G_2            
     e(152 -152) =     15.95680  eV     1   --> G_2            
     e(153 -153) =     16.14134  eV     1   --> G_2            
     e(154 -154) =     16.14149  eV     1   --> G_2            
     e(155 -155) =     16.47951  eV     1   --> G_2            
     e(156 -156) =     16.47982  eV     1   --> G_2            
     e(157 -157) =     16.59203  eV     1   --> G_2            
     e(158 -158) =     16.59284  eV     1   --> G_2            
     e(159 -159) =     16.65116  eV     1   --> G_2            
     e(160 -160) =     16.65202  eV     1   --> G_2            
     e(161 -161) =     16.91841  eV     1   --> G_2            
     e(162 -162) =     16.91859  eV     1   --> G_2            
     e(163 -163) =     17.03521  eV     1   --> G_2            
     e(164 -164) =     17.03536  eV     1   --> G_2            
     e(165 -165) =     17.23333  eV     1   --> G_2            
     e(166 -166) =     17.23414  eV     1   --> G_2            
     e(167 -167) =     17.25007  eV     1   --> G_2            
     e(168 -168) =     17.25075  eV     1   --> G_2            
     e(169 -170) =     17.41790  eV     2   -->   2 G_2            
     e(171 -172) =     17.50154  eV     2   -->   2 G_2            
     e(173 -173) =     17.54499  eV     1   --> G_2            
     e(174 -174) =     17.54510  eV     1   --> G_2            
     e(175 -175) =     17.89789  eV     1   --> G_2            
     e(176 -176) =     17.89804  eV     1   --> G_2            
     e(177 -177) =     17.98228  eV     1   --> G_2            
     e(178 -178) =     17.98240  eV     1   --> G_2            
     e(179 -179) =     18.07240  eV     1   --> G_2            
     e(180 -180) =     18.07257  eV     1   --> G_2            
     e(181 -182) =     18.29132  eV     2   -->   2 G_2            
     e(183 -184) =     18.43233  eV     2   -->   2 G_2            
     e(185 -185) =     18.49970  eV     1   --> G_2            
     e(186 -186) =     18.49981  eV     1   --> G_2            
     e(187 -188) =     18.74829  eV     2   -->   2 G_2            
     e(189 -190) =     18.90588  eV     2   -->   2 G_2            
     e(191 -191) =     19.02501  eV     1   --> G_2            
     e(192 -192) =     19.02554  eV     1   --> G_2            
     e(193 -193) =     19.12968  eV     1   --> G_2            
     e(194 -194) =     19.13037  eV     1   --> G_2            
     e(195 -195) =     19.37926  eV     1   --> G_2            
     e(196 -196) =     19.37948  eV     1   --> G_2            
     e(197 -197) =     19.46880  eV     1   --> G_2            
     e(198 -198) =     19.46893  eV     1   --> G_2            
     e(199 -199) =     19.52369  eV     1   --> G_2            
     e(200 -200) =     19.52385  eV     1   --> G_2            

 **************************************************************************

 **************************************************************************

                    xk=(   0.04286,   0.02473,   0.00000  )

     Band symmetry, C_1 (1)     double point group:

     e(  1 -  2) =    -35.36694  eV     2   -->   2 G_2            
     e(  3 -  4) =    -35.36354  eV     2   -->   2 G_2            
     e(  5 -  6) =    -35.34208  eV     2   -->   2 G_2            
     e(  7 -  8) =    -35.33873  eV     2   -->   2 G_2            
     e(  9 - 10) =    -35.26173  eV     2   -->   2 G_2            
     e( 11 - 12) =    -35.22553  eV     2   -->   2 G_2            
     e( 13 - 14) =    -33.90698  eV     2   -->   2 G_2            
     e( 15 - 16) =    -33.90357  eV     2   -->   2 G_2            
     e( 17 - 18) =    -33.88592  eV     2   -->   2 G_2            
     e( 19 - 20) =    -33.88253  eV     2   -->   2 G_2            
     e( 21 - 22) =    -33.87461  eV     2   -->   2 G_2            
     e( 23 - 24) =    -33.87128  eV     2   -->   2 G_2            
     e( 25 - 26) =    -33.79918  eV     2   -->   2 G_2            
     e( 27 - 28) =    -33.78379  eV     2   -->   2 G_2            
     e( 29 - 30) =    -33.75225  eV     2   -->   2 G_2            
     e( 31 - 32) =    -27.98192  eV     2   -->   2 G_2            
     e( 33 - 34) =    -27.97979  eV     2   -->   2 G_2            
     e( 35 - 36) =    -27.97304  eV     2   -->   2 G_2            
     e( 37 - 38) =    -27.97095  eV     2   -->   2 G_2            
     e( 39 - 40) =    -26.74294  eV     2   -->   2 G_2            
     e( 41 - 42) =    -26.74081  eV     2   -->   2 G_2            
     e( 43 - 44) =    -26.73288  eV     2   -->   2 G_2            
     e( 45 - 46) =    -26.73169  eV     2   -->   2 G_2            
     e( 47 - 48) =    -26.73077  eV     2   -->   2 G_2            
     e( 49 - 50) =    -26.72959  eV     2   -->   2 G_2            
     e( 51 - 52) =    -10.56158  eV     2   -->   2 G_2            
     e( 53 - 54) =    -10.02555  eV     2   -->   2 G_2            
     e( 55 - 56) =     -8.93677  eV     2   -->   2 G_2            
     e( 57 - 58) =     -6.16554  eV     2   -->   2 G_2            
     e( 59 - 60) =     -4.73354  eV     2   -->   2 G_2            
     e( 61 - 61) =     -0.41518  eV     1   --> G_2            
     e( 62 - 62) =     -0.41483  eV     1   --> G_2            
     e( 63 - 63) =     -0.00895  eV     1   --> G_2            
     e( 64 - 64) =     -0.00720  eV     1   --> G_2            
     e( 65 - 65) =      0.37105  eV     1   --> G_2            
     e( 66 - 66) =      0.37502  eV     1   --> G_2            
     e( 67 - 67) =      0.50187  eV     1   --> G_2            
     e( 68 - 68) =      0.51107  eV     1   --> G_2            
     e( 69 - 69) =      0.61464  eV     1   --> G_2            
     e( 70 - 70) =      0.62100  eV     1   --> G_2            
     e( 71 - 71) =      0.91243  eV     1   --> G_2            
     e( 72 - 72) =      0.92548  eV     1   --> G_2            
     e( 73 - 73) =      1.16741  eV     1   --> G_2            
     e( 74 - 74) =      1.17404  eV     1   --> G_2            
     e( 75 - 75) =      1.39212  eV     1   --> G_2            
     e( 76 - 76) =      1.39767  eV     1   --> G_2            
     e( 77 - 77) =      1.76286  eV     1   --> G_2            
     e( 78 - 78) =      1.76629  eV     1   --> G_2            
     e( 79 - 79) =      2.48756  eV     1   --> G_2            
     e( 80 - 80) =      2.49082  eV     1   --> G_2            
     e( 81 - 81) =      2.98388  eV     1   --> G_2            
     e( 82 - 82) =      2.98541  eV     1   --> G_2            
     e( 83 - 83) =      3.16554  eV     1   --> G_2            
     e( 84 - 84) =      3.16959  eV     1   --> G_2            
     e( 85 - 85) =      3.62538  eV     1   --> G_2            
     e( 86 - 86) =      3.63064  eV     1   --> G_2            
     e( 87 - 87) =      4.33292  eV     1   --> G_2            
     e( 88 - 88) =      4.33504  eV     1   --> G_2            
     e( 89 - 89) =      4.39122  eV     1   --> G_2            
     e( 90 - 90) =      4.39405  eV     1   --> G_2            
     e( 91 - 92) =      6.35262  eV     2   -->   2 G_2            
     e( 93 - 94) =      6.53051  eV     2   -->   2 G_2            
     e( 95 - 96) =      7.08509  eV     2   -->   2 G_2            
     e( 97 - 97) =      7.72447  eV     1   --> G_2            
     e( 98 - 98) =      7.72465  eV     1   --> G_2            
     e( 99 - 99) =      7.77824  eV     1   --> G_2            
     e(100 -100) =      7.77855  eV     1   --> G_2            
     e(101 -101) =      7.92012  eV     1   --> G_2            
     e(102 -102) =      7.92030  eV     1   --> G_2            
     e(103 -104) =      8.62587  eV     2   -->   2 G_2            
     e(105 -105) =      8.77287  eV     1   --> G_2            
     e(106 -106) =      8.77360  eV     1   --> G_2            
     e(107 -107) =      8.90922  eV     1   --> G_2            
     e(108 -108) =      8.91007  eV     1   --> G_2            
     e(109 -109) =      9.17804  eV     1   --> G_2            
     e(110 -110) =      9.17860  eV     1   --> G_2            
     e(111 -111) =      9.22147  eV     1   --> G_2            
     e(112 -112) =      9.22177  eV     1   --> G_2            
     e(113 -113) =      9.90989  eV     1   --> G_2            
     e(114 -114) =      9.91063  eV     1   --> G_2            
     e(115 -115) =      9.93774  eV     1   --> G_2            
     e(116 -116) =      9.93881  eV     1   --> G_2            
     e(117 -117) =     10.20194  eV     1   --> G_2            
     e(118 -118) =     10.20215  eV     1   --> G_2            
     e(119 -119) =     10.38820  eV     1   --> G_2            
     e(120 -120) =     10.38834  eV     1   --> G_2            
     e(121 -121) =     10.78298  eV     1   --> G_2            
     e(122 -122) =     10.78316  eV     1   --> G_2            
     e(123 -123) =     11.22364  eV     1   --> G_2            
     e(124 -124) =     11.22789  eV     1   --> G_2            
     e(125 -125) =     11.26729  eV     1   --> G_2            
     e(126 -126) =     11.27246  eV     1   --> G_2            
     e(127 -127) =     11.54548  eV     1   --> G_2            
     e(128 -128) =     11.54568  eV     1   --> G_2            
     e(129 -129) =     11.98064  eV     1   --> G_2            
     e(130 -130) =     11.98288  eV     1   --> G_2            
     e(131 -131) =     12.13722  eV     1   --> G_2            
     e(132 -132) =     12.13910  eV     1   --> G_2            
     e(133 -133) =     12.91583  eV     1   --> G_2            
     e(134 -134) =     12.91596  eV     1   --> G_2            
     e(135 -136) =     13.04611  eV     2   -->   2 G_2            
     e(137 -137) =     13.90508  eV     1   --> G_2            
     e(138 -138) =     13.90623  eV     1   --> G_2            
     e(139 -139) =     13.99259  eV     1   --> G_2            
     e(140 -140) =     13.99330  eV     1   --> G_2            
     e(141 -141) =     14.44010  eV     1   --> G_2            
     e(142 -142) =     14.44082  eV     1   --> G_2            
     e(143 -143) =     14.64216  eV     1   --> G_2            
     e(144 -144) =     14.64250  eV     1   --> G_2            
     e(145 -145) =     14.78671  eV     1   --> G_2            
     e(146 -146) =     14.78694  eV     1   --> G_2            
     e(147 -147) =     15.30323  eV     1   --> G_2            
     e(148 -148) =     15.30337  eV     1   --> G_2            
     e(149 -149) =     15.81935  eV     1   --> G_2            
     e(150 -150) =     15.81960  eV     1   --> G_2            
     e(151 -151) =     15.91483  eV     1   --> G_2            
     e(152 -152) =     15.91507  eV     1   --> G_2            
     e(153 -153) =     16.12679  eV     1   --> G_2            
     e(154 -154) =     16.12695  eV     1   --> G_2            
     e(155 -155) =     16.47596  eV     1   --> G_2            
     e(156 -156) =     16.47615  eV     1   --> G_2            
     e(157 -157) =     16.60168  eV     1   --> G_2            
     e(158 -158) =     16.60207  eV     1   --> G_2            
     e(159 -159) =     16.70565  eV     1   --> G_2            
     e(160 -160) =     16.70625  eV     1   --> G_2            
     e(161 -161) =     16.80804  eV     1   --> G_2            
     e(162 -162) =     16.80844  eV     1   --> G_2            
     e(163 -163) =     16.99789  eV     1   --> G_2            
     e(164 -164) =     16.99799  eV     1   --> G_2            
     e(165 -165) =     17.18428  eV     1   --> G_2            
     e(166 -166) =     17.18475  eV     1   --> G_2            
     e(167 -167) =     17.21787  eV     1   --> G_2            
     e(168 -168) =     17.21825  eV     1   --> G_2            
     e(169 -170) =     17.38558  eV     2   -->   2 G_2            
     e(171 -171) =     17.47346  eV     1   --> G_2            
     e(172 -172) =     17.47372  eV     1   --> G_2            
     e(173 -173) =     17.48265  eV     1   --> G_2            
     e(174 -174) =     17.48295  eV     1   --> G_2            
     e(175 -175) =     17.92839  eV     1   --> G_2            
     e(176 -176) =     17.92850  eV     1   --> G_2            
     e(177 -178) =     18.05556  eV     2   -->   2 G_2            
     e(179 -179) =     18.15876  eV     1   --> G_2            
     e(180 -180) =     18.15892  eV     1   --> G_2            
     e(181 -182) =     18.37103  eV     2   -->   2 G_2            
     e(183 -184) =     18.49286  eV     2   -->   2 G_2            
     e(185 -185) =     18.60465  eV     1   --> G_2            
     e(186 -186) =     18.60475  eV     1   --> G_2            
     e(187 -188) =     18.77126  eV     2   -->   2 G_2            
     e(189 -189) =     18.90332  eV     1   --> G_2            
     e(190 -190) =     18.90354  eV     1   --> G_2            
     e(191 -191) =     18.92191  eV     1   --> G_2            
     e(192 -192) =     18.92223  eV     1   --> G_2            
     e(193 -193) =     19.06419  eV     1   --> G_2            
     e(194 -194) =     19.06455  eV     1   --> G_2            
     e(195 -195) =     19.32405  eV     1   --> G_2            
     e(196 -196) =     19.32424  eV     1   --> G_2            
     e(197 -197) =     19.42488  eV     1   --> G_2            
     e(198 -198) =     19.42503  eV     1   --> G_2            
     e(199 -199) =     19.47193  eV     1   --> G_2            
     e(200 -200) =     19.47205  eV     1   --> G_2            

 **************************************************************************

 **************************************************************************

                    xk=(   0.05000,   0.02886,   0.00000  )

     Band symmetry, C_1 (1)     double point group:

     e(  1 -  2) =    -35.36694  eV     2   -->   2 G_2            
     e(  3 -  4) =    -35.36354  eV     2   -->   2 G_2            
     e(  5 -  6) =    -35.34208  eV     2   -->   2 G_2            
     e(  7 -  8) =    -35.33873  eV     2   -->   2 G_2            
     e(  9 - 10) =    -35.26173  eV     2   -->   2 G_2            
     e( 11 - 12) =    -35.22552  eV     2   -->   2 G_2            
     e( 13 - 14) =    -33.90697  eV     2   -->   2 G_2            
     e( 15 - 16) =    -33.90356  eV     2   -->   2 G_2            
     e( 17 - 18) =    -33.88592  eV     2   -->   2 G_2            
     e( 19 - 20) =    -33.88253  eV     2   -->   2 G_2            
     e( 21 - 22) =    -33.87461  eV     2   -->   2 G_2            
     e( 23 - 24) =    -33.87128  eV     2   -->   2 G_2            
     e( 25 - 26) =    -33.79918  eV     2   -->   2 G_2            
     e( 27 - 28) =    -33.78379  eV     2   -->   2 G_2            
     e( 29 - 30) =    -33.75224  eV     2   -->   2 G_2            
     e( 31 - 32) =    -27.98191  eV     2   -->   2 G_2            
     e( 33 - 34) =    -27.97978  eV     2   -->   2 G_2            
     e( 35 - 36) =    -27.97305  eV     2   -->   2 G_2            
     e( 37 - 38) =    -27.97096  eV     2   -->   2 G_2            
     e( 39 - 40) =    -26.74293  eV     2   -->   2 G_2            
     e( 41 - 42) =    -26.74080  eV     2   -->   2 G_2            
     e( 43 - 44) =    -26.73288  eV     2   -->   2 G_2            
     e( 45 - 46) =    -26.73169  eV     2   -->   2 G_2            
     e( 47 - 48) =    -26.73078  eV     2   -->   2 G_2            
     e( 49 - 50) =    -26.72959  eV     2   -->   2 G_2            
     e( 51 - 52) =    -10.55572  eV     2   -->   2 G_2            
     e( 53 - 54) =    -10.02014  eV     2   -->   2 G_2            
     e( 55 - 56) =     -8.93333  eV     2   -->   2 G_2            
     e( 57 - 58) =     -6.16591  eV     2   -->   2 G_2            
     e( 59 - 60) =     -4.74297  eV     2   -->   2 G_2            
     e( 61 - 61) =     -0.42406  eV     1   --> G_2            
     e( 62 - 62) =     -0.42364  eV     1   --> G_2            
     e( 63 - 63) =     -0.05840  eV     1   --> G_2            
     e( 64 - 64) =     -0.05663  eV     1   --> G_2            
     e( 65 - 65) =      0.35388  eV     1   --> G_2            
     e( 66 - 66) =      0.35770  eV     1   --> G_2            
     e( 67 - 67) =      0.45113  eV     1   --> G_2            
     e( 68 - 68) =      0.45966  eV     1   --> G_2            
     e( 69 - 69) =      0.59855  eV     1   --> G_2            
     e( 70 - 70) =      0.60497  eV     1   --> G_2            
     e( 71 - 71) =      0.90115  eV     1   --> G_2            
     e( 72 - 72) =      0.91354  eV     1   --> G_2            
     e( 73 - 73) =      1.17445  eV     1   --> G_2            
     e( 74 - 74) =      1.18121  eV     1   --> G_2            
     e( 75 - 75) =      1.39487  eV     1   --> G_2            
     e( 76 - 76) =      1.40037  eV     1   --> G_2            
     e( 77 - 77) =      1.79863  eV     1   --> G_2            
     e( 78 - 78) =      1.80196  eV     1   --> G_2            
     e( 79 - 79) =      2.51438  eV     1   --> G_2            
     e( 80 - 80) =      2.51761  eV     1   --> G_2            
     e( 81 - 81) =      2.99688  eV     1   --> G_2            
     e( 82 - 82) =      2.99759  eV     1   --> G_2            
     e( 83 - 83) =      3.16330  eV     1   --> G_2            
     e( 84 - 84) =      3.16632  eV     1   --> G_2            
     e( 85 - 85) =      3.64894  eV     1   --> G_2            
     e( 86 - 86) =      3.65410  eV     1   --> G_2            
     e( 87 - 87) =      4.32849  eV     1   --> G_2            
     e( 88 - 88) =      4.33114  eV     1   --> G_2            
     e( 89 - 89) =      4.42331  eV     1   --> G_2            
     e( 90 - 90) =      4.42610  eV     1   --> G_2            
     e( 91 - 92) =      6.36309  eV     2   -->   2 G_2            
     e( 93 - 93) =      6.53322  eV     1   --> G_2            
     e( 94 - 94) =      6.53333  eV     1   --> G_2            
     e( 95 - 96) =      7.08663  eV     2   -->   2 G_2            
     e( 97 - 97) =      7.69099  eV     1   --> G_2            
     e( 98 - 98) =      7.69117  eV     1   --> G_2            
     e( 99 - 99) =      7.77444  eV     1   --> G_2            
     e(100 -100) =      7.77471  eV     1   --> G_2            
     e(101 -101) =      7.93195  eV     1   --> G_2            
     e(102 -102) =      7.93210  eV     1   --> G_2            
     e(103 -104) =      8.65165  eV     2   -->   2 G_2            
     e(105 -105) =      8.74652  eV     1   --> G_2            
     e(106 -106) =      8.74718  eV     1   --> G_2            
     e(107 -107) =      8.90563  eV     1   --> G_2            
     e(108 -108) =      8.90636  eV     1   --> G_2            
     e(109 -109) =      9.17555  eV     1   --> G_2            
     e(110 -110) =      9.17596  eV     1   --> G_2            
     e(111 -111) =      9.23653  eV     1   --> G_2            
     e(112 -112) =      9.23677  eV     1   --> G_2            
     e(113 -113) =      9.91681  eV     1   --> G_2            
     e(114 -114) =      9.91723  eV     1   --> G_2            
     e(115 -115) =      9.95521  eV     1   --> G_2            
     e(116 -116) =      9.95583  eV     1   --> G_2            
     e(117 -117) =     10.23228  eV     1   --> G_2            
     e(118 -118) =     10.23248  eV     1   --> G_2            
     e(119 -119) =     10.42519  eV     1   --> G_2            
     e(120 -120) =     10.42535  eV     1   --> G_2            
     e(121 -121) =     10.82579  eV     1   --> G_2            
     e(122 -122) =     10.82600  eV     1   --> G_2            
     e(123 -123) =     11.18484  eV     1   --> G_2            
     e(124 -124) =     11.18780  eV     1   --> G_2            
     e(125 -125) =     11.24103  eV     1   --> G_2            
     e(126 -126) =     11.24474  eV     1   --> G_2            
     e(127 -127) =     11.54200  eV     1   --> G_2            
     e(128 -128) =     11.54228  eV     1   --> G_2            
     e(129 -129) =     12.02991  eV     1   --> G_2            
     e(130 -130) =     12.03211  eV     1   --> G_2            
     e(131 -131) =     12.19478  eV     1   --> G_2            
     e(132 -132) =     12.19657  eV     1   --> G_2            
     e(133 -133) =     12.91731  eV     1   --> G_2            
     e(134 -134) =     12.91744  eV     1   --> G_2            
     e(135 -136) =     13.06422  eV     2   -->   2 G_2            
     e(137 -137) =     13.84262  eV     1   --> G_2            
     e(138 -138) =     13.84372  eV     1   --> G_2            
     e(139 -139) =     13.94948  eV     1   --> G_2            
     e(140 -140) =     13.95014  eV     1   --> G_2            
     e(141 -141) =     14.44629  eV     1   --> G_2            
     e(142 -142) =     14.44684  eV     1   --> G_2            
     e(143 -143) =     14.68459  eV     1   --> G_2            
     e(144 -144) =     14.68507  eV     1   --> G_2            
     e(145 -145) =     14.84261  eV     1   --> G_2            
     e(146 -146) =     14.84296  eV     1   --> G_2            
     e(147 -147) =     15.25918  eV     1   --> G_2            
     e(148 -148) =     15.25933  eV     1   --> G_2            
     e(149 -149) =     15.80101  eV     1   --> G_2            
     e(150 -150) =     15.80129  eV     1   --> G_2            
     e(151 -151) =     15.87676  eV     1   --> G_2            
     e(152 -152) =     15.87688  eV     1   --> G_2            
     e(153 -153) =     16.11339  eV     1   --> G_2            
[...]
     e(155 -155) =     16.46545  eV     1   --> G_2            
     e(156 -156) =     16.46727  eV     1   --> G_2            
     e(157 -157) =     16.51275  eV     1   --> G_2            
     e(158 -158) =     16.51319  eV     1   --> G_2            
     e(159 -159) =     16.54089  eV     1   --> G_2            
     e(160 -160) =     16.54192  eV     1   --> G_2            
     e(161 -162) =     16.93116  eV     2   -->   2 G_2            
     e(163 -163) =     17.24583  eV     1   --> G_2            
     e(164 -164) =     17.24594  eV     1   --> G_2            
     e(165 -165) =     17.37443  eV     1   --> G_2            
     e(166 -166) =     17.37506  eV     1   --> G_2            
     e(167 -167) =     17.39584  eV     1   --> G_2            
     e(168 -168) =     17.39631  eV     1   --> G_2            
     e(169 -169) =     17.60343  eV     1   --> G_2            
     e(170 -170) =     17.60373  eV     1   --> G_2            
     e(171 -171) =     17.63316  eV     1   --> G_2            
     e(172 -172) =     17.63350  eV     1   --> G_2            
     e(173 -174) =     17.71443  eV     2   -->   2 G_2            
     e(175 -175) =     17.72663  eV     1   --> G_2            
     e(176 -176) =     17.72679  eV     1   --> G_2            
     e(177 -178) =     17.86214  eV     2   -->   2 G_2            
     e(179 -180) =     17.93891  eV     2   -->   2 G_2            
     e(181 -182) =     18.04631  eV     2   -->   2 G_2            
     e(183 -184) =     18.19792  eV     2   -->   2 G_2            
     e(185 -186) =     18.24036  eV     2   -->   2 G_2            
     e(187 -188) =     18.49265  eV     2   -->   2 G_2            
     e(189 -189) =     19.20910  eV     1   --> G_2            
     e(190 -190) =     19.20937  eV     1   --> G_2            
     e(191 -191) =     19.25815  eV     1   --> G_2            
     e(192 -192) =     19.25829  eV     1   --> G_2            
     e(193 -193) =     19.37632  eV     1   --> G_2            
     e(194 -194) =     19.37681  eV     1   --> G_2            
     e(195 -195) =     19.44975  eV     1   --> G_2            
     e(196 -196) =     19.44999  eV     1   --> G_2            
     e(197 -197) =     19.64312  eV     1   --> G_2            
     e(198 -198) =     19.64329  eV     1   --> G_2            
     e(199 -199) =     19.68483  eV     1   --> G_2            
     e(200 -200) =     19.68550  eV     1   --> G_2            

 **************************************************************************

 **************************************************************************

                    xk=(   0.00476,   0.00824,   0.00000  )

     Band symmetry, C_1 (1)     double point group:

     e(  1 -  2) =    -35.36695  eV     2   -->   2 G_2            
     e(  3 -  4) =    -35.36355  eV     2   -->   2 G_2            
     e(  5 -  6) =    -35.34208  eV     2   -->   2 G_2            
     e(  7 -  8) =    -35.33872  eV     2   -->   2 G_2            
     e(  9 - 10) =    -35.26173  eV     2   -->   2 G_2            
     e( 11 - 12) =    -35.22553  eV     2   -->   2 G_2            
     e( 13 - 14) =    -33.90699  eV     2   -->   2 G_2            
     e( 15 - 16) =    -33.90358  eV     2   -->   2 G_2            
     e( 17 - 18) =    -33.88592  eV     2   -->   2 G_2            
     e( 19 - 20) =    -33.88253  eV     2   -->   2 G_2            
     e( 21 - 22) =    -33.87461  eV     2   -->   2 G_2            
     e( 23 - 24) =    -33.87128  eV     2   -->   2 G_2            
     e( 25 - 26) =    -33.79918  eV     2   -->   2 G_2            
     e( 27 - 28) =    -33.78379  eV     2   -->   2 G_2            
     e( 29 - 30) =    -33.75226  eV     2   -->   2 G_2            
     e( 31 - 32) =    -27.98193  eV     2   -->   2 G_2            
     e( 33 - 34) =    -27.97980  eV     2   -->   2 G_2            
     e( 35 - 36) =    -27.97302  eV     2   -->   2 G_2            
     e( 37 - 38) =    -27.97093  eV     2   -->   2 G_2            
     e( 39 - 40) =    -26.74298  eV     2   -->   2 G_2            
     e( 41 - 42) =    -26.74084  eV     2   -->   2 G_2            
     e( 43 - 44) =    -26.73285  eV     2   -->   2 G_2            
     e( 45 - 46) =    -26.73168  eV     2   -->   2 G_2            
     e( 47 - 48) =    -26.73075  eV     2   -->   2 G_2            
     e( 49 - 50) =    -26.72958  eV     2   -->   2 G_2            
     e( 51 - 52) =    -10.57722  eV     2   -->   2 G_2            
     e( 53 - 54) =    -10.04001  eV     2   -->   2 G_2            
     e( 55 - 56) =     -8.94599  eV     2   -->   2 G_2            
     e( 57 - 58) =     -6.16469  eV     2   -->   2 G_2            
     e( 59 - 60) =     -4.70840  eV     2   -->   2 G_2            
     e( 61 - 62) =     -0.39360  eV     2   -->   2 G_2            
     e( 63 - 63) =      0.15299  eV     1   --> G_2            
     e( 64 - 64) =      0.15383  eV     1   --> G_2            
     e( 65 - 65) =      0.38864  eV     1   --> G_2            
     e( 66 - 66) =      0.38959  eV     1   --> G_2            
     e( 67 - 67) =      0.66283  eV     1   --> G_2            
     e( 68 - 68) =      0.66404  eV     1   --> G_2            
     e( 69 - 69) =      0.74226  eV     1   --> G_2            
     e( 70 - 70) =      0.74903  eV     1   --> G_2            
     e( 71 - 71) =      0.88505  eV     1   --> G_2            
     e( 72 - 72) =      0.89299  eV     1   --> G_2            
     e( 73 - 73) =      1.08496  eV     1   --> G_2            
     e( 74 - 74) =      1.08661  eV     1   --> G_2            
     e( 75 - 75) =      1.47114  eV     1   --> G_2            
     e( 76 - 76) =      1.47227  eV     1   --> G_2            
     e( 77 - 77) =      1.63615  eV     1   --> G_2            
     e( 78 - 78) =      1.63723  eV     1   --> G_2            
     e( 79 - 79) =      2.35895  eV     1   --> G_2            
     e( 80 - 80) =      2.35991  eV     1   --> G_2            
     e( 81 - 81) =      2.95342  eV     1   --> G_2            
     e( 82 - 82) =      2.95419  eV     1   --> G_2            
     e( 83 - 83) =      3.25346  eV     1   --> G_2            
     e( 84 - 84) =      3.25556  eV     1   --> G_2            
     e( 85 - 85) =      3.51581  eV     1   --> G_2            
     e( 86 - 86) =      3.51790  eV     1   --> G_2            
     e( 87 - 87) =      4.28686  eV     1   --> G_2            
     e( 88 - 88) =      4.28729  eV     1   --> G_2            
     e( 89 - 89) =      4.36141  eV     1   --> G_2            
     e( 90 - 90) =      4.36191  eV     1   --> G_2            
     e( 91 - 92) =      6.32385  eV     2   -->   2 G_2            
     e( 93 - 94) =      6.52308  eV     2   -->   2 G_2            
     e( 95 - 96) =      7.07789  eV     2   -->   2 G_2            
     e( 97 - 98) =      7.75622  eV     2   -->   2 G_2            
     e( 99 - 99) =      7.86561  eV     1   --> G_2            
     e(100 -100) =      7.86579  eV     1   --> G_2            
     e(101 -101) =      7.90006  eV     1   --> G_2            
     e(102 -102) =      7.90023  eV     1   --> G_2            
     e(103 -104) =      8.52780  eV     2   -->   2 G_2            
     e(105 -105) =      8.82009  eV     1   --> G_2            
     e(106 -106) =      8.82031  eV     1   --> G_2            
     e(107 -107) =      8.95760  eV     1   --> G_2            
     e(108 -108) =      8.95797  eV     1   --> G_2            
     e(109 -109) =      9.19501  eV     1   --> G_2            
     e(110 -110) =      9.19532  eV     1   --> G_2            
     e(111 -111) =      9.20117  eV     1   --> G_2            
     e(112 -112) =      9.20135  eV     1   --> G_2            
     e(113 -113) =      9.83926  eV     1   --> G_2            
     e(114 -114) =      9.83962  eV     1   --> G_2            
     e(115 -115) =      9.86131  eV     1   --> G_2            
     e(116 -116) =      9.86168  eV     1   --> G_2            
     e(117 -118) =     10.16870  eV     2   -->   2 G_2            
     e(119 -120) =     10.27916  eV     2   -->   2 G_2            
     e(121 -122) =     10.66801  eV     2   -->   2 G_2            
     e(123 -123) =     11.33092  eV     1   --> G_2            
     e(124 -124) =     11.33215  eV     1   --> G_2            
     e(125 -125) =     11.39535  eV     1   --> G_2            
     e(126 -126) =     11.39726  eV     1   --> G_2            
     e(127 -127) =     11.66659  eV     1   --> G_2            
     e(128 -128) =     11.66739  eV     1   --> G_2            
     e(129 -129) =     11.79456  eV     1   --> G_2            
     e(130 -130) =     11.79609  eV     1   --> G_2            
     e(131 -131) =     11.86668  eV     1   --> G_2            
     e(132 -132) =     11.86833  eV     1   --> G_2            
     e(133 -134) =     12.91438  eV     2   -->   2 G_2            
     e(135 -136) =     12.99548  eV     2   -->   2 G_2            
     e(137 -137) =     14.17477  eV     1   --> G_2            
     e(138 -138) =     14.17668  eV     1   --> G_2            
     e(139 -139) =     14.19887  eV     1   --> G_2            
     e(140 -140) =     14.20192  eV     1   --> G_2            
     e(141 -141) =     14.39962  eV     1   --> G_2            
     e(142 -142) =     14.40253  eV     1   --> G_2            
     e(143 -143) =     14.46755  eV     1   --> G_2            
     e(144 -144) =     14.46928  eV     1   --> G_2            
     e(145 -146) =     14.55301  eV     2   -->   2 G_2            
     e(147 -148) =     15.28224  eV     2   -->   2 G_2            
     e(149 -149) =     16.07647  eV     1   --> G_2            
     e(150 -150) =     16.07731  eV     1   --> G_2            
     e(151 -151) =     16.12427  eV     1   --> G_2            
     e(152 -152) =     16.12575  eV     1   --> G_2            
     e(153 -153) =     16.18852  eV     1   --> G_2            
     e(154 -154) =     16.18878  eV     1   --> G_2            
     e(155 -155) =     16.43109  eV     1   --> G_2            
     e(156 -156) =     16.43280  eV     1   --> G_2            
     e(157 -157) =     16.49045  eV     1   --> G_2            
     e(158 -158) =     16.49163  eV     1   --> G_2            
     e(159 -159) =     16.51774  eV     1   --> G_2            
     e(160 -160) =     16.51785  eV     1   --> G_2            
     e(161 -162) =     16.89863  eV     2   -->   2 G_2            
     e(163 -163) =     17.35049  eV     1   --> G_2            
     e(164 -164) =     17.35066  eV     1   --> G_2            
     e(165 -166) =     17.41028  eV     2   -->   2 G_2            
     e(167 -167) =     17.47302  eV     1   --> G_2            
     e(168 -168) =     17.47330  eV     1   --> G_2            
     e(169 -169) =     17.61299  eV     1   --> G_2            
     e(170 -170) =     17.61320  eV     1   --> G_2            
     e(171 -171) =     17.67761  eV     1   --> G_2            
     e(172 -172) =     17.67813  eV     1   --> G_2            
     e(173 -173) =     17.71194  eV     1   --> G_2            
     e(174 -174) =     17.71217  eV     1   --> G_2            
     e(175 -175) =     17.76432  eV     1   --> G_2            
     e(176 -176) =     17.76444  eV     1   --> G_2            
     e(177 -178) =     17.83242  eV     2   -->   2 G_2            
     e(179 -179) =     17.93232  eV     1   --> G_2            
     e(180 -180) =     17.93243  eV     1   --> G_2            
     e(181 -182) =     17.98937  eV     2   -->   2 G_2            
     e(183 -184) =     18.05198  eV     2   -->   2 G_2            
     e(185 -186) =     18.17132  eV     2   -->   2 G_2            
     e(187 -188) =     18.43167  eV     2   -->   2 G_2            
     e(189 -189) =     19.31707  eV     1   --> G_2            
     e(190 -190) =     19.31749  eV     1   --> G_2            
     e(191 -191) =     19.36610  eV     1   --> G_2            
     e(192 -192) =     19.36628  eV     1   --> G_2            
     e(193 -193) =     19.43208  eV     1   --> G_2            
     e(194 -194) =     19.43273  eV     1   --> G_2            
     e(195 -195) =     19.50138  eV     1   --> G_2            
     e(196 -196) =     19.50169  eV     1   --> G_2            
     e(197 -197) =     19.59012  eV     1   --> G_2            
     e(198 -198) =     19.59040  eV     1   --> G_2            
     e(199 -199) =     19.69544  eV     1   --> G_2            
     e(200 -200) =     19.69596  eV     1   --> G_2            

 **************************************************************************

 **************************************************************************

                    xk=(   0.00000,   0.00000,   0.00000  )

     Band symmetry, C_1 (1)     double point group:

     e(  1 -  2) =    -35.36695  eV     2   -->   2 G_2            
     e(  3 -  4) =    -35.36355  eV     2   -->   2 G_2            
     e(  5 -  6) =    -35.34208  eV     2   -->   2 G_2            
     e(  7 -  8) =    -35.33872  eV     2   -->   2 G_2            
     e(  9 - 10) =    -35.26173  eV     2   -->   2 G_2            
     e( 11 - 12) =    -35.22553  eV     2   -->   2 G_2            
     e( 13 - 14) =    -33.90699  eV     2   -->   2 G_2            
     e( 15 - 16) =    -33.90359  eV     2   -->   2 G_2            
     e( 17 - 18) =    -33.88592  eV     2   -->   2 G_2            
     e( 19 - 20) =    -33.88253  eV     2   -->   2 G_2            
     e( 21 - 22) =    -33.87461  eV     2   -->   2 G_2            
     e( 23 - 24) =    -33.87128  eV     2   -->   2 G_2            
     e( 25 - 26) =    -33.79918  eV     2   -->   2 G_2            
     e( 27 - 28) =    -33.78379  eV     2   -->   2 G_2            
     e( 29 - 30) =    -33.75226  eV     2   -->   2 G_2            
     e( 31 - 32) =    -27.98193  eV     2   -->   2 G_2            
     e( 33 - 34) =    -27.97980  eV     2   -->   2 G_2            
     e( 35 - 36) =    -27.97301  eV     2   -->   2 G_2            
     e( 37 - 38) =    -27.97092  eV     2   -->   2 G_2            
     e( 39 - 40) =    -26.74298  eV     2   -->   2 G_2            
     e( 41 - 42) =    -26.74084  eV     2   -->   2 G_2            
     e( 43 - 44) =    -26.73285  eV     2   -->   2 G_2            
     e( 45 - 46) =    -26.73167  eV     2   -->   2 G_2            
     e( 47 - 48) =    -26.73075  eV     2   -->   2 G_2            
     e( 49 - 50) =    -26.72958  eV     2   -->   2 G_2            
     e( 51 - 52) =    -10.57782  eV     2   -->   2 G_2            
     e( 53 - 54) =    -10.04057  eV     2   -->   2 G_2            
     e( 55 - 56) =     -8.94634  eV     2   -->   2 G_2            
     e( 57 - 58) =     -6.16466  eV     2   -->   2 G_2            
     e( 59 - 60) =     -4.70743  eV     2   -->   2 G_2            
     e( 61 - 62) =     -0.39280  eV     2   -->   2 G_2            
     e( 63 - 64) =      0.16129  eV     2   -->   2 G_2            
     e( 65 - 66) =      0.38804  eV     2   -->   2 G_2            
     e( 67 - 68) =      0.66641  eV     2   -->   2 G_2            
     e( 69 - 70) =      0.76502  eV     2   -->   2 G_2            
     e( 71 - 72) =      0.87831  eV     2   -->   2 G_2            
     e( 73 - 74) =      1.08040  eV     2   -->   2 G_2            
     e( 75 - 76) =      1.47719  eV     2   -->   2 G_2            
     e( 77 - 78) =      1.63104  eV     2   -->   2 G_2            
     e( 79 - 80) =      2.35205  eV     2   -->   2 G_2            
     e( 81 - 82) =      2.95263  eV     2   -->   2 G_2            
     e( 83 - 84) =      3.26255  eV     2   -->   2 G_2            
     e( 85 - 86) =      3.50889  eV     2   -->   2 G_2            
     e( 87 - 88) =      4.28322  eV     2   -->   2 G_2            
     e( 89 - 90) =      4.36244  eV     2   -->   2 G_2            
     e( 91 - 92) =      6.32273  eV     2   -->   2 G_2            
     e( 93 - 94) =      6.52279  eV     2   -->   2 G_2            
     e( 95 - 96) =      7.07754  eV     2   -->   2 G_2            
     e( 97 - 98) =      7.75621  eV     2   -->   2 G_2            
     e( 99 -100) =      7.86900  eV     2   -->   2 G_2            
     e(101 -102) =      7.90198  eV     2   -->   2 G_2            
     e(103 -104) =      8.52277  eV     2   -->   2 G_2            
     e(105 -106) =      8.82103  eV     2   -->   2 G_2            
     e(107 -108) =      8.96054  eV     2   -->   2 G_2            
     e(109 -110) =      9.19624  eV     2   -->   2 G_2            
     e(111 -112) =      9.20214  eV     2   -->   2 G_2            
     e(113 -114) =      9.83458  eV     2   -->   2 G_2            
     e(115 -116) =      9.85706  eV     2   -->   2 G_2            
     e(117 -118) =     10.16924  eV     2   -->   2 G_2            
     e(119 -120) =     10.27473  eV     2   -->   2 G_2            
     e(121 -122) =     10.66368  eV     2   -->   2 G_2            
     e(123 -124) =     11.33536  eV     2   -->   2 G_2            
     e(125 -126) =     11.40280  eV     2   -->   2 G_2            
     e(127 -128) =     11.69590  eV     2   -->   2 G_2            
     e(129 -130) =     11.77232  eV     2   -->   2 G_2            
     e(131 -132) =     11.84708  eV     2   -->   2 G_2            
     e(133 -134) =     12.91442  eV     2   -->   2 G_2            
     e(135 -136) =     12.99350  eV     2   -->   2 G_2            
     e(137 -138) =     14.19196  eV     2   -->   2 G_2            
     e(139 -140) =     14.22309  eV     2   -->   2 G_2            
     e(141 -142) =     14.38533  eV     2   -->   2 G_2            
     e(143 -144) =     14.45992  eV     2   -->   2 G_2            
     e(145 -146) =     14.54100  eV     2   -->   2 G_2            
     e(147 -148) =     15.27620  eV     2   -->   2 G_2            
     e(149 -150) =     16.09317  eV     2   -->   2 G_2            
     e(151 -152) =     16.14945  eV     2   -->   2 G_2            
     e(153 -154) =     16.19673  eV     2   -->   2 G_2            
     e(155 -156) =     16.41216  eV     2   -->   2 G_2            
     e(157 -158) =     16.47807  eV     2   -->   2 G_2            
     e(159 -160) =     16.51349  eV     2   -->   2 G_2            
     e(161 -162) =     16.88775  eV     2   -->   2 G_2            
     e(163 -164) =     17.36513  eV     2   -->   2 G_2            
     e(165 -166) =     17.49046  eV     2   -->   2 G_2            
     e(167 -168) =     17.52064  eV     2   -->   2 G_2            
     e(169 -170) =     17.55111  eV     2   -->   2 G_2            
     e(171 -172) =     17.65838  eV     2   -->   2 G_2            
     e(173 -174) =     17.68446  eV     2   -->   2 G_2            
     e(175 -176) =     17.88536  eV     2   -->   2 G_2            
     e(177 -178) =     17.89316  eV     2   -->   2 G_2            
     e(179 -180) =     17.90674  eV     2   -->   2 G_2            
     e(181 -182) =     17.93371  eV     2   -->   2 G_2            
     e(183 -184) =     17.94424  eV     2   -->   2 G_2            
     e(185 -186) =     18.14644  eV     2   -->   2 G_2            
     e(187 -188) =     18.41005  eV     2   -->   2 G_2            
     e(189 -190) =     19.36363  eV     2   -->   2 G_2            
     e(191 -192) =     19.43836  eV     2   -->   2 G_2            
     e(193 -194) =     19.47705  eV     2   -->   2 G_2            
     e(195 -196) =     19.50546  eV     2   -->   2 G_2            
     e(197 -198) =     19.50970  eV     2   -->   2 G_2            
     e(199 -200) =     19.71506  eV     2   -->   2 G_2            

 **************************************************************************

     BANDS        :      1h 3m CPU      1h 2m WALL


   This run was terminated on:  15:48: 6  22Aug2025            

=------------------------------------------------------------------------------=
   JOB DONE.
=------------------------------------------------------------------------------=
