
     Program BANDS v.7.4.1 starts on 22Aug2025 at 20:53:42 

     This program is part of the open-source Quantum ESPRESSO suite
     for quantum simulation of materials; please cite
         "P. Giannozzi et al., J. Phys.:Condens. Matter 21 395502 (2009);
         "P. Giannozzi et al., J. Phys.:Condens. Matter 29 465901 (2017);
         "P. Giannozzi et al., J. Chem. Phys. 152 154105 (2020);
          URL http://www.quantum-espresso.org", 
     in publications or presentations arising from this work. More details at
     http://www.quantum-espresso.org/quote

     Parallel version (MPI & OpenMP), running on      48 processor cores
     Number of MPI processes:                24
     Threads/MPI process:                     2

     MPI processes distributed on     2 nodes
     R & G space division:  proc/nbgrp/npool/nimage =      24
     100151 MiB available memory on the printing compute node when the environment starts


     Reading xml data from directory:

     tmp/Sb2Te3-uatsx-c6-soc-1.0.save/
     file Sb.rel-pbe-n-rrkjus_psl.1.0.0.UPF: wavefunction(s)  5S renormalized
     file Te.rel-pbe-n-rrkjus_psl.1.0.0.UPF: wavefunction(s)  5S renormalized

     IMPORTANT: XC functional enforced from input :
     Exchange-correlation= PBE
                           (   1   4   3   4   0   0   0)
     Any further DFT definition will be discarded
     Please, verify this is what you really want


     Parallelization info
     --------------------
     sticks:   dense  smooth     PW     G-vecs:    dense   smooth      PW
     Min          96      38     10                19112     4832     726
     Max          97      39     11                19125     4855     757
     Sum        2311     925    261               458817   116185   17833

     Using Slab Decomposition


     negative rho (up, down):  3.910E-06 0.000E+00
     Reading collected, re-writing distributed wavefunctions
     high-symmetry point:  0.0000 0.0000 0.0000   x coordinate   0.0000
     high-symmetry point:  0.5000 0.2887 0.0000   x coordinate   0.5774
     high-symmetry point:  0.3333 0.5812 0.0000   x coordinate   0.9140
     high-symmetry point:  0.0000 0.0000 0.0000   x coordinate   1.5840

     Plottable bands (eV) written to file ./bands/Sb2Te3-uatsx-c6-soc-1.0.bands.gnu
     Bands written to file ./bands/Sb2Te3-uatsx-c6-soc-1.0.bands

 **************************************************************************

                    xk=(   0.00000,   0.00000,   0.00000  )

     double point group C_1 (1)    
     there are  2 classes and  1 irreducible representations
     the character table:

       E     -E   
                  
G_2    1.00 -1.00

     the symmetry operations in each class and the name of the first element:

     E             1
                                                                 
     -E           -1
                                                                 

     Band symmetry, C_1 (1)     double point group:

     e(  1 -  2) =    -12.56155  eV     2   -->   2 G_2            
     e(  3 -  4) =    -12.04133  eV     2   -->   2 G_2            
     e(  5 -  6) =    -10.94779  eV     2   -->   2 G_2            
     e(  7 -  8) =     -8.19840  eV     2   -->   2 G_2            
     e(  9 - 10) =     -6.78278  eV     2   -->   2 G_2            
     e( 11 - 12) =     -2.41879  eV     2   -->   2 G_2            
     e( 13 - 14) =     -1.90725  eV     2   -->   2 G_2            
     e( 15 - 16) =     -1.65300  eV     2   -->   2 G_2            
     e( 17 - 18) =     -1.38129  eV     2   -->   2 G_2            
     e( 19 - 20) =     -1.29899  eV     2   -->   2 G_2            
     e( 21 - 22) =     -1.19357  eV     2   -->   2 G_2            
     e( 23 - 24) =     -0.97347  eV     2   -->   2 G_2            
     e( 25 - 26) =     -0.58817  eV     2   -->   2 G_2            
     e( 27 - 28) =     -0.45402  eV     2   -->   2 G_2            
     e( 29 - 30) =      0.25883  eV     2   -->   2 G_2            
     e( 31 - 32) =      0.87064  eV     2   -->   2 G_2            
     e( 33 - 34) =      1.19439  eV     2   -->   2 G_2            
     e( 35 - 36) =      1.42881  eV     2   -->   2 G_2            
     e( 37 - 38) =      2.19183  eV     2   -->   2 G_2            
     e( 39 - 40) =      2.29360  eV     2   -->   2 G_2            
     e( 41 - 42) =      4.26040  eV     2   -->   2 G_2            
     e( 43 - 44) =      4.46242  eV     2   -->   2 G_2            
     e( 45 - 46) =      5.03062  eV     2   -->   2 G_2            
     e( 47 - 48) =      5.66311  eV     2   -->   2 G_2            
     e( 49 - 50) =      5.74897  eV     2   -->   2 G_2            
     e( 51 - 52) =      5.89620  eV     2   -->   2 G_2            
     e( 53 - 54) =      6.48282  eV     2   -->   2 G_2            
     e( 55 - 56) =      6.73510  eV     2   -->   2 G_2            
     e( 57 - 58) =      6.87643  eV     2   -->   2 G_2            
     e( 59 - 60) =      7.05833  eV     2   -->   2 G_2            
     e( 61 - 62) =      7.20423  eV     2   -->   2 G_2            
     e( 63 - 64) =      7.74647  eV     2   -->   2 G_2            
     e( 65 - 66) =      7.80510  eV     2   -->   2 G_2            
     e( 67 - 68) =      8.10846  eV     2   -->   2 G_2            
     e( 69 - 70) =      8.20812  eV     2   -->   2 G_2            
     e( 71 - 72) =      8.63470  eV     2   -->   2 G_2            
     e( 73 - 74) =      9.22824  eV     2   -->   2 G_2            
     e( 75 - 76) =      9.38490  eV     2   -->   2 G_2            
     e( 77 - 78) =      9.59467  eV     2   -->   2 G_2            
     e( 79 - 80) =      9.67995  eV     2   -->   2 G_2            
     e( 81 - 82) =      9.78289  eV     2   -->   2 G_2            
     e( 83 - 84) =     10.88646  eV     2   -->   2 G_2            
     e( 85 - 86) =     10.94034  eV     2   -->   2 G_2            
     e( 87 - 88) =     12.07695  eV     2   -->   2 G_2            
     e( 89 - 90) =     12.21582  eV     2   -->   2 G_2            
     e( 91 - 92) =     12.29414  eV     2   -->   2 G_2            
     e( 93 - 94) =     12.38800  eV     2   -->   2 G_2            
     e( 95 - 96) =     12.47795  eV     2   -->   2 G_2            
     e( 97 - 98) =     13.17691  eV     2   -->   2 G_2            
     e( 99 -100) =     13.95024  eV     2   -->   2 G_2            

 **************************************************************************

 **************************************************************************

                    xk=(   0.00714,   0.00412,   0.00000  )

     Band symmetry, C_1 (1)     double point group:

     e(  1 -  2) =    -12.56111  eV     2   -->   2 G_2            
     e(  3 -  4) =    -12.04093  eV     2   -->   2 G_2            
     e(  5 -  6) =    -10.94754  eV     2   -->   2 G_2            
     e(  7 -  8) =     -8.19844  eV     2   -->   2 G_2            
     e(  9 - 10) =     -6.78352  eV     2   -->   2 G_2            
     e( 11 - 12) =     -2.41944  eV     2   -->   2 G_2            
     e( 13 - 13) =     -1.91324  eV     1   --> G_2            
     e( 14 - 14) =     -1.91305  eV     1   --> G_2            
     e( 15 - 15) =     -1.65238  eV     1   --> G_2            
     e( 16 - 16) =     -1.65200  eV     1   --> G_2            
     e( 17 - 17) =     -1.38389  eV     1   --> G_2            
     e( 18 - 18) =     -1.38349  eV     1   --> G_2            
     e( 19 - 19) =     -1.31598  eV     1   --> G_2            
     e( 20 - 20) =     -1.31317  eV     1   --> G_2            
     e( 21 - 21) =     -1.18525  eV     1   --> G_2            
     e( 22 - 22) =     -1.18194  eV     1   --> G_2            
     e( 23 - 23) =     -0.97002  eV     1   --> G_2            
     e( 24 - 24) =     -0.96940  eV     1   --> G_2            
     e( 25 - 25) =     -0.59226  eV     1   --> G_2            
     e( 26 - 26) =     -0.59181  eV     1   --> G_2            
     e( 27 - 27) =     -0.45036  eV     1   --> G_2            
     e( 28 - 28) =     -0.44999  eV     1   --> G_2            
     e( 29 - 29) =      0.26457  eV     1   --> G_2            
     e( 30 - 30) =      0.26492  eV     1   --> G_2            
     e( 31 - 31) =      0.87076  eV     1   --> G_2            
     e( 32 - 32) =      0.87108  eV     1   --> G_2            
     e( 33 - 33) =      1.18808  eV     1   --> G_2            
     e( 34 - 34) =      1.18885  eV     1   --> G_2            
     e( 35 - 35) =      1.43466  eV     1   --> G_2            
     e( 36 - 36) =      1.43546  eV     1   --> G_2            
     e( 37 - 37) =      2.19439  eV     1   --> G_2            
     e( 38 - 38) =      2.19456  eV     1   --> G_2            
     e( 39 - 39) =      2.29303  eV     1   --> G_2            
     e( 40 - 40) =      2.29317  eV     1   --> G_2            
     e( 41 - 42) =      4.26122  eV     2   -->   2 G_2            
     e( 43 - 44) =      4.46263  eV     2   -->   2 G_2            
     e( 45 - 46) =      5.03091  eV     2   -->   2 G_2            
     e( 47 - 48) =      5.66302  eV     2   -->   2 G_2            
     e( 49 - 50) =      5.74543  eV     2   -->   2 G_2            
     e( 51 - 52) =      5.89663  eV     2   -->   2 G_2            
     e( 53 - 54) =      6.48601  eV     2   -->   2 G_2            
     e( 55 - 56) =      6.73442  eV     2   -->   2 G_2            
     e( 57 - 58) =      6.87442  eV     2   -->   2 G_2            
     e( 59 - 60) =      7.05778  eV     2   -->   2 G_2            
     e( 61 - 62) =      7.20324  eV     2   -->   2 G_2            
     e( 63 - 64) =      7.75169  eV     2   -->   2 G_2            
     e( 65 - 66) =      7.80754  eV     2   -->   2 G_2            
     e( 67 - 68) =      8.10761  eV     2   -->   2 G_2            
     e( 69 - 70) =      8.21108  eV     2   -->   2 G_2            
     e( 71 - 72) =      8.63748  eV     2   -->   2 G_2            
     e( 73 - 73) =      9.22637  eV     1   --> G_2            
     e( 74 - 74) =      9.22654  eV     1   --> G_2            
     e( 75 - 75) =      9.37887  eV     1   --> G_2            
     e( 76 - 76) =      9.37948  eV     1   --> G_2            
     e( 77 - 77) =      9.56930  eV     1   --> G_2            
     e( 78 - 78) =      9.56995  eV     1   --> G_2            
     e( 79 - 79) =      9.70634  eV     1   --> G_2            
     e( 80 - 80) =      9.70699  eV     1   --> G_2            
     e( 81 - 81) =      9.79204  eV     1   --> G_2            
     e( 82 - 82) =      9.79262  eV     1   --> G_2            
     e( 83 - 84) =     10.88617  eV     2   -->   2 G_2            
     e( 85 - 86) =     10.94174  eV     2   -->   2 G_2            
     e( 87 - 88) =     12.06146  eV     2   -->   2 G_2            
     e( 89 - 89) =     12.19594  eV     1   --> G_2            
     e( 90 - 90) =     12.19675  eV     1   --> G_2            
     e( 91 - 91) =     12.31020  eV     1   --> G_2            
     e( 92 - 92) =     12.31170  eV     1   --> G_2            
     e( 93 - 93) =     12.39918  eV     1   --> G_2            
     e( 94 - 94) =     12.39991  eV     1   --> G_2            
     e( 95 - 96) =     12.48291  eV     2   -->   2 G_2            
     e( 97 - 98) =     13.18092  eV     2   -->   2 G_2            
     e( 99 -100) =     13.93054  eV     2   -->   2 G_2            

 **************************************************************************

 **************************************************************************

                    xk=(   0.01429,   0.00825,   0.00000  )

     Band symmetry, C_1 (1)     double point group:

     e(  1 -  2) =    -12.55979  eV     2   -->   2 G_2            
     e(  3 -  4) =    -12.03972  eV     2   -->   2 G_2            
     e(  5 -  6) =    -10.94678  eV     2   -->   2 G_2            
     e(  7 -  8) =     -8.19858  eV     2   -->   2 G_2            
     e(  9 - 10) =     -6.78574  eV     2   -->   2 G_2            
     e( 11 - 12) =     -2.42137  eV     2   -->   2 G_2            
     e( 13 - 13) =     -1.93035  eV     1   --> G_2            
     e( 14 - 14) =     -1.92999  eV     1   --> G_2            
     e( 15 - 15) =     -1.65077  eV     1   --> G_2            
     e( 16 - 16) =     -1.65005  eV     1   --> G_2            
     e( 17 - 17) =     -1.39277  eV     1   --> G_2            
     e( 18 - 18) =     -1.39182  eV     1   --> G_2            
     e( 19 - 19) =     -1.34994  eV     1   --> G_2            
     e( 20 - 20) =     -1.34640  eV     1   --> G_2            
     e( 21 - 21) =     -1.16746  eV     1   --> G_2            
     e( 22 - 22) =     -1.16277  eV     1   --> G_2            
     e( 23 - 23) =     -0.95935  eV     1   --> G_2            
     e( 24 - 24) =     -0.95818  eV     1   --> G_2            
     e( 25 - 25) =     -0.60366  eV     1   --> G_2            
     e( 26 - 26) =     -0.60278  eV     1   --> G_2            
     e( 27 - 27) =     -0.43881  eV     1   --> G_2            
     e( 28 - 28) =     -0.43810  eV     1   --> G_2            
     e( 29 - 29) =      0.28139  eV     1   --> G_2            
     e( 30 - 30) =      0.28207  eV     1   --> G_2            
     e( 31 - 31) =      0.87138  eV     1   --> G_2            
     e( 32 - 32) =      0.87200  eV     1   --> G_2            
     e( 33 - 33) =      1.17236  eV     1   --> G_2            
     e( 34 - 34) =      1.17371  eV     1   --> G_2            
     e( 35 - 35) =      1.45103  eV     1   --> G_2            
     e( 36 - 36) =      1.45242  eV     1   --> G_2            
     e( 37 - 37) =      2.20209  eV     1   --> G_2            
     e( 38 - 38) =      2.20243  eV     1   --> G_2            
     e( 39 - 39) =      2.29160  eV     1   --> G_2            
     e( 40 - 40) =      2.29187  eV     1   --> G_2            
     e( 41 - 42) =      4.26367  eV     2   -->   2 G_2            
     e( 43 - 44) =      4.46323  eV     2   -->   2 G_2            
     e( 45 - 46) =      5.03175  eV     2   -->   2 G_2            
     e( 47 - 48) =      5.66259  eV     2   -->   2 G_2            
     e( 49 - 50) =      5.73510  eV     2   -->   2 G_2            
     e( 51 - 52) =      5.89812  eV     2   -->   2 G_2            
     e( 53 - 54) =      6.49526  eV     2   -->   2 G_2            
     e( 55 - 56) =      6.73221  eV     2   -->   2 G_2            
     e( 57 - 58) =      6.86832  eV     2   -->   2 G_2            
     e( 59 - 60) =      7.05698  eV     2   -->   2 G_2            
     e( 61 - 61) =      7.20056  eV     1   --> G_2            
     e( 62 - 62) =      7.20069  eV     1   --> G_2            
     e( 63 - 63) =      7.76641  eV     1   --> G_2            
     e( 64 - 64) =      7.76658  eV     1   --> G_2            
     e( 65 - 65) =      7.81485  eV     1   --> G_2            
     e( 66 - 66) =      7.81497  eV     1   --> G_2            
     e( 67 - 68) =      8.10548  eV     2   -->   2 G_2            
     e( 69 - 70) =      8.21990  eV     2   -->   2 G_2            
     e( 71 - 72) =      8.64587  eV     2   -->   2 G_2            
     e( 73 - 73) =      9.22035  eV     1   --> G_2            
     e( 74 - 74) =      9.22069  eV     1   --> G_2            
     e( 75 - 75) =      9.36261  eV     1   --> G_2            
     e( 76 - 76) =      9.36369  eV     1   --> G_2            
     e( 77 - 77) =      9.52787  eV     1   --> G_2            
     e( 78 - 78) =      9.52867  eV     1   --> G_2            
     e( 79 - 79) =      9.75185  eV     1   --> G_2            
     e( 80 - 80) =      9.75302  eV     1   --> G_2            
     e( 81 - 81) =      9.81996  eV     1   --> G_2            
     e( 82 - 82) =      9.82113  eV     1   --> G_2            
     e( 83 - 84) =     10.88539  eV     2   -->   2 G_2            
     e( 85 - 86) =     10.94587  eV     2   -->   2 G_2            
     e( 87 - 87) =     12.02195  eV     1   --> G_2            
     e( 88 - 88) =     12.02206  eV     1   --> G_2            
     e( 89 - 89) =     12.15764  eV     1   --> G_2            
     e( 90 - 90) =     12.15827  eV     1   --> G_2            
     e( 91 - 91) =     12.33765  eV     1   --> G_2            
     e( 92 - 92) =     12.33919  eV     1   --> G_2            
     e( 93 - 93) =     12.42771  eV     1   --> G_2            
     e( 94 - 94) =     12.42858  eV     1   --> G_2            
     e( 95 - 96) =     12.50034  eV     2   -->   2 G_2            
     e( 97 - 98) =     13.19156  eV     2   -->   2 G_2            
     e( 99 -100) =     13.87882  eV     2   -->   2 G_2            

 **************************************************************************

 **************************************************************************

                    xk=(   0.02143,   0.01237,   0.00000  )

     Band symmetry, C_1 (1)     double point group:

     e(  1 -  2) =    -12.55759  eV     2   -->   2 G_2            
     e(  3 -  4) =    -12.03770  eV     2   -->   2 G_2            
     e(  5 -  6) =    -10.94553  eV     2   -->   2 G_2            
     e(  7 -  8) =     -8.19881  eV     2   -->   2 G_2            
     e(  9 - 10) =     -6.78943  eV     2   -->   2 G_2            
     e( 11 - 12) =     -2.42461  eV     2   -->   2 G_2            
     e( 13 - 13) =     -1.95702  eV     1   --> G_2            
     e( 14 - 14) =     -1.95656  eV     1   --> G_2            
     e( 15 - 15) =     -1.64971  eV     1   --> G_2            
     e( 16 - 16) =     -1.64870  eV     1   --> G_2            
     e( 17 - 17) =     -1.41731  eV     1   --> G_2            
     e( 18 - 18) =     -1.41476  eV     1   --> G_2            
     e( 19 - 19) =     -1.37964  eV     1   --> G_2            
     e( 20 - 20) =     -1.37708  eV     1   --> G_2            
     e( 21 - 21) =     -1.15206  eV     1   --> G_2            
     e( 22 - 22) =     -1.14687  eV     1   --> G_2            
     e( 23 - 23) =     -0.94275  eV     1   --> G_2            
     e( 24 - 24) =     -0.94112  eV     1   --> G_2            
     e( 25 - 25) =     -0.62064  eV     1   --> G_2            
     e( 26 - 26) =     -0.61936  eV     1   --> G_2            
     e( 27 - 27) =     -0.41946  eV     1   --> G_2            
     e( 28 - 28) =     -0.41844  eV     1   --> G_2            
     e( 29 - 29) =      0.30723  eV     1   --> G_2            
     e( 30 - 30) =      0.30821  eV     1   --> G_2            
     e( 31 - 31) =      0.87244  eV     1   --> G_2            
     e( 32 - 32) =      0.87331  eV     1   --> G_2            
     e( 33 - 33) =      1.15219  eV     1   --> G_2            
     e( 34 - 34) =      1.15385  eV     1   --> G_2            
     e( 35 - 35) =      1.47376  eV     1   --> G_2            
     e( 36 - 36) =      1.47552  eV     1   --> G_2            
     e( 37 - 37) =      2.21444  eV     1   --> G_2            
     e( 38 - 38) =      2.21490  eV     1   --> G_2            
     e( 39 - 39) =      2.28978  eV     1   --> G_2            
     e( 40 - 40) =      2.29016  eV     1   --> G_2            
     e( 41 - 42) =      4.26774  eV     2   -->   2 G_2            
     e( 43 - 44) =      4.46424  eV     2   -->   2 G_2            
     e( 45 - 46) =      5.03309  eV     2   -->   2 G_2            
     e( 47 - 48) =      5.66113  eV     2   -->   2 G_2            
     e( 49 - 50) =      5.71912  eV     2   -->   2 G_2            
     e( 51 - 52) =      5.90111  eV     2   -->   2 G_2            
     e( 53 - 54) =      6.50971  eV     2   -->   2 G_2            
     e( 55 - 56) =      6.72773  eV     2   -->   2 G_2            
     e( 57 - 57) =      6.85833  eV     1   --> G_2            
     e( 58 - 58) =      6.85843  eV     1   --> G_2            
     e( 59 - 60) =      7.05789  eV     2   -->   2 G_2            
     e( 61 - 61) =      7.19670  eV     1   --> G_2            
     e( 62 - 62) =      7.19686  eV     1   --> G_2            
     e( 63 - 63) =      7.78779  eV     1   --> G_2            
     e( 64 - 64) =      7.78801  eV     1   --> G_2            
     e( 65 - 65) =      7.82690  eV     1   --> G_2            
     e( 66 - 66) =      7.82710  eV     1   --> G_2            
     e( 67 - 68) =      8.10322  eV     2   -->   2 G_2            
     e( 69 - 70) =      8.23447  eV     2   -->   2 G_2            
     e( 71 - 72) =      8.65997  eV     2   -->   2 G_2            
     e( 73 - 73) =      9.20864  eV     1   --> G_2            
     e( 74 - 74) =      9.20910  eV     1   --> G_2            
     e( 75 - 75) =      9.33910  eV     1   --> G_2            
     e( 76 - 76) =      9.34041  eV     1   --> G_2            
     e( 77 - 77) =      9.49025  eV     1   --> G_2            
     e( 78 - 78) =      9.49100  eV     1   --> G_2            
     e( 79 - 79) =      9.79705  eV     1   --> G_2            
     e( 80 - 80) =      9.79856  eV     1   --> G_2            
     e( 81 - 81) =      9.86464  eV     1   --> G_2            
     e( 82 - 82) =      9.86612  eV     1   --> G_2            
     e( 83 - 84) =     10.88426  eV     2   -->   2 G_2            
     e( 85 - 86) =     10.95259  eV     2   -->   2 G_2            
     e( 87 - 87) =     11.96946  eV     1   --> G_2            
     e( 88 - 88) =     11.96965  eV     1   --> G_2            
     e( 89 - 89) =     12.11426  eV     1   --> G_2            
     e( 90 - 90) =     12.11466  eV     1   --> G_2            
     e( 91 - 91) =     12.35738  eV     1   --> G_2            
     e( 92 - 92) =     12.35849  eV     1   --> G_2            
     e( 93 - 93) =     12.46541  eV     1   --> G_2            
     e( 94 - 94) =     12.46599  eV     1   --> G_2            
     e( 95 - 96) =     12.53331  eV     2   -->   2 G_2            
     e( 97 - 98) =     13.20445  eV     2   -->   2 G_2            
     e( 99 -100) =     13.81258  eV     2   -->   2 G_2            

 **************************************************************************

 **************************************************************************

                    xk=(   0.02857,   0.01650,   0.00000  )

     Band symmetry, C_1 (1)     double point group:

     e(  1 -  2) =    -12.55452  eV     2   -->   2 G_2            
     e(  3 -  4) =    -12.03488  eV     2   -->   2 G_2            
     e(  5 -  6) =    -10.94378  eV     2   -->   2 G_2            
     e(  7 -  8) =     -8.19913  eV     2   -->   2 G_2            
     e(  9 - 10) =     -6.79459  eV     2   -->   2 G_2            
     e( 11 - 12) =     -2.42925  eV     2   -->   2 G_2            
     e( 13 - 13) =     -1.99152  eV     1   --> G_2            
     e( 14 - 14) =     -1.99100  eV     1   --> G_2            
     e( 15 - 15) =     -1.65089  eV     1   --> G_2            
     e( 16 - 16) =     -1.64964  eV     1   --> G_2            
     e( 17 - 17) =     -1.46134  eV     1   --> G_2            
     e( 18 - 18) =     -1.45777  eV     1   --> G_2            
     e( 19 - 19) =     -1.39617  eV     1   --> G_2            
     e( 20 - 20) =     -1.39414  eV     1   --> G_2            
     e( 21 - 21) =     -1.14260  eV     1   --> G_2            
     e( 22 - 22) =     -1.13727  eV     1   --> G_2            
     e( 23 - 23) =     -0.92292  eV     1   --> G_2            
     e( 24 - 24) =     -0.92090  eV     1   --> G_2            
     e( 25 - 25) =     -0.63978  eV     1   --> G_2            
     e( 26 - 26) =     -0.63810  eV     1   --> G_2            
     e( 27 - 27) =     -0.39324  eV     1   --> G_2            
     e( 28 - 28) =     -0.39199  eV     1   --> G_2            
     e( 29 - 29) =      0.33921  eV     1   --> G_2            
     e( 30 - 30) =      0.34043  eV     1   --> G_2            
     e( 31 - 31) =      0.87392  eV     1   --> G_2            
     e( 32 - 32) =      0.87492  eV     1   --> G_2            
     e( 33 - 33) =      1.13224  eV     1   --> G_2            
     e( 34 - 34) =      1.13401  eV     1   --> G_2            
     e( 35 - 35) =      1.49933  eV     1   --> G_2            
     e( 36 - 36) =      1.50129  eV     1   --> G_2            
     e( 37 - 37) =      2.23006  eV     1   --> G_2            
     e( 38 - 38) =      2.23058  eV     1   --> G_2            
     e( 39 - 39) =      2.28889  eV     1   --> G_2            
     e( 40 - 40) =      2.28931  eV     1   --> G_2            
     e( 41 - 42) =      4.27339  eV     2   -->   2 G_2            
     e( 43 - 44) =      4.46565  eV     2   -->   2 G_2            
     e( 45 - 46) =      5.03481  eV     2   -->   2 G_2            
     e( 47 - 48) =      5.65628  eV     2   -->   2 G_2            
     e( 49 - 49) =      5.70070  eV     1   --> G_2            
     e( 50 - 50) =      5.70081  eV     1   --> G_2            
     e( 51 - 52) =      5.90600  eV     2   -->   2 G_2            
     e( 53 - 54) =      6.52815  eV     2   -->   2 G_2            
     e( 55 - 56) =      6.71956  eV     2   -->   2 G_2            
     e( 57 - 57) =      6.84597  eV     1   --> G_2            
     e( 58 - 58) =      6.84609  eV     1   --> G_2            
     e( 59 - 60) =      7.06230  eV     2   -->   2 G_2            
     e( 61 - 61) =      7.19225  eV     1   --> G_2            
     e( 62 - 62) =      7.19241  eV     1   --> G_2            
     e( 63 - 63) =      7.81168  eV     1   --> G_2            
     e( 64 - 64) =      7.81191  eV     1   --> G_2            
     e( 65 - 65) =      7.84336  eV     1   --> G_2            
     e( 66 - 66) =      7.84366  eV     1   --> G_2            
     e( 67 - 68) =      8.10295  eV     2   -->   2 G_2            
     e( 69 - 70) =      8.25466  eV     2   -->   2 G_2            
     e( 71 - 72) =      8.67995  eV     2   -->   2 G_2            
     e( 73 - 73) =      9.18921  eV     1   --> G_2            
     e( 74 - 74) =      9.18973  eV     1   --> G_2            
     e( 75 - 75) =      9.31209  eV     1   --> G_2            
     e( 76 - 76) =      9.31338  eV     1   --> G_2            
     e( 77 - 77) =      9.46120  eV     1   --> G_2            
     e( 78 - 78) =      9.46175  eV     1   --> G_2            
     e( 79 - 79) =      9.84161  eV     1   --> G_2            
     e( 80 - 80) =      9.84314  eV     1   --> G_2            
     e( 81 - 81) =      9.91968  eV     1   --> G_2            
     e( 82 - 82) =      9.92114  eV     1   --> G_2            
     e( 83 - 84) =     10.88294  eV     2   -->   2 G_2            
     e( 85 - 86) =     10.96176  eV     2   -->   2 G_2            
     e( 87 - 87) =     11.91099  eV     1   --> G_2            
     e( 88 - 88) =     11.91123  eV     1   --> G_2            
     e( 89 - 89) =     12.06933  eV     1   --> G_2            
     e( 90 - 90) =     12.06959  eV     1   --> G_2            
     e( 91 - 91) =     12.36702  eV     1   --> G_2            
     e( 92 - 92) =     12.36774  eV     1   --> G_2            
     e( 93 - 93) =     12.50825  eV     1   --> G_2            
     e( 94 - 94) =     12.50854  eV     1   --> G_2            
     e( 95 - 96) =     12.57868  eV     2   -->   2 G_2            
     e( 97 - 98) =     13.21195  eV     2   -->   2 G_2            
     e( 99 -100) =     13.74898  eV     2   -->   2 G_2            

 **************************************************************************

 **************************************************************************

                    xk=(   0.03571,   0.02062,   0.00000  )

     Band symmetry, C_1 (1)     double point group:

     e(  1 -  2) =    -12.55056  eV     2   -->   2 G_2            
     e(  3 -  4) =    -12.03125  eV     2   -->   2 G_2            
     e(  5 -  6) =    -10.94154  eV     2   -->   2 G_2            
     e(  7 -  8) =     -8.19956  eV     2   -->   2 G_2            
     e(  9 - 10) =     -6.80123  eV     2   -->   2 G_2            
     e( 11 - 11) =     -2.43538  eV     1   --> G_2            
     e( 12 - 12) =     -2.43526  eV     1   --> G_2            
     e( 13 - 13) =     -2.03233  eV     1   --> G_2            
     e( 14 - 14) =     -2.03179  eV     1   --> G_2            
     e( 15 - 15) =     -1.65567  eV     1   --> G_2            
     e( 16 - 16) =     -1.65424  eV     1   --> G_2            
     e( 17 - 17) =     -1.51180  eV     1   --> G_2            
     e( 18 - 18) =     -1.50802  eV     1   --> G_2            
     e( 19 - 19) =     -1.40979  eV     1   --> G_2            
     e( 20 - 20) =     -1.40772  eV     1   --> G_2            
     e( 21 - 21) =     -1.13967  eV     1   --> G_2            
     e( 22 - 22) =     -1.13439  eV     1   --> G_2            
     e( 23 - 23) =     -0.90365  eV     1   --> G_2            
     e( 24 - 24) =     -0.90127  eV     1   --> G_2            
     e( 25 - 25) =     -0.65627  eV     1   --> G_2            
     e( 26 - 26) =     -0.65423  eV     1   --> G_2            
     e( 27 - 27) =     -0.36182  eV     1   --> G_2            
     e( 28 - 28) =     -0.36045  eV     1   --> G_2            
     e( 29 - 29) =      0.37408  eV     1   --> G_2            
     e( 30 - 30) =      0.37547  eV     1   --> G_2            
     e( 31 - 31) =      0.87612  eV     1   --> G_2            
     e( 32 - 32) =      0.87710  eV     1   --> G_2            
     e( 33 - 33) =      1.11618  eV     1   --> G_2            
     e( 34 - 34) =      1.11786  eV     1   --> G_2            
     e( 35 - 35) =      1.52551  eV     1   --> G_2            
     e( 36 - 36) =      1.52756  eV     1   --> G_2            
     e( 37 - 37) =      2.24503  eV     1   --> G_2            
     e( 38 - 38) =      2.24559  eV     1   --> G_2            
     e( 39 - 39) =      2.29269  eV     1   --> G_2            
     e( 40 - 40) =      2.29310  eV     1   --> G_2            
     e( 41 - 42) =      4.28060  eV     2   -->   2 G_2            
     e( 43 - 44) =      4.46743  eV     2   -->   2 G_2            
     e( 45 - 46) =      5.03677  eV     2   -->   2 G_2            
     e( 47 - 48) =      5.64207  eV     2   -->   2 G_2            
     e( 49 - 49) =      5.68702  eV     1   --> G_2            
     e( 50 - 50) =      5.68713  eV     1   --> G_2            
     e( 51 - 52) =      5.91296  eV     2   -->   2 G_2            
     e( 53 - 54) =      6.54925  eV     2   -->   2 G_2            
     e( 55 - 55) =      6.70585  eV     1   --> G_2            
     e( 56 - 56) =      6.70597  eV     1   --> G_2            
     e( 57 - 57) =      6.83424  eV     1   --> G_2            
     e( 58 - 58) =      6.83437  eV     1   --> G_2            
     e( 59 - 60) =      7.07097  eV     2   -->   2 G_2            
     e( 61 - 61) =      7.18779  eV     1   --> G_2            
     e( 62 - 62) =      7.18794  eV     1   --> G_2            
     e( 63 - 63) =      7.83371  eV     1   --> G_2            
     e( 64 - 64) =      7.83394  eV     1   --> G_2            
     e( 65 - 65) =      7.86311  eV     1   --> G_2            
     e( 66 - 66) =      7.86347  eV     1   --> G_2            
     e( 67 - 68) =      8.10783  eV     2   -->   2 G_2            
     e( 69 - 70) =      8.28026  eV     2   -->   2 G_2            
     e( 71 - 72) =      8.70593  eV     2   -->   2 G_2            
     e( 73 - 73) =      9.16103  eV     1   --> G_2            
     e( 74 - 74) =      9.16156  eV     1   --> G_2            
     e( 75 - 75) =      9.28487  eV     1   --> G_2            
     e( 76 - 76) =      9.28600  eV     1   --> G_2            
     e( 77 - 77) =      9.44175  eV     1   --> G_2            
     e( 78 - 78) =      9.44206  eV     1   --> G_2            
     e( 79 - 79) =      9.88760  eV     1   --> G_2            
     e( 80 - 80) =      9.88907  eV     1   --> G_2            
     e( 81 - 81) =      9.97889  eV     1   --> G_2            
     e( 82 - 82) =      9.98024  eV     1   --> G_2            
     e( 83 - 84) =     10.88155  eV     2   -->   2 G_2            
     e( 85 - 86) =     10.97325  eV     2   -->   2 G_2            
     e( 87 - 87) =     11.85031  eV     1   --> G_2            
     e( 88 - 88) =     11.85059  eV     1   --> G_2            
     e( 89 - 89) =     12.02427  eV     1   --> G_2            
     e( 90 - 90) =     12.02446  eV     1   --> G_2            
     e( 91 - 91) =     12.37146  eV     1   --> G_2            
     e( 92 - 92) =     12.37194  eV     1   --> G_2            
     e( 93 - 93) =     12.55322  eV     1   --> G_2            
     e( 94 - 94) =     12.55343  eV     1   --> G_2            
     e( 95 - 95) =     12.63061  eV     1   --> G_2            
     e( 96 - 96) =     12.63076  eV     1   --> G_2            
     e( 97 - 98) =     13.20387  eV     2   -->   2 G_2            
     e( 99 -100) =     13.70177  eV     2   -->   2 G_2            

 **************************************************************************

 **************************************************************************

                    xk=(   0.04286,   0.02474,   0.00000  )

     Band symmetry, C_1 (1)     double point group:

     e(  1 -  2) =    -12.54573  eV     2   -->   2 G_2            
     e(  3 -  4) =    -12.02682  eV     2   -->   2 G_2            
     e(  5 -  6) =    -10.93880  eV     2   -->   2 G_2            
     e(  7 -  8) =     -8.20011  eV     2   -->   2 G_2            
     e(  9 - 10) =     -6.80936  eV     2   -->   2 G_2            
     e( 11 - 11) =     -2.44314  eV     1   --> G_2            
     e( 12 - 12) =     -2.44299  eV     1   --> G_2            
     e( 13 - 13) =     -2.07824  eV     1   --> G_2            
     e( 14 - 14) =     -2.07771  eV     1   --> G_2            
     e( 15 - 15) =     -1.66506  eV     1   --> G_2            
     e( 16 - 16) =     -1.66356  eV     1   --> G_2            
     e( 17 - 17) =     -1.56357  eV     1   --> G_2            
     e( 18 - 18) =     -1.55984  eV     1   --> G_2            
     e( 19 - 19) =     -1.42374  eV     1   --> G_2            
     e( 20 - 20) =     -1.42158  eV     1   --> G_2            
     e( 21 - 21) =     -1.14336  eV     1   --> G_2            
     e( 22 - 22) =     -1.13827  eV     1   --> G_2            
     e( 23 - 23) =     -0.88883  eV     1   --> G_2            
     e( 24 - 24) =     -0.88620  eV     1   --> G_2            
     e( 25 - 25) =     -0.66473  eV     1   --> G_2            
     e( 26 - 26) =     -0.66247  eV     1   --> G_2            
     e( 27 - 27) =     -0.32723  eV     1   --> G_2            
     e( 28 - 28) =     -0.32582  eV     1   --> G_2            
     e( 29 - 29) =      0.40852  eV     1   --> G_2            
     e( 30 - 30) =      0.41002  eV     1   --> G_2            
     e( 31 - 31) =      0.87996  eV     1   --> G_2            
     e( 32 - 32) =      0.88070  eV     1   --> G_2            
     e( 33 - 33) =      1.10660  eV     1   --> G_2            
     e( 34 - 34) =      1.10802  eV     1   --> G_2            
     e( 35 - 35) =      1.55105  eV     1   --> G_2            
     e( 36 - 36) =      1.55312  eV     1   --> G_2            
     e( 37 - 37) =      2.25241  eV     1   --> G_2            
     e( 38 - 38) =      2.25326  eV     1   --> G_2            
     e( 39 - 39) =      2.30766  eV     1   --> G_2            
     e( 40 - 40) =      2.30832  eV     1   --> G_2            
     e( 41 - 42) =      4.28930  eV     2   -->   2 G_2            
     e( 43 - 44) =      4.46957  eV     2   -->   2 G_2            
     e( 45 - 46) =      5.03873  eV     2   -->   2 G_2            
     e( 47 - 48) =      5.61622  eV     2   -->   2 G_2            
     e( 49 - 50) =      5.68167  eV     2   -->   2 G_2            
     e( 51 - 52) =      5.92201  eV     2   -->   2 G_2            
     e( 53 - 54) =      6.57154  eV     2   -->   2 G_2            
     e( 55 - 55) =      6.68569  eV     1   --> G_2            
     e( 56 - 56) =      6.68581  eV     1   --> G_2            
     e( 57 - 57) =      6.82612  eV     1   --> G_2            
     e( 58 - 58) =      6.82625  eV     1   --> G_2            
     e( 59 - 60) =      7.08369  eV     2   -->   2 G_2            
     e( 61 - 61) =      7.18393  eV     1   --> G_2            
     e( 62 - 62) =      7.18405  eV     1   --> G_2            
     e( 63 - 63) =      7.85005  eV     1   --> G_2            
     e( 64 - 64) =      7.85020  eV     1   --> G_2            
     e( 65 - 65) =      7.88445  eV     1   --> G_2            
     e( 66 - 66) =      7.88476  eV     1   --> G_2            
     e( 67 - 68) =      8.12161  eV     2   -->   2 G_2            
     e( 69 - 70) =      8.31091  eV     2   -->   2 G_2            
     e( 71 - 72) =      8.73798  eV     2   -->   2 G_2            
     e( 73 - 73) =      9.12549  eV     1   --> G_2            
     e( 74 - 74) =      9.12597  eV     1   --> G_2            
     e( 75 - 75) =      9.25922  eV     1   --> G_2            
     e( 76 - 76) =      9.26017  eV     1   --> G_2            
     e( 77 - 77) =      9.43086  eV     1   --> G_2            
     e( 78 - 78) =      9.43103  eV     1   --> G_2            
     e( 79 - 79) =      9.93560  eV     1   --> G_2            
     e( 80 - 80) =      9.93699  eV     1   --> G_2            
     e( 81 - 81) =     10.03891  eV     1   --> G_2            
     e( 82 - 82) =     10.04015  eV     1   --> G_2            
     e( 83 - 84) =     10.88021  eV     2   -->   2 G_2            
     e( 85 - 86) =     10.98693  eV     2   -->   2 G_2            
     e( 87 - 87) =     11.78978  eV     1   --> G_2            
     e( 88 - 88) =     11.79007  eV     1   --> G_2            
     e( 89 - 89) =     11.97987  eV     1   --> G_2            
     e( 90 - 90) =     11.98004  eV     1   --> G_2            
     e( 91 - 91) =     12.37521  eV     1   --> G_2            
     e( 92 - 92) =     12.37556  eV     1   --> G_2            
     e( 93 - 93) =     12.59792  eV     1   --> G_2            
     e( 94 - 94) =     12.59819  eV     1   --> G_2            
     e( 95 - 95) =     12.68446  eV     1   --> G_2            
     e( 96 - 96) =     12.68467  eV     1   --> G_2            
     e( 97 - 98) =     13.17256  eV     2   -->   2 G_2            
     e( 99 -100) =     13.67893  eV     2   -->   2 G_2            

 **************************************************************************

 **************************************************************************

                    xk=(   0.05000,   0.02887,   0.00000  )

     Band symmetry, C_1 (1)     double point group:

     e(  1 -  2) =    -12.54003  eV     2   -->   2 G_2            
     e(  3 -  4) =    -12.02159  eV     2   -->   2 G_2            
     e(  5 -  6) =    -10.93558  eV     2   -->   2 G_2            
     e(  7 -  8) =     -8.20078  eV     2   -->   2 G_2            
     e(  9 - 10) =     -6.81896  eV     2   -->   2 G_2            
     e( 11 - 11) =     -2.45275  eV     1   --> G_2            
     e( 12 - 12) =     -2.45258  eV     1   --> G_2            
     e( 13 - 13) =     -2.12823  eV     1   --> G_2            
     e( 14 - 14) =     -2.12772  eV     1   --> G_2            
     e( 15 - 15) =     -1.68035  eV     1   --> G_2            
     e( 16 - 16) =     -1.67898  eV     1   --> G_2            
     e( 17 - 17) =     -1.61387  eV     1   --> G_2            
     e( 18 - 18) =     -1.61051  eV     1   --> G_2            
     e( 19 - 19) =     -1.43868  eV     1   --> G_2            
     e( 20 - 20) =     -1.43647  eV     1   --> G_2            
     e( 21 - 21) =     -1.15393  eV     1   --> G_2            
     e( 22 - 22) =     -1.14914  eV     1   --> G_2            
     e( 23 - 23) =     -0.88074  eV     1   --> G_2            
     e( 24 - 24) =     -0.87805  eV     1   --> G_2            
     e( 25 - 25) =     -0.66128  eV     1   --> G_2            
     e( 26 - 26) =     -0.65901  eV     1   --> G_2            
     e( 27 - 27) =     -0.29167  eV     1   --> G_2            
     e( 28 - 28) =     -0.29029  eV     1   --> G_2            
     e( 29 - 29) =      0.43954  eV     1   --> G_2            
     e( 30 - 30) =      0.44105  eV     1   --> G_2            
     e( 31 - 31) =      0.88707  eV     1   --> G_2            
     e( 32 - 32) =      0.88742  eV     1   --> G_2            
     e( 33 - 33) =      1.10497  eV     1   --> G_2            
     e( 34 - 34) =      1.10601  eV     1   --> G_2            
     e( 35 - 35) =      1.57537  eV     1   --> G_2            
     e( 36 - 36) =      1.57742  eV     1   --> G_2            
     e( 37 - 37) =      2.25220  eV     1   --> G_2            
     e( 38 - 38) =      2.25332  eV     1   --> G_2            
     e( 39 - 39) =      2.33385  eV     1   --> G_2            
     e( 40 - 40) =      2.33472  eV     1   --> G_2            
     e( 41 - 42) =      4.29943  eV     2   -->   2 G_2            
     e( 43 - 44) =      4.47205  eV     2   -->   2 G_2            
     e( 45 - 46) =      5.04038  eV     2   -->   2 G_2            
     e( 47 - 48) =      5.58427  eV     2   -->   2 G_2            
     e( 49 - 50) =      5.68044  eV     2   -->   2 G_2            
     e( 51 - 52) =      5.93312  eV     2   -->   2 G_2            
     e( 53 - 54) =      6.59275  eV     2   -->   2 G_2            
     e( 55 - 55) =      6.66109  eV     1   --> G_2            
     e( 56 - 56) =      6.66123  eV     1   --> G_2            
     e( 57 - 57) =      6.82257  eV     1   --> G_2            
     e( 58 - 58) =      6.82270  eV     1   --> G_2            
     e( 59 - 60) =      7.09970  eV     2   -->   2 G_2            
     e( 61 - 62) =      7.18133  eV     2   -->   2 G_2            
     e( 63 - 64) =      7.85681  eV     2   -->   2 G_2            
     e( 65 - 65) =      7.90744  eV     1   --> G_2            
     e( 66 - 66) =      7.90759  eV     1   --> G_2            
     e( 67 - 68) =      8.14678  eV     2   -->   2 G_2            
     e( 69 - 70) =      8.34599  eV     2   -->   2 G_2            
     e( 71 - 72) =      8.77600  eV     2   -->   2 G_2            
     e( 73 - 73) =      9.08573  eV     1   --> G_2            
     e( 74 - 74) =      9.08614  eV     1   --> G_2            
     e( 75 - 75) =      9.23562  eV     1   --> G_2            
     e( 76 - 76) =      9.23643  eV     1   --> G_2            
     e( 77 - 77) =      9.42653  eV     1   --> G_2            
     e( 78 - 78) =      9.42670  eV     1   --> G_2            
     e( 79 - 79) =      9.98536  eV     1   --> G_2            
     e( 80 - 80) =      9.98668  eV     1   --> G_2            
     e( 81 - 81) =     10.09790  eV     1   --> G_2            
     e( 82 - 82) =     10.09906  eV     1   --> G_2            
     e( 83 - 84) =     10.87904  eV     2   -->   2 G_2            
     e( 85 - 86) =     11.00258  eV     2   -->   2 G_2            
     e( 87 - 87) =     11.73119  eV     1   --> G_2            
     e( 88 - 88) =     11.73148  eV     1   --> G_2            
     e( 89 - 89) =     11.93667  eV     1   --> G_2            
     e( 90 - 90) =     11.93682  eV     1   --> G_2            
     e( 91 - 91) =     12.38095  eV     1   --> G_2            
     e( 92 - 92) =     12.38122  eV     1   --> G_2            
     e( 93 - 93) =     12.64062  eV     1   --> G_2            
     e( 94 - 94) =     12.64099  eV     1   --> G_2            
     e( 95 - 95) =     12.73553  eV     1   --> G_2            
     e( 96 - 96) =     12.73583  eV     1   --> G_2            
     e( 97 - 98) =     13.12070  eV     2   -->   2 G_2            
     e( 99 -100) =     13.67699  eV     2   -->   2 G_2            

 **************************************************************************

 **************************************************************************

                    xk=(   0.05714,   0.03299,   0.00000  )

     Band symmetry, C_1 (1)     double point group:

     e(  1 -  2) =    -12.53345  eV     2   -->   2 G_2            
     e(  3 -  4) =    -12.01556  eV     2   -->   2 G_2            
     e(  5 -  6) =    -10.93187  eV     2   -->   2 G_2            
     e(  7 -  8) =     -8.20159  eV     2   -->   2 G_2            
     e(  9 - 10) =     -6.83004  eV     2   -->   2 G_2            
     e( 11 - 11) =     -2.46456  eV     1   --> G_2            
     e( 12 - 12) =     -2.46436  eV     1   --> G_2            
     e( 13 - 13) =     -2.18134  eV     1   --> G_2            
     e( 14 - 14) =     -2.18086  eV     1   --> G_2            
     e( 15 - 15) =     -1.70539  eV     1   --> G_2            
     e( 16 - 16) =     -1.70399  eV     1   --> G_2            
     e( 17 - 17) =     -1.65782  eV     1   --> G_2            
     e( 18 - 18) =     -1.65561  eV     1   --> G_2            
     e( 19 - 19) =     -1.45500  eV     1   --> G_2            
     e( 20 - 20) =     -1.45280  eV     1   --> G_2            
     e( 21 - 21) =     -1.17144  eV     1   --> G_2            
     e( 22 - 22) =     -1.16708  eV     1   --> G_2            
     e( 23 - 23) =     -0.87826  eV     1   --> G_2            
     e( 24 - 24) =     -0.87571  eV     1   --> G_2            
     e( 25 - 25) =     -0.64582  eV     1   --> G_2            
     e( 26 - 26) =     -0.64374  eV     1   --> G_2            
     e( 27 - 27) =     -0.25743  eV     1   --> G_2            
     e( 28 - 28) =     -0.25613  eV     1   --> G_2            
     e( 29 - 29) =      0.46503  eV     1   --> G_2            
     e( 30 - 30) =      0.46647  eV     1   --> G_2            
     e( 31 - 31) =      0.89902  eV     1   --> G_2            
     e( 32 - 32) =      0.89953  eV     1   --> G_2            
     e( 33 - 33) =      1.11170  eV     1   --> G_2            
     e( 34 - 34) =      1.11235  eV     1   --> G_2            
     e( 35 - 35) =      1.59828  eV     1   --> G_2            
     e( 36 - 36) =      1.60027  eV     1   --> G_2            
     e( 37 - 37) =      2.24914  eV     1   --> G_2            
     e( 38 - 38) =      2.25044  eV     1   --> G_2            
     e( 39 - 39) =      2.36641  eV     1   --> G_2            
     e( 40 - 40) =      2.36736  eV     1   --> G_2            
     e( 41 - 42) =      4.31094  eV     2   -->   2 G_2            
     e( 43 - 44) =      4.47482  eV     2   -->   2 G_2            
     e( 45 - 46) =      5.04132  eV     2   -->   2 G_2            
     e( 47 - 48) =      5.55022  eV     2   -->   2 G_2            
     e( 49 - 50) =      5.68066  eV     2   -->   2 G_2            
     e( 51 - 52) =      5.94618  eV     2   -->   2 G_2            
     e( 53 - 54) =      6.60310  eV     2   -->   2 G_2            
     e( 55 - 55) =      6.64333  eV     1   --> G_2            
     e( 56 - 56) =      6.64350  eV     1   --> G_2            
     e( 57 - 57) =      6.82269  eV     1   --> G_2            
     e( 58 - 58) =      6.82282  eV     1   --> G_2            
     e( 59 - 60) =      7.11783  eV     2   -->   2 G_2            
     e( 61 - 62) =      7.18108  eV     2   -->   2 G_2            
     e( 63 - 63) =      7.85293  eV     1   --> G_2            
     e( 64 - 64) =      7.85304  eV     1   --> G_2            
     e( 65 - 66) =      7.93260  eV     2   -->   2 G_2            
     e( 67 - 68) =      8.18300  eV     2   -->   2 G_2            
     e( 69 - 70) =      8.38460  eV     2   -->   2 G_2            
     e( 71 - 72) =      8.81944  eV     2   -->   2 G_2            
     e( 73 - 73) =      9.04527  eV     1   --> G_2            
     e( 74 - 74) =      9.04559  eV     1   --> G_2            
     e( 75 - 75) =      9.21438  eV     1   --> G_2            
     e( 76 - 76) =      9.21504  eV     1   --> G_2            
     e( 77 - 77) =      9.42676  eV     1   --> G_2            
     e( 78 - 78) =      9.42697  eV     1   --> G_2            
     e( 79 - 79) =     10.03640  eV     1   --> G_2            
     e( 80 - 80) =     10.03766  eV     1   --> G_2            
     e( 81 - 81) =     10.15462  eV     1   --> G_2            
     e( 82 - 82) =     10.15570  eV     1   --> G_2            
     e( 83 - 84) =     10.87825  eV     2   -->   2 G_2            
     e( 85 - 86) =     11.01981  eV     2   -->   2 G_2            
     e( 87 - 87) =     11.67622  eV     1   --> G_2            
     e( 88 - 88) =     11.67651  eV     1   --> G_2            
     e( 89 - 89) =     11.89511  eV     1   --> G_2            
     e( 90 - 90) =     11.89525  eV     1   --> G_2            
     e( 91 - 91) =     12.39009  eV     1   --> G_2            
     e( 92 - 92) =     12.39032  eV     1   --> G_2            
     e( 93 - 93) =     12.67964  eV     1   --> G_2            
     e( 94 - 94) =     12.68017  eV     1   --> G_2            
     e( 95 - 95) =     12.77494  eV     1   --> G_2            
     e( 96 - 96) =     12.77541  eV     1   --> G_2            
     e( 97 - 98) =     13.06356  eV     2   -->   2 G_2            
     e( 99 -100) =     13.68201  eV     2   -->   2 G_2            

 **************************************************************************

 **************************************************************************

                    xk=(   0.06429,   0.03712,   0.00000  )

     Band symmetry, C_1 (1)     double point group:

     e(  1 -  2) =    -12.52600  eV     2   -->   2 G_2            
     e(  3 -  4) =    -12.00874  eV     2   -->   2 G_2            
     e(  5 -  6) =    -10.92768  eV     2   -->   2 G_2            
     e(  7 -  8) =     -8.20256  eV     2   -->   2 G_2            
     e(  9 - 10) =     -6.84260  eV     2   -->   2 G_2            
     e( 11 - 11) =     -2.47909  eV     1   --> G_2            
     e( 12 - 12) =     -2.47885  eV     1   --> G_2            
     e( 13 - 13) =     -2.23649  eV     1   --> G_2            
     e( 14 - 14) =     -2.23604  eV     1   --> G_2            
     e( 15 - 15) =     -1.74543  eV     1   --> G_2            
     e( 16 - 16) =     -1.74271  eV     1   --> G_2            
     e( 17 - 17) =     -1.69041  eV     1   --> G_2            
     e( 18 - 18) =     -1.68900  eV     1   --> G_2            
     e( 19 - 19) =     -1.47314  eV     1   --> G_2            
     e( 20 - 20) =     -1.47102  eV     1   --> G_2            
     e( 21 - 21) =     -1.19529  eV     1   --> G_2            
     e( 22 - 22) =     -1.19147  eV     1   --> G_2            
     e( 23 - 23) =     -0.87816  eV     1   --> G_2            
     e( 24 - 24) =     -0.87586  eV     1   --> G_2            
     e( 25 - 25) =     -0.62141  eV     1   --> G_2            
     e( 26 - 26) =     -0.61955  eV     1   --> G_2            
     e( 27 - 27) =     -0.22689  eV     1   --> G_2            
     e( 28 - 28) =     -0.22570  eV     1   --> G_2            
     e( 29 - 29) =      0.48462  eV     1   --> G_2            
     e( 30 - 30) =      0.48592  eV     1   --> G_2            
     e( 31 - 31) =      0.91700  eV     1   --> G_2            
     e( 32 - 32) =      0.91817  eV     1   --> G_2            
     e( 33 - 33) =      1.12637  eV     1   --> G_2            
     e( 34 - 34) =      1.12698  eV     1   --> G_2            
     e( 35 - 35) =      1.61992  eV     1   --> G_2            
     e( 36 - 36) =      1.62181  eV     1   --> G_2            
     e( 37 - 37) =      2.24569  eV     1   --> G_2            
     e( 38 - 38) =      2.24712  eV     1   --> G_2            
     e( 39 - 39) =      2.40259  eV     1   --> G_2            
     e( 40 - 40) =      2.40357  eV     1   --> G_2            
     e( 41 - 42) =      4.32374  eV     2   -->   2 G_2            
     e( 43 - 44) =      4.47783  eV     2   -->   2 G_2            
     e( 45 - 46) =      5.04103  eV     2   -->   2 G_2            
     e( 47 - 48) =      5.51627  eV     2   -->   2 G_2            
     e( 49 - 50) =      5.68145  eV     2   -->   2 G_2            
     e( 51 - 52) =      5.96113  eV     2   -->   2 G_2            
     e( 53 - 54) =      6.58349  eV     2   -->   2 G_2            
     e( 55 - 55) =      6.65344  eV     1   --> G_2            
     e( 56 - 56) =      6.65356  eV     1   --> G_2            
     e( 57 - 57) =      6.82495  eV     1   --> G_2            
     e( 58 - 58) =      6.82507  eV     1   --> G_2            
     e( 59 - 60) =      7.13594  eV     2   -->   2 G_2            
     e( 61 - 62) =      7.18534  eV     2   -->   2 G_2            
     e( 63 - 63) =      7.84085  eV     1   --> G_2            
     e( 64 - 64) =      7.84096  eV     1   --> G_2            
     e( 65 - 66) =      7.95940  eV     2   -->   2 G_2            
     e( 67 - 68) =      8.22803  eV     2   -->   2 G_2            
     e( 69 - 70) =      8.42559  eV     2   -->   2 G_2            
     e( 71 - 71) =      8.86629  eV     1   --> G_2            
     e( 72 - 72) =      8.86640  eV     1   --> G_2            
     e( 73 - 73) =      9.00839  eV     1   --> G_2            
     e( 74 - 74) =      9.00859  eV     1   --> G_2            
     e( 75 - 75) =      9.19598  eV     1   --> G_2            
     e( 76 - 76) =      9.19651  eV     1   --> G_2            
     e( 77 - 77) =      9.42989  eV     1   --> G_2            
     e( 78 - 78) =      9.43011  eV     1   --> G_2            
     e( 79 - 79) =     10.08820  eV     1   --> G_2            
     e( 80 - 80) =     10.08941  eV     1   --> G_2            
     e( 81 - 81) =     10.20803  eV     1   --> G_2            
     e( 82 - 82) =     10.20905  eV     1   --> G_2            
     e( 83 - 84) =     10.87810  eV     2   -->   2 G_2            
     e( 85 - 86) =     11.03797  eV     2   -->   2 G_2            
     e( 87 - 87) =     11.62668  eV     1   --> G_2            
     e( 88 - 88) =     11.62696  eV     1   --> G_2            
     e( 89 - 89) =     11.85561  eV     1   --> G_2            
     e( 90 - 90) =     11.85574  eV     1   --> G_2            
     e( 91 - 91) =     12.40306  eV     1   --> G_2            
     e( 92 - 92) =     12.40327  eV     1   --> G_2            
     e( 93 - 93) =     12.71221  eV     1   --> G_2            
     e( 94 - 94) =     12.71314  eV     1   --> G_2            
     e( 95 - 95) =     12.78300  eV     1   --> G_2            
     e( 96 - 96) =     12.78393  eV     1   --> G_2            
     e( 97 - 98) =     13.02942  eV     2   -->   2 G_2            
     e( 99 - 99) =     13.67700  eV     1   --> G_2            
     e(100 -100) =     13.67711  eV     1   --> G_2            

 **************************************************************************

 **************************************************************************

                    xk=(   0.07143,   0.04124,   0.00000  )

     Band symmetry, C_1 (1)     double point group:

     e(  1 -  2) =    -12.51768  eV     2   -->   2 G_2            
     e(  3 -  4) =    -12.00113  eV     2   -->   2 G_2            
     e(  5 -  6) =    -10.92303  eV     2   -->   2 G_2            
     e(  7 -  8) =     -8.20370  eV     2   -->   2 G_2            
     e(  9 - 10) =     -6.85664  eV     2   -->   2 G_2            
     e( 11 - 11) =     -2.49727  eV     1   --> G_2            
     e( 12 - 12) =     -2.49700  eV     1   --> G_2            
     e( 13 - 13) =     -2.29230  eV     1   --> G_2            
     e( 14 - 14) =     -2.29187  eV     1   --> G_2            
     e( 15 - 15) =     -1.79410  eV     1   --> G_2            
     e( 16 - 16) =     -1.79071  eV     1   --> G_2            
     e( 17 - 17) =     -1.71658  eV     1   --> G_2            
     e( 18 - 18) =     -1.71494  eV     1   --> G_2            
     e( 19 - 19) =     -1.49361  eV     1   --> G_2            
     e( 20 - 20) =     -1.49162  eV     1   --> G_2            
     e( 21 - 21) =     -1.22406  eV     1   --> G_2            
     e( 22 - 22) =     -1.22086  eV     1   --> G_2            
     e( 23 - 23) =     -0.87780  eV     1   --> G_2            
     e( 24 - 24) =     -0.87576  eV     1   --> G_2            
     e( 25 - 25) =     -0.59147  eV     1   --> G_2            
     e( 26 - 26) =     -0.58978  eV     1   --> G_2            
     e( 27 - 27) =     -0.20240  eV     1   --> G_2            
     e( 28 - 28) =     -0.20134  eV     1   --> G_2            
     e( 29 - 29) =      0.49994  eV     1   --> G_2            
     e( 30 - 30) =      0.50104  eV     1   --> G_2            
     e( 31 - 31) =      0.94091  eV     1   --> G_2            
     e( 32 - 32) =      0.94270  eV     1   --> G_2            
     e( 33 - 33) =      1.14829  eV     1   --> G_2            
     e( 34 - 34) =      1.14924  eV     1   --> G_2            
     e( 35 - 35) =      1.64063  eV     1   --> G_2            
     e( 36 - 36) =      1.64238  eV     1   --> G_2            
     e( 37 - 37) =      2.24304  eV     1   --> G_2            
     e( 38 - 38) =      2.24457  eV     1   --> G_2            
     e( 39 - 39) =      2.44100  eV     1   --> G_2            
     e( 40 - 40) =      2.44197  eV     1   --> G_2            
     e( 41 - 42) =      4.33774  eV     2   -->   2 G_2            
     e( 43 - 44) =      4.48102  eV     2   -->   2 G_2            
     e( 45 - 46) =      5.03886  eV     2   -->   2 G_2            
     e( 47 - 48) =      5.48410  eV     2   -->   2 G_2            
     e( 49 - 50) =      5.68249  eV     2   -->   2 G_2            
     e( 51 - 52) =      5.97788  eV     2   -->   2 G_2            
     e( 53 - 54) =      6.55337  eV     2   -->   2 G_2            
     e( 55 - 55) =      6.67344  eV     1   --> G_2            
     e( 56 - 56) =      6.67354  eV     1   --> G_2            
     e( 57 - 57) =      6.82785  eV     1   --> G_2            
     e( 58 - 58) =      6.82796  eV     1   --> G_2            
     e( 59 - 60) =      7.15034  eV     2   -->   2 G_2            
     e( 61 - 62) =      7.19793  eV     2   -->   2 G_2            
     e( 63 - 63) =      7.82362  eV     1   --> G_2            
     e( 64 - 64) =      7.82373  eV     1   --> G_2            
     e( 65 - 66) =      7.98706  eV     2   -->   2 G_2            
     e( 67 - 68) =      8.27946  eV     2   -->   2 G_2            
     e( 69 - 70) =      8.46761  eV     2   -->   2 G_2            
     e( 71 - 71) =      8.90588  eV     1   --> G_2            
     e( 72 - 72) =      8.90605  eV     1   --> G_2            
     e( 73 - 73) =      8.98732  eV     1   --> G_2            
     e( 74 - 74) =      8.98746  eV     1   --> G_2            
     e( 75 - 75) =      9.18110  eV     1   --> G_2            
     e( 76 - 76) =      9.18148  eV     1   --> G_2            
     e( 77 - 77) =      9.43472  eV     1   --> G_2            
     e( 78 - 78) =      9.43494  eV     1   --> G_2            
     e( 79 - 79) =     10.14022  eV     1   --> G_2            
     e( 80 - 80) =     10.14140  eV     1   --> G_2            
     e( 81 - 81) =     10.25719  eV     1   --> G_2            
     e( 82 - 82) =     10.25817  eV     1   --> G_2            
     e( 83 - 84) =     10.87890  eV     2   -->   2 G_2            
     e( 85 - 86) =     11.05611  eV     2   -->   2 G_2            
     e( 87 - 87) =     11.58456  eV     1   --> G_2            
     e( 88 - 88) =     11.58482  eV     1   --> G_2            
     e( 89 - 89) =     11.81861  eV     1   --> G_2            
     e( 90 - 90) =     11.81872  eV     1   --> G_2            
     e( 91 - 91) =     12.41911  eV     1   --> G_2            
     e( 92 - 92) =     12.41931  eV     1   --> G_2            
     e( 93 - 93) =     12.71816  eV     1   --> G_2            
     e( 94 - 94) =     12.71978  eV     1   --> G_2            
     e( 95 - 95) =     12.76174  eV     1   --> G_2            
     e( 96 - 96) =     12.76340  eV     1   --> G_2            
     e( 97 - 98) =     13.04108  eV     2   -->   2 G_2            
     e( 99 - 99) =     13.65062  eV     1   --> G_2            
     e(100 -100) =     13.65073  eV     1   --> G_2            

 **************************************************************************

 **************************************************************************

                    xk=(   0.07857,   0.04536,   0.00000  )

     Band symmetry, C_1 (1)     double point group:

     e(  1 -  2) =    -12.50849  eV     2   -->   2 G_2            
     e(  3 -  4) =    -11.99272  eV     2   -->   2 G_2            
     e(  5 -  6) =    -10.91792  eV     2   -->   2 G_2            
     e(  7 -  8) =     -8.20503  eV     2   -->   2 G_2            
     e(  9 - 10) =     -6.87216  eV     2   -->   2 G_2            
     e( 11 - 11) =     -2.52068  eV     1   --> G_2            
     e( 12 - 12) =     -2.52037  eV     1   --> G_2            
     e( 13 - 13) =     -2.34673  eV     1   --> G_2            
     e( 14 - 14) =     -2.34629  eV     1   --> G_2            
     e( 15 - 15) =     -1.84535  eV     1   --> G_2            
     e( 16 - 16) =     -1.84174  eV     1   --> G_2            
     e( 17 - 17) =     -1.74130  eV     1   --> G_2            
     e( 18 - 18) =     -1.73954  eV     1   --> G_2            
     e( 19 - 19) =     -1.51690  eV     1   --> G_2            
     e( 20 - 20) =     -1.51507  eV     1   --> G_2            
     e( 21 - 21) =     -1.25579  eV     1   --> G_2            
     e( 22 - 22) =     -1.25327  eV     1   --> G_2            
     e( 23 - 23) =     -0.87608  eV     1   --> G_2            
     e( 24 - 24) =     -0.87430  eV     1   --> G_2            
     e( 25 - 25) =     -0.55850  eV     1   --> G_2            
     e( 26 - 26) =     -0.55692  eV     1   --> G_2            
     e( 27 - 27) =     -0.18608  eV     1   --> G_2            
     e( 28 - 28) =     -0.18508  eV     1   --> G_2            
     e( 29 - 29) =      0.51396  eV     1   --> G_2            
     e( 30 - 30) =      0.51482  eV     1   --> G_2            
     e( 31 - 31) =      0.96928  eV     1   --> G_2            
     e( 32 - 32) =      0.97152  eV     1   --> G_2            
     e( 33 - 33) =      1.17660  eV     1   --> G_2            
     e( 34 - 34) =      1.17788  eV     1   --> G_2            
     e( 35 - 35) =      1.66099  eV     1   --> G_2            
     e( 36 - 36) =      1.66257  eV     1   --> G_2            
     e( 37 - 37) =      2.24201  eV     1   --> G_2            
     e( 38 - 38) =      2.24361  eV     1   --> G_2            
     e( 39 - 39) =      2.48068  eV     1   --> G_2            
     e( 40 - 40) =      2.48162  eV     1   --> G_2            
     e( 41 - 42) =      4.35283  eV     2   -->   2 G_2            
     e( 43 - 44) =      4.48430  eV     2   -->   2 G_2            
     e( 45 - 46) =      5.03413  eV     2   -->   2 G_2            
     e( 47 - 48) =      5.45517  eV     2   -->   2 G_2            
     e( 49 - 50) =      5.68367  eV     2   -->   2 G_2            
     e( 51 - 52) =      5.99636  eV     2   -->   2 G_2            
     e( 53 - 54) =      6.52297  eV     2   -->   2 G_2            
     e( 55 - 56) =      6.69436  eV     2   -->   2 G_2            
     e( 57 - 57) =      6.83005  eV     1   --> G_2            
     e( 58 - 58) =      6.83016  eV     1   --> G_2            
     e( 59 - 60) =      7.15971  eV     2   -->   2 G_2            
     e( 61 - 62) =      7.22043  eV     2   -->   2 G_2            
     e( 63 - 64) =      7.80371  eV     2   -->   2 G_2            
     e( 65 - 66) =      8.01492  eV     2   -->   2 G_2            
     e( 67 - 68) =      8.33532  eV     2   -->   2 G_2            
     e( 69 - 70) =      8.50903  eV     2   -->   2 G_2            
     e( 71 - 71) =      8.90696  eV     1   --> G_2            
     e( 72 - 72) =      8.90722  eV     1   --> G_2            
     e( 73 - 73) =      9.01454  eV     1   --> G_2            
     e( 74 - 74) =      9.01495  eV     1   --> G_2            
     e( 75 - 75) =      9.17063  eV     1   --> G_2            
     e( 76 - 76) =      9.17082  eV     1   --> G_2            
     e( 77 - 77) =      9.44050  eV     1   --> G_2            
     e( 78 - 78) =      9.44071  eV     1   --> G_2            
     e( 79 - 79) =     10.19188  eV     1   --> G_2            
     e( 80 - 80) =     10.19304  eV     1   --> G_2            
     e( 81 - 81) =     10.30122  eV     1   --> G_2            
     e( 82 - 82) =     10.30217  eV     1   --> G_2            
     e( 83 - 84) =     10.88094  eV     2   -->   2 G_2            
     e( 85 - 86) =     11.07303  eV     2   -->   2 G_2            
     e( 87 - 87) =     11.55208  eV     1   --> G_2            
     e( 88 - 88) =     11.55230  eV     1   --> G_2            
     e( 89 - 90) =     11.78459  eV     2   -->   2 G_2            
     e( 91 - 91) =     12.43441  eV     1   --> G_2            
     e( 92 - 92) =     12.43464  eV     1   --> G_2            
     e( 93 - 93) =     12.65719  eV     1   --> G_2            
     e( 94 - 94) =     12.65767  eV     1   --> G_2            
     e( 95 - 95) =     12.77420  eV     1   --> G_2            
     e( 96 - 96) =     12.77475  eV     1   --> G_2            
     e( 97 - 98) =     13.08351  eV     2   -->   2 G_2            
     e( 99 -100) =     13.60083  eV     2   -->   2 G_2            

 **************************************************************************

 **************************************************************************

                    xk=(   0.08571,   0.04949,   0.00000  )

     Band symmetry, C_1 (1)     double point group:

     e(  1 -  2) =    -12.49843  eV     2   -->   2 G_2            
     e(  3 -  4) =    -11.98354  eV     2   -->   2 G_2            
     e(  5 -  6) =    -10.91235  eV     2   -->   2 G_2            
     e(  7 -  8) =     -8.20659  eV     2   -->   2 G_2            
     e(  9 - 10) =     -6.88915  eV     2   -->   2 G_2            
     e( 11 - 11) =     -2.55176  eV     1   --> G_2            
     e( 12 - 12) =     -2.55140  eV     1   --> G_2            
     e( 13 - 13) =     -2.39693  eV     1   --> G_2            
     e( 14 - 14) =     -2.39644  eV     1   --> G_2            
     e( 15 - 15) =     -1.89740  eV     1   --> G_2            
     e( 16 - 16) =     -1.89372  eV     1   --> G_2            
     e( 17 - 17) =     -1.76603  eV     1   --> G_2            
     e( 18 - 18) =     -1.76426  eV     1   --> G_2            
     e( 19 - 19) =     -1.54337  eV     1   --> G_2            
     e( 20 - 20) =     -1.54169  eV     1   --> G_2            
     e( 21 - 21) =     -1.28852  eV     1   --> G_2            
     e( 22 - 22) =     -1.28669  eV     1   --> G_2            
     e( 23 - 23) =     -0.87300  eV     1   --> G_2            
     e( 24 - 24) =     -0.87147  eV     1   --> G_2            
     e( 25 - 25) =     -0.52415  eV     1   --> G_2            
     e( 26 - 26) =     -0.52263  eV     1   --> G_2            
     e( 27 - 27) =     -0.17937  eV     1   --> G_2            
     e( 28 - 28) =     -0.17838  eV     1   --> G_2            
     e( 29 - 29) =      0.52972  eV     1   --> G_2            
     e( 30 - 30) =      0.53034  eV     1   --> G_2            
     e( 31 - 31) =      1.00040  eV     1   --> G_2            
     e( 32 - 32) =      1.00288  eV     1   --> G_2            
     e( 33 - 33) =      1.20982  eV     1   --> G_2            
     e( 34 - 34) =      1.21135  eV     1   --> G_2            
     e( 35 - 35) =      1.68179  eV     1   --> G_2            
     e( 36 - 36) =      1.68317  eV     1   --> G_2            
     e( 37 - 37) =      2.24323  eV     1   --> G_2            
     e( 38 - 38) =      2.24487  eV     1   --> G_2            
     e( 39 - 39) =      2.52086  eV     1   --> G_2            
     e( 40 - 40) =      2.52176  eV     1   --> G_2            
     e( 41 - 42) =      4.36888  eV     2   -->   2 G_2            
     e( 43 - 44) =      4.48755  eV     2   -->   2 G_2            
     e( 45 - 46) =      5.02617  eV     2   -->   2 G_2            
     e( 47 - 48) =      5.43078  eV     2   -->   2 G_2            
     e( 49 - 50) =      5.68498  eV     2   -->   2 G_2            
     e( 51 - 52) =      6.01653  eV     2   -->   2 G_2            
     e( 53 - 54) =      6.49456  eV     2   -->   2 G_2            
     e( 55 - 56) =      6.71490  eV     2   -->   2 G_2            
     e( 57 - 57) =      6.83046  eV     1   --> G_2            
     e( 58 - 58) =      6.83056  eV     1   --> G_2            
     e( 59 - 60) =      7.16715  eV     2   -->   2 G_2            
     e( 61 - 62) =      7.24995  eV     2   -->   2 G_2            
     e( 63 - 64) =      7.78296  eV     2   -->   2 G_2            
     e( 65 - 66) =      8.04235  eV     2   -->   2 G_2            
     e( 67 - 68) =      8.39390  eV     2   -->   2 G_2            
     e( 69 - 69) =      8.54778  eV     1   --> G_2            
     e( 70 - 70) =      8.54789  eV     1   --> G_2            
     e( 71 - 71) =      8.88884  eV     1   --> G_2            
     e( 72 - 72) =      8.88903  eV     1   --> G_2            
     e( 73 - 73) =      9.07195  eV     1   --> G_2            
     e( 74 - 74) =      9.07266  eV     1   --> G_2            
     e( 75 - 75) =      9.16606  eV     1   --> G_2            
     e( 76 - 76) =      9.16626  eV     1   --> G_2            
     e( 77 - 77) =      9.44687  eV     1   --> G_2            
     e( 78 - 78) =      9.44706  eV     1   --> G_2            
     e( 79 - 79) =     10.24255  eV     1   --> G_2            
     e( 80 - 80) =     10.24370  eV     1   --> G_2            
     e( 81 - 81) =     10.33937  eV     1   --> G_2            
     e( 82 - 82) =     10.34031  eV     1   --> G_2            
     e( 83 - 84) =     10.88438  eV     2   -->   2 G_2            
     e( 85 - 86) =     11.08765  eV     2   -->   2 G_2            
     e( 87 - 87) =     11.53132  eV     1   --> G_2            
     e( 88 - 88) =     11.53149  eV     1   --> G_2            
     e( 89 - 90) =     11.75415  eV     2   -->   2 G_2            
     e( 91 - 91) =     12.43338  eV     1   --> G_2            
     e( 92 - 92) =     12.43369  eV     1   --> G_2            
     e( 93 - 93) =     12.59452  eV     1   --> G_2            
     e( 94 - 94) =     12.59464  eV     1   --> G_2            
     e( 95 - 95) =     12.78749  eV     1   --> G_2            
     e( 96 - 96) =     12.78775  eV     1   --> G_2            
     e( 97 - 98) =     13.13780  eV     2   -->   2 G_2            
     e( 99 -100) =     13.53070  eV     2   -->   2 G_2            

 **************************************************************************

 **************************************************************************

                    xk=(   0.09286,   0.05361,   0.00000  )

     Band symmetry, C_1 (1)     double point group:

     e(  1 -  2) =    -12.48751  eV     2   -->   2 G_2            
     e(  3 -  4) =    -11.97357  eV     2   -->   2 G_2            
     e(  5 -  6) =    -10.90634  eV     2   -->   2 G_2            
     e(  7 -  8) =     -8.20838  eV     2   -->   2 G_2            
     e(  9 - 10) =     -6.90760  eV     2   -->   2 G_2            
     e( 11 - 11) =     -2.59292  eV     1   --> G_2            
     e( 12 - 12) =     -2.59251  eV     1   --> G_2            
     e( 13 - 13) =     -2.44005  eV     1   --> G_2            
     e( 14 - 14) =     -2.43948  eV     1   --> G_2            
     e( 15 - 15) =     -1.94981  eV     1   --> G_2            
     e( 16 - 16) =     -1.94613  eV     1   --> G_2            
     e( 17 - 17) =     -1.79101  eV     1   --> G_2            
     e( 18 - 18) =     -1.78928  eV     1   --> G_2            
     e( 19 - 19) =     -1.57315  eV     1   --> G_2            
     e( 20 - 20) =     -1.57160  eV     1   --> G_2            
     e( 21 - 21) =     -1.32067  eV     1   --> G_2            
     e( 22 - 22) =     -1.31945  eV     1   --> G_2            
     e( 23 - 23) =     -0.86897  eV     1   --> G_2            
     e( 24 - 24) =     -0.86768  eV     1   --> G_2            
     e( 25 - 25) =     -0.48959  eV     1   --> G_2            
     e( 26 - 26) =     -0.48810  eV     1   --> G_2            
     e( 27 - 27) =     -0.18274  eV     1   --> G_2            
     e( 28 - 28) =     -0.18165  eV     1   --> G_2            
     e( 29 - 29) =      0.54926  eV     1   --> G_2            
     e( 30 - 30) =      0.54964  eV     1   --> G_2            
     e( 31 - 31) =      1.03309  eV     1   --> G_2            
     e( 32 - 32) =      1.03559  eV     1   --> G_2            
     e( 33 - 33) =      1.24591  eV     1   --> G_2            
     e( 34 - 34) =      1.24757  eV     1   --> G_2            
     e( 35 - 35) =      1.70402  eV     1   --> G_2            
     e( 36 - 36) =      1.70516  eV     1   --> G_2            
     e( 37 - 37) =      2.24729  eV     1   --> G_2            
     e( 38 - 38) =      2.24892  eV     1   --> G_2            
     e( 39 - 39) =      2.56092  eV     1   --> G_2            
     e( 40 - 40) =      2.56177  eV     1   --> G_2            
     e( 41 - 42) =      4.38573  eV     2   -->   2 G_2            
     e( 43 - 44) =      4.49063  eV     2   -->   2 G_2            
     e( 45 - 46) =      5.01461  eV     2   -->   2 G_2            
     e( 47 - 48) =      5.41196  eV     2   -->   2 G_2            
     e( 49 - 50) =      5.68648  eV     2   -->   2 G_2            
     e( 51 - 52) =      6.03832  eV     2   -->   2 G_2            
     e( 53 - 54) =      6.46915  eV     2   -->   2 G_2            
     e( 55 - 56) =      6.73477  eV     2   -->   2 G_2            
     e( 57 - 58) =      6.82824  eV     2   -->   2 G_2            
     e( 59 - 60) =      7.17516  eV     2   -->   2 G_2            
     e( 61 - 62) =      7.28398  eV     2   -->   2 G_2            
     e( 63 - 64) =      7.76276  eV     2   -->   2 G_2            
     e( 65 - 66) =      8.06876  eV     2   -->   2 G_2            
     e( 67 - 68) =      8.45325  eV     2   -->   2 G_2            
     e( 69 - 69) =      8.58129  eV     1   --> G_2            
     e( 70 - 70) =      8.58142  eV     1   --> G_2            
     e( 71 - 71) =      8.87669  eV     1   --> G_2            
     e( 72 - 72) =      8.87680  eV     1   --> G_2            
     e( 73 - 73) =      9.12915  eV     1   --> G_2            
     e( 74 - 74) =      9.13065  eV     1   --> G_2            
     e( 75 - 75) =      9.17539  eV     1   --> G_2            
     e( 76 - 76) =      9.17642  eV     1   --> G_2            
     e( 77 - 77) =      9.45385  eV     1   --> G_2            
     e( 78 - 78) =      9.45402  eV     1   --> G_2            
     e( 79 - 79) =     10.29141  eV     1   --> G_2            
     e( 80 - 80) =     10.29258  eV     1   --> G_2            
     e( 81 - 81) =     10.37108  eV     1   --> G_2            
     e( 82 - 82) =     10.37205  eV     1   --> G_2            
     e( 83 - 84) =     10.88905  eV     2   -->   2 G_2            
     e( 85 - 86) =     11.09971  eV     2   -->   2 G_2            
     e( 87 - 88) =     11.52355  eV     2   -->   2 G_2            
     e( 89 - 90) =     11.72794  eV     2   -->   2 G_2            
     e( 91 - 91) =     12.38392  eV     1   --> G_2            
     e( 92 - 92) =     12.38423  eV     1   --> G_2            
     e( 93 - 94) =     12.57910  eV     2   -->   2 G_2            
     e( 95 - 95) =     12.79352  eV     1   --> G_2            
     e( 96 - 96) =     12.79367  eV     1   --> G_2            
     e( 97 - 98) =     13.19517  eV     2   -->   2 G_2            
     e( 99 -100) =     13.44616  eV     2   -->   2 G_2            

 **************************************************************************

 **************************************************************************

                    xk=(   0.10000,   0.05774,   0.00000  )

     Band symmetry, C_1 (1)     double point group:

     e(  1 -  2) =    -12.47574  eV     2   -->   2 G_2            
     e(  3 -  4) =    -11.96283  eV     2   -->   2 G_2            
     e(  5 -  6) =    -10.89989  eV     2   -->   2 G_2            
     e(  7 -  8) =     -8.21044  eV     2   -->   2 G_2            
     e(  9 - 10) =     -6.92752  eV     2   -->   2 G_2            
     e( 11 - 11) =     -2.64432  eV     1   --> G_2            
     e( 12 - 12) =     -2.64390  eV     1   --> G_2            
     e( 13 - 13) =     -2.47546  eV     1   --> G_2            
     e( 14 - 14) =     -2.47483  eV     1   --> G_2            
     e( 15 - 15) =     -2.00255  eV     1   --> G_2            
     e( 16 - 16) =     -1.99890  eV     1   --> G_2            
     e( 17 - 17) =     -1.81619  eV     1   --> G_2            
     e( 18 - 18) =     -1.81455  eV     1   --> G_2            
     e( 19 - 19) =     -1.60604  eV     1   --> G_2            
     e( 20 - 20) =     -1.60455  eV     1   --> G_2            
     e( 21 - 21) =     -1.35123  eV     1   --> G_2            
     e( 22 - 22) =     -1.35038  eV     1   --> G_2            
     e( 23 - 23) =     -0.86454  eV     1   --> G_2            
     e( 24 - 24) =     -0.86345  eV     1   --> G_2            
     e( 25 - 25) =     -0.45590  eV     1   --> G_2            
     e( 26 - 26) =     -0.45443  eV     1   --> G_2            
     e( 27 - 27) =     -0.19537  eV     1   --> G_2            
     e( 28 - 28) =     -0.19412  eV     1   --> G_2            
     e( 29 - 29) =      0.57327  eV     1   --> G_2            
     e( 30 - 30) =      0.57343  eV     1   --> G_2            
     e( 31 - 31) =      1.06681  eV     1   --> G_2            
     e( 32 - 32) =      1.06920  eV     1   --> G_2            
     e( 33 - 33) =      1.28243  eV     1   --> G_2            
     e( 34 - 34) =      1.28418  eV     1   --> G_2            
     e( 35 - 35) =      1.72880  eV     1   --> G_2            
     e( 36 - 36) =      1.72969  eV     1   --> G_2            
     e( 37 - 37) =      2.25468  eV     1   --> G_2            
     e( 38 - 38) =      2.25626  eV     1   --> G_2            
     e( 39 - 39) =      2.60031  eV     1   --> G_2            
     e( 40 - 40) =      2.60109  eV     1   --> G_2            
     e( 41 - 42) =      4.40311  eV     2   -->   2 G_2            
     e( 43 - 44) =      4.49340  eV     2   -->   2 G_2            
     e( 45 - 46) =      4.99953  eV     2   -->   2 G_2            
     e( 47 - 48) =      5.39925  eV     2   -->   2 G_2            
     e( 49 - 50) =      5.68827  eV     2   -->   2 G_2            
     e( 51 - 52) =      6.06169  eV     2   -->   2 G_2            
     e( 53 - 54) =      6.44739  eV     2   -->   2 G_2            
     e( 55 - 56) =      6.75379  eV     2   -->   2 G_2            
     e( 57 - 58) =      6.82296  eV     2   -->   2 G_2            
     e( 59 - 60) =      7.18491  eV     2   -->   2 G_2            
     e( 61 - 62) =      7.32123  eV     2   -->   2 G_2            
     e( 63 - 64) =      7.74424  eV     2   -->   2 G_2            
     e( 65 - 66) =      8.09369  eV     2   -->   2 G_2            
     e( 67 - 67) =      8.51017  eV     1   --> G_2            
     e( 68 - 68) =      8.51028  eV     1   --> G_2            
     e( 69 - 69) =      8.60775  eV     1   --> G_2            
     e( 70 - 70) =      8.60789  eV     1   --> G_2            
     e( 71 - 72) =      8.87864  eV     2   -->   2 G_2            
     e( 73 - 73) =      9.15403  eV     1   --> G_2            
     e( 74 - 74) =      9.15517  eV     1   --> G_2            
     e( 75 - 75) =      9.22800  eV     1   --> G_2            
     e( 76 - 76) =      9.22873  eV     1   --> G_2            
     e( 77 - 77) =      9.46199  eV     1   --> G_2            
     e( 78 - 78) =      9.46214  eV     1   --> G_2            
     e( 79 - 79) =     10.33727  eV     1   --> G_2            
     e( 80 - 80) =     10.33852  eV     1   --> G_2            
     e( 81 - 81) =     10.39638  eV     1   --> G_2            
     e( 82 - 82) =     10.39744  eV     1   --> G_2            
     e( 83 - 84) =     10.89438  eV     2   -->   2 G_2            
[...]
     e( 91 - 91) =     12.40188  eV     1   --> G_2            
     e( 92 - 92) =     12.40292  eV     1   --> G_2            
     e( 93 - 93) =     12.45065  eV     1   --> G_2            
     e( 94 - 94) =     12.45139  eV     1   --> G_2            
     e( 95 - 95) =     12.65783  eV     1   --> G_2            
     e( 96 - 96) =     12.65795  eV     1   --> G_2            
     e( 97 - 98) =     13.22896  eV     2   -->   2 G_2            
     e( 99 -100) =     13.73962  eV     2   -->   2 G_2            

 **************************************************************************

 **************************************************************************

                    xk=(   0.01429,   0.02491,   0.00000  )

     Band symmetry, C_1 (1)     double point group:

     e(  1 -  2) =    -12.55622  eV     2   -->   2 G_2            
     e(  3 -  4) =    -12.03643  eV     2   -->   2 G_2            
     e(  5 -  6) =    -10.94473  eV     2   -->   2 G_2            
     e(  7 -  8) =     -8.19887  eV     2   -->   2 G_2            
     e(  9 - 10) =     -6.79147  eV     2   -->   2 G_2            
     e( 11 - 12) =     -2.42626  eV     2   -->   2 G_2            
     e( 13 - 13) =     -1.96878  eV     1   --> G_2            
     e( 14 - 14) =     -1.96817  eV     1   --> G_2            
     e( 15 - 15) =     -1.65074  eV     1   --> G_2            
     e( 16 - 16) =     -1.64972  eV     1   --> G_2            
     e( 17 - 17) =     -1.42999  eV     1   --> G_2            
     e( 18 - 18) =     -1.42766  eV     1   --> G_2            
     e( 19 - 19) =     -1.39491  eV     1   --> G_2            
     e( 20 - 20) =     -1.39301  eV     1   --> G_2            
     e( 21 - 21) =     -1.15189  eV     1   --> G_2            
     e( 22 - 22) =     -1.14708  eV     1   --> G_2            
     e( 23 - 23) =     -0.93207  eV     1   --> G_2            
     e( 24 - 24) =     -0.93058  eV     1   --> G_2            
     e( 25 - 25) =     -0.63024  eV     1   --> G_2            
     e( 26 - 26) =     -0.62904  eV     1   --> G_2            
     e( 27 - 27) =     -0.40730  eV     1   --> G_2            
     e( 28 - 28) =     -0.40627  eV     1   --> G_2            
     e( 29 - 29) =      0.31886  eV     1   --> G_2            
     e( 30 - 30) =      0.31994  eV     1   --> G_2            
     e( 31 - 31) =      0.87850  eV     1   --> G_2            
     e( 32 - 32) =      0.87942  eV     1   --> G_2            
     e( 33 - 33) =      1.13936  eV     1   --> G_2            
     e( 34 - 34) =      1.14099  eV     1   --> G_2            
     e( 35 - 35) =      1.48490  eV     1   --> G_2            
     e( 36 - 36) =      1.48665  eV     1   --> G_2            
     e( 37 - 37) =      2.22060  eV     1   --> G_2            
     e( 38 - 38) =      2.22106  eV     1   --> G_2            
     e( 39 - 39) =      2.29136  eV     1   --> G_2            
     e( 40 - 40) =      2.29175  eV     1   --> G_2            
     e( 41 - 42) =      4.27027  eV     2   -->   2 G_2            
     e( 43 - 44) =      4.46498  eV     2   -->   2 G_2            
     e( 45 - 46) =      5.03378  eV     2   -->   2 G_2            
     e( 47 - 48) =      5.66229  eV     2   -->   2 G_2            
     e( 49 - 50) =      5.72675  eV     2   -->   2 G_2            
     e( 51 - 52) =      5.87928  eV     2   -->   2 G_2            
     e( 53 - 54) =      6.52142  eV     2   -->   2 G_2            
     e( 55 - 56) =      6.72785  eV     2   -->   2 G_2            
     e( 57 - 58) =      6.85295  eV     2   -->   2 G_2            
     e( 59 - 60) =      7.05506  eV     2   -->   2 G_2            
     e( 61 - 61) =      7.19691  eV     1   --> G_2            
     e( 62 - 62) =      7.19709  eV     1   --> G_2            
     e( 63 - 63) =      7.78572  eV     1   --> G_2            
     e( 64 - 64) =      7.78590  eV     1   --> G_2            
     e( 65 - 65) =      7.83966  eV     1   --> G_2            
     e( 66 - 66) =      7.83990  eV     1   --> G_2            
     e( 67 - 68) =      8.10735  eV     2   -->   2 G_2            
     e( 69 - 70) =      8.24650  eV     2   -->   2 G_2            
     e( 71 - 72) =      8.67165  eV     2   -->   2 G_2            
     e( 73 - 73) =      9.19168  eV     1   --> G_2            
     e( 74 - 74) =      9.19204  eV     1   --> G_2            
     e( 75 - 75) =      9.32391  eV     1   --> G_2            
     e( 76 - 76) =      9.32494  eV     1   --> G_2            
     e( 77 - 77) =      9.49569  eV     1   --> G_2            
     e( 78 - 78) =      9.49644  eV     1   --> G_2            
     e( 79 - 79) =      9.78827  eV     1   --> G_2            
     e( 80 - 80) =      9.78918  eV     1   --> G_2            
     e( 81 - 81) =      9.90808  eV     1   --> G_2            
     e( 82 - 82) =      9.90892  eV     1   --> G_2            
     e( 83 - 84) =     10.88526  eV     2   -->   2 G_2            
     e( 85 - 86) =     10.95845  eV     2   -->   2 G_2            
     e( 87 - 87) =     11.95611  eV     1   --> G_2            
     e( 88 - 88) =     11.95629  eV     1   --> G_2            
     e( 89 - 89) =     12.07972  eV     1   --> G_2            
     e( 90 - 90) =     12.07996  eV     1   --> G_2            
     e( 91 - 91) =     12.37375  eV     1   --> G_2            
     e( 92 - 92) =     12.37498  eV     1   --> G_2            
     e( 93 - 93) =     12.42889  eV     1   --> G_2            
     e( 94 - 94) =     12.42971  eV     1   --> G_2            
     e( 95 - 96) =     12.59004  eV     2   -->   2 G_2            
     e( 97 - 98) =     13.21912  eV     2   -->   2 G_2            
     e( 99 -100) =     13.80702  eV     2   -->   2 G_2            

 **************************************************************************

 **************************************************************************

                    xk=(   0.00952,   0.01661,   0.00000  )

     Band symmetry, C_1 (1)     double point group:

     e(  1 -  2) =    -12.55918  eV     2   -->   2 G_2            
     e(  3 -  4) =    -12.03915  eV     2   -->   2 G_2            
     e(  5 -  6) =    -10.94643  eV     2   -->   2 G_2            
     e(  7 -  8) =     -8.19861  eV     2   -->   2 G_2            
     e(  9 - 10) =     -6.78664  eV     2   -->   2 G_2            
     e( 11 - 12) =     -2.42208  eV     2   -->   2 G_2            
     e( 13 - 13) =     -1.93603  eV     1   --> G_2            
     e( 14 - 14) =     -1.93558  eV     1   --> G_2            
     e( 15 - 15) =     -1.65058  eV     1   --> G_2            
     e( 16 - 16) =     -1.64987  eV     1   --> G_2            
     e( 17 - 17) =     -1.39661  eV     1   --> G_2            
     e( 18 - 18) =     -1.39549  eV     1   --> G_2            
     e( 19 - 19) =     -1.36211  eV     1   --> G_2            
     e( 20 - 20) =     -1.35869  eV     1   --> G_2            
     e( 21 - 21) =     -1.16469  eV     1   --> G_2            
     e( 22 - 22) =     -1.16025  eV     1   --> G_2            
     e( 23 - 23) =     -0.95427  eV     1   --> G_2            
     e( 24 - 24) =     -0.95315  eV     1   --> G_2            
     e( 25 - 25) =     -0.60834  eV     1   --> G_2            
     e( 26 - 26) =     -0.60750  eV     1   --> G_2            
     e( 27 - 27) =     -0.43342  eV     1   --> G_2            
     e( 28 - 28) =     -0.43264  eV     1   --> G_2            
     e( 29 - 29) =      0.28735  eV     1   --> G_2            
     e( 30 - 30) =      0.28812  eV     1   --> G_2            
     e( 31 - 31) =      0.87410  eV     1   --> G_2            
     e( 32 - 32) =      0.87474  eV     1   --> G_2            
     e( 33 - 33) =      1.16489  eV     1   --> G_2            
     e( 34 - 34) =      1.16626  eV     1   --> G_2            
     e( 35 - 35) =      1.45737  eV     1   --> G_2            
     e( 36 - 36) =      1.45880  eV     1   --> G_2            
     e( 37 - 37) =      2.20533  eV     1   --> G_2            
     e( 38 - 38) =      2.20567  eV     1   --> G_2            
     e( 39 - 39) =      2.29184  eV     1   --> G_2            
     e( 40 - 40) =      2.29213  eV     1   --> G_2            
     e( 41 - 42) =      4.26481  eV     2   -->   2 G_2            
     e( 43 - 44) =      4.46356  eV     2   -->   2 G_2            
     e( 45 - 46) =      5.03208  eV     2   -->   2 G_2            
     e( 47 - 48) =      5.66302  eV     2   -->   2 G_2            
     e( 49 - 50) =      5.73998  eV     2   -->   2 G_2            
     e( 51 - 52) =      5.88643  eV     2   -->   2 G_2            
     e( 53 - 54) =      6.50105  eV     2   -->   2 G_2            
     e( 55 - 56) =      6.73231  eV     2   -->   2 G_2            
     e( 57 - 58) =      6.86605  eV     2   -->   2 G_2            
     e( 59 - 60) =      7.05559  eV     2   -->   2 G_2            
     e( 61 - 61) =      7.19988  eV     1   --> G_2            
     e( 62 - 62) =      7.20003  eV     1   --> G_2            
     e( 63 - 63) =      7.76593  eV     1   --> G_2            
     e( 64 - 64) =      7.76608  eV     1   --> G_2            
     e( 65 - 65) =      7.82132  eV     1   --> G_2            
     e( 66 - 66) =      7.82148  eV     1   --> G_2            
     e( 67 - 68) =      8.10663  eV     2   -->   2 G_2            
     e( 69 - 70) =      8.22541  eV     2   -->   2 G_2            
     e( 71 - 72) =      8.65104  eV     2   -->   2 G_2            
     e( 73 - 73) =      9.21244  eV     1   --> G_2            
     e( 74 - 74) =      9.21275  eV     1   --> G_2            
     e( 75 - 75) =      9.35569  eV     1   --> G_2            
     e( 76 - 76) =      9.35666  eV     1   --> G_2            
     e( 77 - 77) =      9.52855  eV     1   --> G_2            
     e( 78 - 78) =      9.52937  eV     1   --> G_2            
     e( 79 - 79) =      9.74309  eV     1   --> G_2            
     e( 80 - 80) =      9.74389  eV     1   --> G_2            
     e( 81 - 81) =      9.84654  eV     1   --> G_2            
     e( 82 - 82) =      9.84733  eV     1   --> G_2            
     e( 83 - 84) =     10.88579  eV     2   -->   2 G_2            
     e( 85 - 86) =     10.94850  eV     2   -->   2 G_2            
     e( 87 - 88) =     12.01336  eV     2   -->   2 G_2            
     e( 89 - 89) =     12.14152  eV     1   --> G_2            
     e( 90 - 90) =     12.14199  eV     1   --> G_2            
     e( 91 - 91) =     12.34263  eV     1   --> G_2            
     e( 92 - 92) =     12.34401  eV     1   --> G_2            
     e( 93 - 93) =     12.41048  eV     1   --> G_2            
     e( 94 - 94) =     12.41129  eV     1   --> G_2            
     e( 95 - 96) =     12.53171  eV     2   -->   2 G_2            
     e( 97 - 98) =     13.19989  eV     2   -->   2 G_2            
     e( 99 -100) =     13.87450  eV     2   -->   2 G_2            

 **************************************************************************

 **************************************************************************

                    xk=(   0.00476,   0.00830,   0.00000  )

     Band symmetry, C_1 (1)     double point group:

     e(  1 -  2) =    -12.56096  eV     2   -->   2 G_2            
     e(  3 -  4) =    -12.04079  eV     2   -->   2 G_2            
     e(  5 -  6) =    -10.94745  eV     2   -->   2 G_2            
     e(  7 -  8) =     -8.19845  eV     2   -->   2 G_2            
     e(  9 - 10) =     -6.78375  eV     2   -->   2 G_2            
     e( 11 - 12) =     -2.41962  eV     2   -->   2 G_2            
     e( 13 - 13) =     -1.91476  eV     1   --> G_2            
     e( 14 - 14) =     -1.91452  eV     1   --> G_2            
     e( 15 - 15) =     -1.65222  eV     1   --> G_2            
     e( 16 - 16) =     -1.65186  eV     1   --> G_2            
     e( 17 - 17) =     -1.38480  eV     1   --> G_2            
     e( 18 - 18) =     -1.38435  eV     1   --> G_2            
     e( 19 - 19) =     -1.32028  eV     1   --> G_2            
     e( 20 - 20) =     -1.31754  eV     1   --> G_2            
     e( 21 - 21) =     -1.18343  eV     1   --> G_2            
     e( 22 - 22) =     -1.18018  eV     1   --> G_2            
     e( 23 - 23) =     -0.96870  eV     1   --> G_2            
     e( 24 - 24) =     -0.96808  eV     1   --> G_2            
     e( 25 - 25) =     -0.59346  eV     1   --> G_2            
     e( 26 - 26) =     -0.59301  eV     1   --> G_2            
     e( 27 - 27) =     -0.44909  eV     1   --> G_2            
     e( 28 - 28) =     -0.44866  eV     1   --> G_2            
     e( 29 - 29) =      0.26620  eV     1   --> G_2            
     e( 30 - 30) =      0.26659  eV     1   --> G_2            
     e( 31 - 31) =      0.87143  eV     1   --> G_2            
     e( 32 - 32) =      0.87176  eV     1   --> G_2            
     e( 33 - 33) =      1.18578  eV     1   --> G_2            
     e( 34 - 34) =      1.18661  eV     1   --> G_2            
     e( 35 - 35) =      1.43658  eV     1   --> G_2            
     e( 36 - 36) =      1.43744  eV     1   --> G_2            
     e( 37 - 37) =      2.19525  eV     1   --> G_2            
     e( 38 - 38) =      2.19543  eV     1   --> G_2            
     e( 39 - 39) =      2.29304  eV     1   --> G_2            
     e( 40 - 40) =      2.29319  eV     1   --> G_2            
     e( 41 - 42) =      4.26151  eV     2   -->   2 G_2            
     e( 43 - 44) =      4.46271  eV     2   -->   2 G_2            
     e( 45 - 46) =      5.03099  eV     2   -->   2 G_2            
     e( 47 - 48) =      5.66312  eV     2   -->   2 G_2            
     e( 49 - 50) =      5.74688  eV     2   -->   2 G_2            
     e( 51 - 52) =      5.89337  eV     2   -->   2 G_2            
     e( 53 - 54) =      6.48756  eV     2   -->   2 G_2            
     e( 55 - 56) =      6.73446  eV     2   -->   2 G_2            
     e( 57 - 58) =      6.87385  eV     2   -->   2 G_2            
     e( 59 - 60) =      7.05742  eV     2   -->   2 G_2            
     e( 61 - 62) =      7.20293  eV     2   -->   2 G_2            
     e( 63 - 64) =      7.75168  eV     2   -->   2 G_2            
     e( 65 - 66) =      7.80924  eV     2   -->   2 G_2            
     e( 67 - 68) =      8.10780  eV     2   -->   2 G_2            
     e( 69 - 70) =      8.21249  eV     2   -->   2 G_2            
     e( 71 - 72) =      8.63877  eV     2   -->   2 G_2            
     e( 73 - 73) =      9.22430  eV     1   --> G_2            
     e( 74 - 74) =      9.22447  eV     1   --> G_2            
     e( 75 - 75) =      9.37725  eV     1   --> G_2            
     e( 76 - 76) =      9.37784  eV     1   --> G_2            
     e( 77 - 77) =      9.56889  eV     1   --> G_2            
     e( 78 - 78) =      9.56956  eV     1   --> G_2            
     e( 79 - 79) =      9.70314  eV     1   --> G_2            
     e( 80 - 80) =      9.70371  eV     1   --> G_2            
     e( 81 - 81) =      9.80022  eV     1   --> G_2            
     e( 82 - 82) =      9.80075  eV     1   --> G_2            
     e( 83 - 84) =     10.88626  eV     2   -->   2 G_2            
     e( 85 - 86) =     10.94240  eV     2   -->   2 G_2            
     e( 87 - 88) =     12.05846  eV     2   -->   2 G_2            
     e( 89 - 89) =     12.19191  eV     1   --> G_2            
     e( 90 - 90) =     12.19260  eV     1   --> G_2            
     e( 91 - 91) =     12.31103  eV     1   --> G_2            
     e( 92 - 92) =     12.31235  eV     1   --> G_2            
     e( 93 - 93) =     12.39506  eV     1   --> G_2            
     e( 94 - 94) =     12.39568  eV     1   --> G_2            
     e( 95 - 96) =     12.49185  eV     2   -->   2 G_2            
     e( 97 - 98) =     13.18329  eV     2   -->   2 G_2            
     e( 99 -100) =     13.92884  eV     2   -->   2 G_2            

 **************************************************************************

 **************************************************************************

                    xk=(   0.00000,   0.00000,   0.00000  )

     Band symmetry, C_1 (1)     double point group:

     e(  1 -  2) =    -12.56155  eV     2   -->   2 G_2            
     e(  3 -  4) =    -12.04133  eV     2   -->   2 G_2            
     e(  5 -  6) =    -10.94779  eV     2   -->   2 G_2            
     e(  7 -  8) =     -8.19840  eV     2   -->   2 G_2            
     e(  9 - 10) =     -6.78278  eV     2   -->   2 G_2            
     e( 11 - 12) =     -2.41879  eV     2   -->   2 G_2            
     e( 13 - 14) =     -1.90725  eV     2   -->   2 G_2            
     e( 15 - 16) =     -1.65300  eV     2   -->   2 G_2            
     e( 17 - 18) =     -1.38129  eV     2   -->   2 G_2            
     e( 19 - 20) =     -1.29899  eV     2   -->   2 G_2            
     e( 21 - 22) =     -1.19357  eV     2   -->   2 G_2            
     e( 23 - 24) =     -0.97347  eV     2   -->   2 G_2            
     e( 25 - 26) =     -0.58817  eV     2   -->   2 G_2            
     e( 27 - 28) =     -0.45402  eV     2   -->   2 G_2            
     e( 29 - 30) =      0.25883  eV     2   -->   2 G_2            
     e( 31 - 32) =      0.87064  eV     2   -->   2 G_2            
     e( 33 - 34) =      1.19439  eV     2   -->   2 G_2            
     e( 35 - 36) =      1.42881  eV     2   -->   2 G_2            
     e( 37 - 38) =      2.19183  eV     2   -->   2 G_2            
     e( 39 - 40) =      2.29360  eV     2   -->   2 G_2            
     e( 41 - 42) =      4.26040  eV     2   -->   2 G_2            
     e( 43 - 44) =      4.46242  eV     2   -->   2 G_2            
     e( 45 - 46) =      5.03062  eV     2   -->   2 G_2            
     e( 47 - 48) =      5.66311  eV     2   -->   2 G_2            
     e( 49 - 50) =      5.74897  eV     2   -->   2 G_2            
     e( 51 - 52) =      5.89620  eV     2   -->   2 G_2            
     e( 53 - 54) =      6.48282  eV     2   -->   2 G_2            
     e( 55 - 56) =      6.73510  eV     2   -->   2 G_2            
     e( 57 - 58) =      6.87643  eV     2   -->   2 G_2            
     e( 59 - 60) =      7.05833  eV     2   -->   2 G_2            
     e( 61 - 62) =      7.20423  eV     2   -->   2 G_2            
     e( 63 - 64) =      7.74647  eV     2   -->   2 G_2            
     e( 65 - 66) =      7.80510  eV     2   -->   2 G_2            
     e( 67 - 68) =      8.10846  eV     2   -->   2 G_2            
     e( 69 - 70) =      8.20812  eV     2   -->   2 G_2            
     e( 71 - 72) =      8.63470  eV     2   -->   2 G_2            
     e( 73 - 74) =      9.22824  eV     2   -->   2 G_2            
     e( 75 - 76) =      9.38490  eV     2   -->   2 G_2            
     e( 77 - 78) =      9.59467  eV     2   -->   2 G_2            
     e( 79 - 80) =      9.67995  eV     2   -->   2 G_2            
     e( 81 - 82) =      9.78289  eV     2   -->   2 G_2            
     e( 83 - 84) =     10.88646  eV     2   -->   2 G_2            
     e( 85 - 86) =     10.94034  eV     2   -->   2 G_2            
     e( 87 - 88) =     12.07695  eV     2   -->   2 G_2            
     e( 89 - 90) =     12.21582  eV     2   -->   2 G_2            
     e( 91 - 92) =     12.29414  eV     2   -->   2 G_2            
     e( 93 - 94) =     12.38800  eV     2   -->   2 G_2            
     e( 95 - 96) =     12.47795  eV     2   -->   2 G_2            
     e( 97 - 98) =     13.17691  eV     2   -->   2 G_2            
     e( 99 -100) =     13.95024  eV     2   -->   2 G_2            

 **************************************************************************

     BANDS        :  20m10.17s CPU  19m 6.77s WALL


   This run was terminated on:  21:12:49  22Aug2025            

=------------------------------------------------------------------------------=
   JOB DONE.
=------------------------------------------------------------------------------=
