
     Program BANDS v.7.4.1 starts on 14Aug2025 at 21:19:43 

     This program is part of the open-source Quantum ESPRESSO suite
     for quantum simulation of materials; please cite
         "P. Giannozzi et al., J. Phys.:Condens. Matter 21 395502 (2009);
         "P. Giannozzi et al., J. Phys.:Condens. Matter 29 465901 (2017);
         "P. Giannozzi et al., J. Chem. Phys. 152 154105 (2020);
          URL http://www.quantum-espresso.org", 
     in publications or presentations arising from this work. More details at
     http://www.quantum-espresso.org/quote

     Parallel version (MPI & OpenMP), running on      48 processor cores
     Number of MPI processes:                24
     Threads/MPI process:                     2

     MPI processes distributed on     2 nodes
     R & G space division:  proc/nbgrp/npool/nimage =      24
     99863 MiB available memory on the printing compute node when the environment starts


     Reading xml data from directory:

     tmp/Sb2Te3-uatsx-c4-soc-1.0.save/
Error reading attribute index: expected integer, found *
Error reading attribute index: expected integer, found *

     IMPORTANT: XC functional enforced from input :
     Exchange-correlation= PBE
                           (   1   4   3   4   0   0   0)
     Any further DFT definition will be discarded
     Please, verify this is what you really want


     Parallelization info
     --------------------
     sticks:   dense  smooth     PW     G-vecs:    dense   smooth      PW
     Min          96      38     10                19112     4832     726
     Max          97      39     11                19125     4855     757
     Sum        2311     925    261               458817   116185   17833

     Using Slab Decomposition

     Reading collected, re-writing distributed wavefunctions
     high-symmetry point:  0.0000 0.0000 0.0000   x coordinate   0.0000
     high-symmetry point:  0.5000 0.2887 0.0000   x coordinate   0.5774
     high-symmetry point:  0.3333 0.5812 0.0000   x coordinate   0.9140
     high-symmetry point:  0.0000 0.0000 0.0000   x coordinate   1.5840

     Plottable bands (eV) written to file ./bands/Sb2Te3-uatsx-c4-soc-1.0.bands.gnu
     Bands written to file ./bands/Sb2Te3-uatsx-c4-soc-1.0.bands

 **************************************************************************

                    xk=(   0.00000,   0.00000,   0.00000  )

     double point group C_1 (1)    
     there are  2 classes and  1 irreducible representations
     the character table:

       E     -E   
                  
G_2    1.00 -1.00

     the symmetry operations in each class and the name of the first element:

     E             1
                                                                 
     -E           -1
                                                                 

     Band symmetry, C_1 (1)     double point group:

     e(  1 -  2) =    -35.43540  eV     2   -->   2 G_2            
     e(  3 -  4) =    -35.42939  eV     2   -->   2 G_2            
     e(  5 -  6) =    -35.40928  eV     2   -->   2 G_2            
     e(  7 -  8) =    -35.40332  eV     2   -->   2 G_2            
     e(  9 - 10) =    -35.32138  eV     2   -->   2 G_2            
     e( 11 - 12) =    -35.28595  eV     2   -->   2 G_2            
     e( 13 - 14) =    -33.97564  eV     2   -->   2 G_2            
     e( 15 - 16) =    -33.96962  eV     2   -->   2 G_2            
     e( 17 - 18) =    -33.95344  eV     2   -->   2 G_2            
     e( 19 - 20) =    -33.94750  eV     2   -->   2 G_2            
     e( 21 - 22) =    -33.94170  eV     2   -->   2 G_2            
     e( 23 - 24) =    -33.93573  eV     2   -->   2 G_2            
     e( 25 - 26) =    -33.85883  eV     2   -->   2 G_2            
     e( 27 - 28) =    -33.84344  eV     2   -->   2 G_2            
     e( 29 - 30) =    -33.81284  eV     2   -->   2 G_2            
     e( 31 - 32) =    -28.06019  eV     2   -->   2 G_2            
     e( 33 - 34) =    -28.05612  eV     2   -->   2 G_2            
     e( 35 - 36) =    -28.05140  eV     2   -->   2 G_2            
     e( 37 - 38) =    -28.04738  eV     2   -->   2 G_2            
     e( 39 - 40) =    -26.82113  eV     2   -->   2 G_2            
     e( 41 - 42) =    -26.81705  eV     2   -->   2 G_2            
     e( 43 - 44) =    -26.81110  eV     2   -->   2 G_2            
     e( 45 - 46) =    -26.80987  eV     2   -->   2 G_2            
     e( 47 - 48) =    -26.80707  eV     2   -->   2 G_2            
     e( 49 - 50) =    -26.80586  eV     2   -->   2 G_2            
     e( 51 - 52) =    -10.58495  eV     2   -->   2 G_2            
     e( 53 - 54) =    -10.05884  eV     2   -->   2 G_2            
     e( 55 - 56) =     -8.97346  eV     2   -->   2 G_2            
     e( 57 - 58) =     -6.21378  eV     2   -->   2 G_2            
     e( 59 - 60) =     -4.79675  eV     2   -->   2 G_2            
     e( 61 - 62) =     -0.44478  eV     2   -->   2 G_2            
     e( 63 - 64) =      0.07708  eV     2   -->   2 G_2            
     e( 65 - 66) =      0.32004  eV     2   -->   2 G_2            
     e( 67 - 68) =      0.59063  eV     2   -->   2 G_2            
     e( 69 - 70) =      0.68012  eV     2   -->   2 G_2            
     e( 71 - 72) =      0.79051  eV     2   -->   2 G_2            
     e( 73 - 74) =      1.00588  eV     2   -->   2 G_2            
     e( 75 - 76) =      1.39071  eV     2   -->   2 G_2            
     e( 77 - 78) =      1.53191  eV     2   -->   2 G_2            
     e( 79 - 80) =      2.24252  eV     2   -->   2 G_2            
     e( 81 - 82) =      2.85259  eV     2   -->   2 G_2            
     e( 83 - 84) =      3.17353  eV     2   -->   2 G_2            
     e( 85 - 86) =      3.40294  eV     2   -->   2 G_2            
     e( 87 - 88) =      4.16548  eV     2   -->   2 G_2            
     e( 89 - 90) =      4.26905  eV     2   -->   2 G_2            
     e( 91 - 92) =      6.26423  eV     2   -->   2 G_2            
     e( 93 - 94) =      6.46256  eV     2   -->   2 G_2            
     e( 95 - 96) =      7.02579  eV     2   -->   2 G_2            
     e( 97 - 98) =      7.67629  eV     2   -->   2 G_2            
     e( 99 -100) =      7.73270  eV     2   -->   2 G_2            

 **************************************************************************

 **************************************************************************

                    xk=(   0.00714,   0.00412,   0.00000  )

     Band symmetry, C_1 (1)     double point group:

     e(  1 -  2) =    -35.43540  eV     2   -->   2 G_2            
     e(  3 -  4) =    -35.42939  eV     2   -->   2 G_2            
     e(  5 -  6) =    -35.40928  eV     2   -->   2 G_2            
     e(  7 -  8) =    -35.40332  eV     2   -->   2 G_2            
     e(  9 - 10) =    -35.32138  eV     2   -->   2 G_2            
     e( 11 - 12) =    -35.28595  eV     2   -->   2 G_2            
     e( 13 - 14) =    -33.97564  eV     2   -->   2 G_2            
     e( 15 - 16) =    -33.96962  eV     2   -->   2 G_2            
     e( 17 - 18) =    -33.95344  eV     2   -->   2 G_2            
     e( 19 - 20) =    -33.94750  eV     2   -->   2 G_2            
     e( 21 - 22) =    -33.94170  eV     2   -->   2 G_2            
     e( 23 - 24) =    -33.93573  eV     2   -->   2 G_2            
     e( 25 - 26) =    -33.85883  eV     2   -->   2 G_2            
     e( 27 - 28) =    -33.84344  eV     2   -->   2 G_2            
     e( 29 - 30) =    -33.81284  eV     2   -->   2 G_2            
     e( 31 - 32) =    -28.06019  eV     2   -->   2 G_2            
     e( 33 - 34) =    -28.05612  eV     2   -->   2 G_2            
     e( 35 - 36) =    -28.05140  eV     2   -->   2 G_2            
     e( 37 - 38) =    -28.04739  eV     2   -->   2 G_2            
     e( 39 - 40) =    -26.82113  eV     2   -->   2 G_2            
     e( 41 - 42) =    -26.81705  eV     2   -->   2 G_2            
     e( 43 - 44) =    -26.81111  eV     2   -->   2 G_2            
     e( 45 - 46) =    -26.80987  eV     2   -->   2 G_2            
     e( 47 - 48) =    -26.80707  eV     2   -->   2 G_2            
     e( 49 - 50) =    -26.80586  eV     2   -->   2 G_2            
     e( 51 - 52) =    -10.58451  eV     2   -->   2 G_2            
     e( 53 - 54) =    -10.05844  eV     2   -->   2 G_2            
     e( 55 - 56) =     -8.97322  eV     2   -->   2 G_2            
     e( 57 - 58) =     -6.21384  eV     2   -->   2 G_2            
     e( 59 - 60) =     -4.79748  eV     2   -->   2 G_2            
     e( 61 - 62) =     -0.44542  eV     2   -->   2 G_2            
     e( 63 - 63) =      0.07075  eV     1   --> G_2            
     e( 64 - 64) =      0.07137  eV     1   --> G_2            
     e( 65 - 65) =      0.32063  eV     1   --> G_2            
     e( 66 - 66) =      0.32129  eV     1   --> G_2            
     e( 67 - 67) =      0.58826  eV     1   --> G_2            
     e( 68 - 68) =      0.58864  eV     1   --> G_2            
     e( 69 - 69) =      0.66373  eV     1   --> G_2            
     e( 70 - 70) =      0.66641  eV     1   --> G_2            
     e( 71 - 71) =      0.79832  eV     1   --> G_2            
     e( 72 - 72) =      0.80152  eV     1   --> G_2            
     e( 73 - 73) =      1.00925  eV     1   --> G_2            
     e( 74 - 74) =      1.00986  eV     1   --> G_2            
     e( 75 - 75) =      1.38658  eV     1   --> G_2            
     e( 76 - 76) =      1.38703  eV     1   --> G_2            
     e( 77 - 77) =      1.53554  eV     1   --> G_2            
     e( 78 - 78) =      1.53593  eV     1   --> G_2            
     e( 79 - 79) =      2.24821  eV     1   --> G_2            
     e( 80 - 80) =      2.24857  eV     1   --> G_2            
     e( 81 - 81) =      2.85269  eV     1   --> G_2            
     e( 82 - 82) =      2.85302  eV     1   --> G_2            
     e( 83 - 83) =      3.16714  eV     1   --> G_2            
     e( 84 - 84) =      3.16789  eV     1   --> G_2            
     e( 85 - 85) =      3.40892  eV     1   --> G_2            
     e( 86 - 86) =      3.40972  eV     1   --> G_2            
     e( 87 - 87) =      4.16802  eV     1   --> G_2            
     e( 88 - 88) =      4.16822  eV     1   --> G_2            
     e( 89 - 89) =      4.26849  eV     1   --> G_2            
     e( 90 - 90) =      4.26861  eV     1   --> G_2            
     e( 91 - 92) =      6.26504  eV     2   -->   2 G_2            
     e( 93 - 94) =      6.46276  eV     2   -->   2 G_2            
     e( 95 - 96) =      7.02604  eV     2   -->   2 G_2            
     e( 97 - 98) =      7.67600  eV     2   -->   2 G_2            
     e( 99 -100) =      7.72930  eV     2   -->   2 G_2            

 **************************************************************************

 **************************************************************************

                    xk=(   0.01429,   0.00825,   0.00000  )

     Band symmetry, C_1 (1)     double point group:

     e(  1 -  2) =    -35.43540  eV     2   -->   2 G_2            
     e(  3 -  4) =    -35.42939  eV     2   -->   2 G_2            
     e(  5 -  6) =    -35.40928  eV     2   -->   2 G_2            
     e(  7 -  8) =    -35.40332  eV     2   -->   2 G_2            
     e(  9 - 10) =    -35.32138  eV     2   -->   2 G_2            
     e( 11 - 12) =    -35.28595  eV     2   -->   2 G_2            
     e( 13 - 14) =    -33.97564  eV     2   -->   2 G_2            
     e( 15 - 16) =    -33.96961  eV     2   -->   2 G_2            
     e( 17 - 18) =    -33.95344  eV     2   -->   2 G_2            
     e( 19 - 20) =    -33.94750  eV     2   -->   2 G_2            
     e( 21 - 22) =    -33.94170  eV     2   -->   2 G_2            
     e( 23 - 24) =    -33.93573  eV     2   -->   2 G_2            
     e( 25 - 26) =    -33.85883  eV     2   -->   2 G_2            
     e( 27 - 28) =    -33.84344  eV     2   -->   2 G_2            
     e( 29 - 30) =    -33.81284  eV     2   -->   2 G_2            
     e( 31 - 32) =    -28.06019  eV     2   -->   2 G_2            
     e( 33 - 34) =    -28.05612  eV     2   -->   2 G_2            
     e( 35 - 36) =    -28.05141  eV     2   -->   2 G_2            
     e( 37 - 38) =    -28.04739  eV     2   -->   2 G_2            
     e( 39 - 40) =    -26.82113  eV     2   -->   2 G_2            
     e( 41 - 42) =    -26.81705  eV     2   -->   2 G_2            
     e( 43 - 44) =    -26.81111  eV     2   -->   2 G_2            
     e( 45 - 46) =    -26.80987  eV     2   -->   2 G_2            
     e( 47 - 48) =    -26.80708  eV     2   -->   2 G_2            
     e( 49 - 50) =    -26.80586  eV     2   -->   2 G_2            
     e( 51 - 52) =    -10.58321  eV     2   -->   2 G_2            
     e( 53 - 54) =    -10.05722  eV     2   -->   2 G_2            
     e( 55 - 56) =     -8.97245  eV     2   -->   2 G_2            
     e( 57 - 58) =     -6.21397  eV     2   -->   2 G_2            
     e( 59 - 60) =     -4.79973  eV     2   -->   2 G_2            
     e( 61 - 62) =     -0.44733  eV     2   -->   2 G_2            
     e( 63 - 63) =      0.05313  eV     1   --> G_2            
     e( 64 - 64) =      0.05428  eV     1   --> G_2            
     e( 65 - 65) =      0.32237  eV     1   --> G_2            
     e( 66 - 66) =      0.32359  eV     1   --> G_2            
     e( 67 - 67) =      0.58038  eV     1   --> G_2            
     e( 68 - 68) =      0.58143  eV     1   --> G_2            
     e( 69 - 69) =      0.62993  eV     1   --> G_2            
     e( 70 - 70) =      0.63344  eV     1   --> G_2            
     e( 71 - 71) =      0.81537  eV     1   --> G_2            
     e( 72 - 72) =      0.81995  eV     1   --> G_2            
     e( 73 - 73) =      1.01972  eV     1   --> G_2            
     e( 74 - 74) =      1.02086  eV     1   --> G_2            
     e( 75 - 75) =      1.37508  eV     1   --> G_2            
     e( 76 - 76) =      1.37594  eV     1   --> G_2            
     e( 77 - 77) =      1.54698  eV     1   --> G_2            
     e( 78 - 78) =      1.54774  eV     1   --> G_2            
     e( 79 - 79) =      2.26491  eV     1   --> G_2            
     e( 80 - 80) =      2.26560  eV     1   --> G_2            
     e( 81 - 81) =      2.85331  eV     1   --> G_2            
     e( 82 - 82) =      2.85394  eV     1   --> G_2            
     e( 83 - 83) =      3.15125  eV     1   --> G_2            
     e( 84 - 84) =      3.15254  eV     1   --> G_2            
     e( 85 - 85) =      3.42558  eV     1   --> G_2            
     e( 86 - 86) =      3.42698  eV     1   --> G_2            
     e( 87 - 87) =      4.17569  eV     1   --> G_2            
     e( 88 - 88) =      4.17610  eV     1   --> G_2            
     e( 89 - 89) =      4.26707  eV     1   --> G_2            
     e( 90 - 90) =      4.26729  eV     1   --> G_2            
     e( 91 - 92) =      6.26750  eV     2   -->   2 G_2            
     e( 93 - 94) =      6.46334  eV     2   -->   2 G_2            
     e( 95 - 96) =      7.02677  eV     2   -->   2 G_2            
     e( 97 - 97) =      7.67471  eV     1   --> G_2            
     e( 98 - 98) =      7.67483  eV     1   --> G_2            
     e( 99 - 99) =      7.71973  eV     1   --> G_2            
     e(100 -100) =      7.71991  eV     1   --> G_2            

 **************************************************************************

 **************************************************************************

                    xk=(   0.02143,   0.01237,   0.00000  )

     Band symmetry, C_1 (1)     double point group:

     e(  1 -  2) =    -35.43540  eV     2   -->   2 G_2            
     e(  3 -  4) =    -35.42939  eV     2   -->   2 G_2            
     e(  5 -  6) =    -35.40928  eV     2   -->   2 G_2            
     e(  7 -  8) =    -35.40332  eV     2   -->   2 G_2            
     e(  9 - 10) =    -35.32138  eV     2   -->   2 G_2            
     e( 11 - 12) =    -35.28595  eV     2   -->   2 G_2            
     e( 13 - 14) =    -33.97564  eV     2   -->   2 G_2            
     e( 15 - 16) =    -33.96961  eV     2   -->   2 G_2            
     e( 17 - 18) =    -33.95344  eV     2   -->   2 G_2            
     e( 19 - 20) =    -33.94750  eV     2   -->   2 G_2            
     e( 21 - 22) =    -33.94170  eV     2   -->   2 G_2            
     e( 23 - 24) =    -33.93573  eV     2   -->   2 G_2            
     e( 25 - 26) =    -33.85883  eV     2   -->   2 G_2            
     e( 27 - 28) =    -33.84344  eV     2   -->   2 G_2            
     e( 29 - 30) =    -33.81284  eV     2   -->   2 G_2            
     e( 31 - 32) =    -28.06019  eV     2   -->   2 G_2            
     e( 33 - 34) =    -28.05612  eV     2   -->   2 G_2            
     e( 35 - 36) =    -28.05141  eV     2   -->   2 G_2            
     e( 37 - 38) =    -28.04740  eV     2   -->   2 G_2            
     e( 39 - 40) =    -26.82112  eV     2   -->   2 G_2            
     e( 41 - 42) =    -26.81704  eV     2   -->   2 G_2            
     e( 43 - 44) =    -26.81112  eV     2   -->   2 G_2            
     e( 45 - 46) =    -26.80987  eV     2   -->   2 G_2            
     e( 47 - 48) =    -26.80708  eV     2   -->   2 G_2            
     e( 49 - 50) =    -26.80586  eV     2   -->   2 G_2            
     e( 51 - 52) =    -10.58099  eV     2   -->   2 G_2            
     e( 53 - 54) =    -10.05520  eV     2   -->   2 G_2            
     e( 55 - 56) =     -8.97119  eV     2   -->   2 G_2            
     e( 57 - 58) =     -6.21415  eV     2   -->   2 G_2            
     e( 59 - 60) =     -4.80343  eV     2   -->   2 G_2            
     e( 61 - 62) =     -0.45055  eV     2   -->   2 G_2            
     e( 63 - 63) =      0.02593  eV     1   --> G_2            
     e( 64 - 64) =      0.02749  eV     1   --> G_2            
     e( 65 - 65) =      0.32362  eV     1   --> G_2            
     e( 66 - 66) =      0.32523  eV     1   --> G_2            
     e( 67 - 67) =      0.55962  eV     1   --> G_2            
     e( 68 - 68) =      0.56251  eV     1   --> G_2            
     e( 69 - 69) =      0.59732  eV     1   --> G_2            
     e( 70 - 70) =      0.60049  eV     1   --> G_2            
     e( 71 - 71) =      0.83030  eV     1   --> G_2            
     e( 72 - 72) =      0.83540  eV     1   --> G_2            
     e( 73 - 73) =      1.03606  eV     1   --> G_2            
     e( 74 - 74) =      1.03765  eV     1   --> G_2            
     e( 75 - 75) =      1.35793  eV     1   --> G_2            
     e( 76 - 76) =      1.35919  eV     1   --> G_2            
     e( 77 - 77) =      1.56613  eV     1   --> G_2            
     e( 78 - 78) =      1.56722  eV     1   --> G_2            
     e( 79 - 79) =      2.29059  eV     1   --> G_2            
     e( 80 - 80) =      2.29156  eV     1   --> G_2            
     e( 81 - 81) =      2.85434  eV     1   --> G_2            
     e( 82 - 82) =      2.85522  eV     1   --> G_2            
     e( 83 - 83) =      3.13096  eV     1   --> G_2            
     e( 84 - 84) =      3.13255  eV     1   --> G_2            
     e( 85 - 85) =      3.44864  eV     1   --> G_2            
     e( 86 - 86) =      3.45041  eV     1   --> G_2            
     e( 87 - 87) =      4.18800  eV     1   --> G_2            
     e( 88 - 88) =      4.18860  eV     1   --> G_2            
     e( 89 - 89) =      4.26524  eV     1   --> G_2            
     e( 90 - 90) =      4.26554  eV     1   --> G_2            
     e( 91 - 92) =      6.27157  eV     2   -->   2 G_2            
     e( 93 - 94) =      6.46432  eV     2   -->   2 G_2            
     e( 95 - 96) =      7.02791  eV     2   -->   2 G_2            
     e( 97 - 97) =      7.67033  eV     1   --> G_2            
     e( 98 - 98) =      7.67053  eV     1   --> G_2            
     e( 99 - 99) =      7.70658  eV     1   --> G_2            
     e(100 -100) =      7.70687  eV     1   --> G_2            

 **************************************************************************

 **************************************************************************

                    xk=(   0.02857,   0.01650,   0.00000  )

     Band symmetry, C_1 (1)     double point group:

     e(  1 -  2) =    -35.43540  eV     2   -->   2 G_2            
     e(  3 -  4) =    -35.42939  eV     2   -->   2 G_2            
     e(  5 -  6) =    -35.40928  eV     2   -->   2 G_2            
     e(  7 -  8) =    -35.40332  eV     2   -->   2 G_2            
     e(  9 - 10) =    -35.32138  eV     2   -->   2 G_2            
     e( 11 - 12) =    -35.28594  eV     2   -->   2 G_2            
     e( 13 - 14) =    -33.97564  eV     2   -->   2 G_2            
     e( 15 - 16) =    -33.96961  eV     2   -->   2 G_2            
     e( 17 - 18) =    -33.95344  eV     2   -->   2 G_2            
     e( 19 - 20) =    -33.94750  eV     2   -->   2 G_2            
     e( 21 - 22) =    -33.94170  eV     2   -->   2 G_2            
     e( 23 - 24) =    -33.93573  eV     2   -->   2 G_2            
     e( 25 - 26) =    -33.85883  eV     2   -->   2 G_2            
     e( 27 - 28) =    -33.84344  eV     2   -->   2 G_2            
     e( 29 - 30) =    -33.81284  eV     2   -->   2 G_2            
     e( 31 - 32) =    -28.06019  eV     2   -->   2 G_2            
     e( 33 - 34) =    -28.05612  eV     2   -->   2 G_2            
     e( 35 - 36) =    -28.05141  eV     2   -->   2 G_2            
     e( 37 - 38) =    -28.04740  eV     2   -->   2 G_2            
     e( 39 - 40) =    -26.82112  eV     2   -->   2 G_2            
     e( 41 - 42) =    -26.81704  eV     2   -->   2 G_2            
     e( 43 - 44) =    -26.81112  eV     2   -->   2 G_2            
     e( 45 - 46) =    -26.80987  eV     2   -->   2 G_2            
     e( 47 - 48) =    -26.80709  eV     2   -->   2 G_2            
     e( 49 - 50) =    -26.80586  eV     2   -->   2 G_2            
     e( 51 - 52) =    -10.57794  eV     2   -->   2 G_2            
     e( 53 - 54) =    -10.05238  eV     2   -->   2 G_2            
     e( 55 - 56) =     -8.96942  eV     2   -->   2 G_2            
     e( 57 - 58) =     -6.21448  eV     2   -->   2 G_2            
     e( 59 - 60) =     -4.80863  eV     2   -->   2 G_2            
     e( 61 - 62) =     -0.45514  eV     2   -->   2 G_2            
     e( 63 - 63) =     -0.00904  eV     1   --> G_2            
     e( 64 - 64) =     -0.00718  eV     1   --> G_2            
     e( 65 - 65) =      0.32259  eV     1   --> G_2            
     e( 66 - 66) =      0.32444  eV     1   --> G_2            
     e( 67 - 67) =      0.51870  eV     1   --> G_2            
     e( 68 - 68) =      0.52272  eV     1   --> G_2            
     e( 69 - 69) =      0.57895  eV     1   --> G_2            
     e( 70 - 70) =      0.58163  eV     1   --> G_2            
     e( 71 - 71) =      0.83948  eV     1   --> G_2            
     e( 72 - 72) =      0.84474  eV     1   --> G_2            
     e( 73 - 73) =      1.05564  eV     1   --> G_2            
     e( 74 - 74) =      1.05760  eV     1   --> G_2            
     e( 75 - 75) =      1.33851  eV     1   --> G_2            
     e( 76 - 76) =      1.34016  eV     1   --> G_2            
     e( 77 - 77) =      1.59204  eV     1   --> G_2            
     e( 78 - 78) =      1.59336  eV     1   --> G_2            
     e( 79 - 79) =      2.32237  eV     1   --> G_2            
     e( 80 - 80) =      2.32360  eV     1   --> G_2            
     e( 81 - 81) =      2.85576  eV     1   --> G_2            
     e( 82 - 82) =      2.85678  eV     1   --> G_2            
     e( 83 - 83) =      3.11100  eV     1   --> G_2            
     e( 84 - 84) =      3.11270  eV     1   --> G_2            
     e( 85 - 85) =      3.47450  eV     1   --> G_2            
     e( 86 - 86) =      3.47649  eV     1   --> G_2            
     e( 87 - 87) =      4.20363  eV     1   --> G_2            
     e( 88 - 88) =      4.20444  eV     1   --> G_2            
     e( 89 - 89) =      4.26424  eV     1   --> G_2            
     e( 90 - 90) =      4.26456  eV     1   --> G_2            
     e( 91 - 92) =      6.27724  eV     2   -->   2 G_2            
     e( 93 - 94) =      6.46568  eV     2   -->   2 G_2            
     e( 95 - 96) =      7.02937  eV     2   -->   2 G_2            
     e( 97 - 97) =      7.65728  eV     1   --> G_2            
     e( 98 - 98) =      7.65749  eV     1   --> G_2            
     e( 99 - 99) =      7.69636  eV     1   --> G_2            
     e(100 -100) =      7.69668  eV     1   --> G_2            

 **************************************************************************

 **************************************************************************

                    xk=(   0.03571,   0.02062,   0.00000  )

     Band symmetry, C_1 (1)     double point group:

     e(  1 -  2) =    -35.43539  eV     2   -->   2 G_2            
     e(  3 -  4) =    -35.42938  eV     2   -->   2 G_2            
     e(  5 -  6) =    -35.40928  eV     2   -->   2 G_2            
     e(  7 -  8) =    -35.40332  eV     2   -->   2 G_2            
     e(  9 - 10) =    -35.32138  eV     2   -->   2 G_2            
     e( 11 - 12) =    -35.28594  eV     2   -->   2 G_2            
     e( 13 - 14) =    -33.97564  eV     2   -->   2 G_2            
     e( 15 - 16) =    -33.96961  eV     2   -->   2 G_2            
     e( 17 - 18) =    -33.95344  eV     2   -->   2 G_2            
     e( 19 - 20) =    -33.94750  eV     2   -->   2 G_2            
     e( 21 - 22) =    -33.94170  eV     2   -->   2 G_2            
     e( 23 - 24) =    -33.93573  eV     2   -->   2 G_2            
     e( 25 - 26) =    -33.85883  eV     2   -->   2 G_2            
     e( 27 - 28) =    -33.84344  eV     2   -->   2 G_2            
     e( 29 - 30) =    -33.81283  eV     2   -->   2 G_2            
     e( 31 - 32) =    -28.06019  eV     2   -->   2 G_2            
     e( 33 - 34) =    -28.05611  eV     2   -->   2 G_2            
     e( 35 - 36) =    -28.05142  eV     2   -->   2 G_2            
     e( 37 - 38) =    -28.04740  eV     2   -->   2 G_2            
     e( 39 - 40) =    -26.82111  eV     2   -->   2 G_2            
     e( 41 - 42) =    -26.81703  eV     2   -->   2 G_2            
     e( 43 - 44) =    -26.81113  eV     2   -->   2 G_2            
     e( 45 - 46) =    -26.80987  eV     2   -->   2 G_2            
     e( 47 - 48) =    -26.80709  eV     2   -->   2 G_2            
     e( 49 - 50) =    -26.80586  eV     2   -->   2 G_2            
     e( 51 - 52) =    -10.57399  eV     2   -->   2 G_2            
     e( 53 - 54) =    -10.04871  eV     2   -->   2 G_2            
     e( 55 - 56) =     -8.96715  eV     2   -->   2 G_2            
     e( 57 - 58) =     -6.21490  eV     2   -->   2 G_2            
     e( 59 - 60) =     -4.81526  eV     2   -->   2 G_2            
     e( 61 - 61) =     -0.46121  eV     1   --> G_2            
     e( 62 - 62) =     -0.46108  eV     1   --> G_2            
     e( 63 - 63) =     -0.05023  eV     1   --> G_2            
     e( 64 - 64) =     -0.04813  eV     1   --> G_2            
     e( 65 - 65) =      0.31790  eV     1   --> G_2            
     e( 66 - 66) =      0.31983  eV     1   --> G_2            
     e( 67 - 67) =      0.46936  eV     1   --> G_2            
     e( 68 - 68) =      0.47357  eV     1   --> G_2            
     e( 69 - 69) =      0.56570  eV     1   --> G_2            
     e( 70 - 70) =      0.56821  eV     1   --> G_2            
     e( 71 - 71) =      0.84230  eV     1   --> G_2            
     e( 72 - 72) =      0.84751  eV     1   --> G_2            
     e( 73 - 73) =      1.07472  eV     1   --> G_2            
     e( 74 - 74) =      1.07702  eV     1   --> G_2            
     e( 75 - 75) =      1.32160  eV     1   --> G_2            
     e( 76 - 76) =      1.32361  eV     1   --> G_2            
     e( 77 - 77) =      1.62307  eV     1   --> G_2            
     e( 78 - 78) =      1.62452  eV     1   --> G_2            
     e( 79 - 79) =      2.35704  eV     1   --> G_2            
     e( 80 - 80) =      2.35846  eV     1   --> G_2            
     e( 81 - 81) =      2.85784  eV     1   --> G_2            
     e( 82 - 82) =      2.85884  eV     1   --> G_2            
     e( 83 - 83) =      3.09507  eV     1   --> G_2            
     e( 84 - 84) =      3.09668  eV     1   --> G_2            
     e( 85 - 85) =      3.50093  eV     1   --> G_2            
     e( 86 - 86) =      3.50304  eV     1   --> G_2            
     e( 87 - 87) =      4.21889  eV     1   --> G_2            
     e( 88 - 88) =      4.21999  eV     1   --> G_2            
     e( 89 - 89) =      4.26756  eV     1   --> G_2            
     e( 90 - 90) =      4.26796  eV     1   --> G_2            
     e( 91 - 92) =      6.28447  eV     2   -->   2 G_2            
     e( 93 - 94) =      6.46740  eV     2   -->   2 G_2            
     e( 95 - 96) =      7.03097  eV     2   -->   2 G_2            
     e( 97 - 97) =      7.63323  eV     1   --> G_2            
     e( 98 - 98) =      7.63336  eV     1   --> G_2            
     e( 99 - 99) =      7.69263  eV     1   --> G_2            
     e(100 -100) =      7.69288  eV     1   --> G_2            

 **************************************************************************

 **************************************************************************

                    xk=(   0.04286,   0.02474,   0.00000  )

     Band symmetry, C_1 (1)     double point group:

     e(  1 -  2) =    -35.43539  eV     2   -->   2 G_2            
     e(  3 -  4) =    -35.42938  eV     2   -->   2 G_2            
     e(  5 -  6) =    -35.40928  eV     2   -->   2 G_2            
     e(  7 -  8) =    -35.40332  eV     2   -->   2 G_2            
     e(  9 - 10) =    -35.32138  eV     2   -->   2 G_2            
     e( 11 - 12) =    -35.28594  eV     2   -->   2 G_2            
     e( 13 - 14) =    -33.97563  eV     2   -->   2 G_2            
     e( 15 - 16) =    -33.96960  eV     2   -->   2 G_2            
     e( 17 - 18) =    -33.95344  eV     2   -->   2 G_2            
     e( 19 - 20) =    -33.94750  eV     2   -->   2 G_2            
     e( 21 - 22) =    -33.94170  eV     2   -->   2 G_2            
     e( 23 - 24) =    -33.93573  eV     2   -->   2 G_2            
     e( 25 - 26) =    -33.85882  eV     2   -->   2 G_2            
     e( 27 - 28) =    -33.84344  eV     2   -->   2 G_2            
     e( 29 - 30) =    -33.81283  eV     2   -->   2 G_2            
     e( 31 - 32) =    -28.06018  eV     2   -->   2 G_2            
     e( 33 - 34) =    -28.05611  eV     2   -->   2 G_2            
     e( 35 - 36) =    -28.05142  eV     2   -->   2 G_2            
     e( 37 - 38) =    -28.04741  eV     2   -->   2 G_2            
     e( 39 - 40) =    -26.82110  eV     2   -->   2 G_2            
     e( 41 - 42) =    -26.81702  eV     2   -->   2 G_2            
     e( 43 - 44) =    -26.81114  eV     2   -->   2 G_2            
     e( 45 - 46) =    -26.80987  eV     2   -->   2 G_2            
     e( 47 - 48) =    -26.80710  eV     2   -->   2 G_2            
     e( 49 - 50) =    -26.80586  eV     2   -->   2 G_2            
     e( 51 - 52) =    -10.56913  eV     2   -->   2 G_2            
     e( 53 - 54) =    -10.04424  eV     2   -->   2 G_2            
     e( 55 - 56) =     -8.96434  eV     2   -->   2 G_2            
     e( 57 - 58) =     -6.21538  eV     2   -->   2 G_2            
     e( 59 - 60) =     -4.82338  eV     2   -->   2 G_2            
     e( 61 - 61) =     -0.46890  eV     1   --> G_2            
     e( 62 - 62) =     -0.46873  eV     1   --> G_2            
     e( 63 - 63) =     -0.09644  eV     1   --> G_2            
     e( 64 - 64) =     -0.09414  eV     1   --> G_2            
     e( 65 - 65) =      0.30855  eV     1   --> G_2            
     e( 66 - 66) =      0.31039  eV     1   --> G_2            
     e( 67 - 67) =      0.41820  eV     1   --> G_2            
     e( 68 - 68) =      0.42234  eV     1   --> G_2            
     e( 69 - 69) =      0.55258  eV     1   --> G_2            
     e( 70 - 70) =      0.55504  eV     1   --> G_2            
     e( 71 - 71) =      0.83862  eV     1   --> G_2            
     e( 72 - 72) =      0.84366  eV     1   --> G_2            
     e( 73 - 73) =      1.08935  eV     1   --> G_2            
     e( 74 - 74) =      1.09190  eV     1   --> G_2            
     e( 75 - 75) =      1.31260  eV     1   --> G_2            
     e( 76 - 76) =      1.31483  eV     1   --> G_2            
     e( 77 - 77) =      1.65720  eV     1   --> G_2            
     e( 78 - 78) =      1.65870  eV     1   --> G_2            
     e( 79 - 79) =      2.39132  eV     1   --> G_2            
     e( 80 - 80) =      2.39286  eV     1   --> G_2            
     e( 81 - 81) =      2.86150  eV     1   --> G_2            
     e( 82 - 82) =      2.86226  eV     1   --> G_2            
     e( 83 - 83) =      3.08572  eV     1   --> G_2            
     e( 84 - 84) =      3.08709  eV     1   --> G_2            
     e( 85 - 85) =      3.52671  eV     1   --> G_2            
     e( 86 - 86) =      3.52888  eV     1   --> G_2            
     e( 87 - 87) =      4.22702  eV     1   --> G_2            
     e( 88 - 88) =      4.22838  eV     1   --> G_2            
     e( 89 - 89) =      4.28174  eV     1   --> G_2            
     e( 90 - 90) =      4.28243  eV     1   --> G_2            
     e( 91 - 92) =      6.29319  eV     2   -->   2 G_2            
     e( 93 - 94) =      6.46947  eV     2   -->   2 G_2            
     e( 95 - 96) =      7.03249  eV     2   -->   2 G_2            
     e( 97 - 98) =      7.60266  eV     2   -->   2 G_2            
     e( 99 - 99) =      7.69217  eV     1   --> G_2            
     e(100 -100) =      7.69236  eV     1   --> G_2            

 **************************************************************************

 **************************************************************************

                    xk=(   0.05000,   0.02887,   0.00000  )

     Band symmetry, C_1 (1)     double point group:

     e(  1 -  2) =    -35.43539  eV     2   -->   2 G_2            
     e(  3 -  4) =    -35.42938  eV     2   -->   2 G_2            
     e(  5 -  6) =    -35.40928  eV     2   -->   2 G_2            
     e(  7 -  8) =    -35.40332  eV     2   -->   2 G_2            
     e(  9 - 10) =    -35.32138  eV     2   -->   2 G_2            
     e( 11 - 12) =    -35.28594  eV     2   -->   2 G_2            
     e( 13 - 14) =    -33.97563  eV     2   -->   2 G_2            
     e( 15 - 16) =    -33.96960  eV     2   -->   2 G_2            
     e( 17 - 18) =    -33.95344  eV     2   -->   2 G_2            
     e( 19 - 20) =    -33.94750  eV     2   -->   2 G_2            
     e( 21 - 22) =    -33.94170  eV     2   -->   2 G_2            
     e( 23 - 24) =    -33.93573  eV     2   -->   2 G_2            
     e( 25 - 26) =    -33.85882  eV     2   -->   2 G_2            
     e( 27 - 28) =    -33.84344  eV     2   -->   2 G_2            
     e( 29 - 30) =    -33.81282  eV     2   -->   2 G_2            
     e( 31 - 32) =    -28.06018  eV     2   -->   2 G_2            
     e( 33 - 34) =    -28.05610  eV     2   -->   2 G_2            
     e( 35 - 36) =    -28.05143  eV     2   -->   2 G_2            
     e( 37 - 38) =    -28.04741  eV     2   -->   2 G_2            
     e( 39 - 40) =    -26.82109  eV     2   -->   2 G_2            
     e( 41 - 42) =    -26.81701  eV     2   -->   2 G_2            
     e( 43 - 44) =    -26.81115  eV     2   -->   2 G_2            
     e( 45 - 46) =    -26.80987  eV     2   -->   2 G_2            
     e( 47 - 48) =    -26.80711  eV     2   -->   2 G_2            
     e( 49 - 50) =    -26.80586  eV     2   -->   2 G_2            
     e( 51 - 52) =    -10.56342  eV     2   -->   2 G_2            
     e( 53 - 54) =    -10.03900  eV     2   -->   2 G_2            
     e( 55 - 56) =     -8.96108  eV     2   -->   2 G_2            
     e( 57 - 58) =     -6.21601  eV     2   -->   2 G_2            
     e( 59 - 60) =     -4.83302  eV     2   -->   2 G_2            
     e( 61 - 61) =     -0.47843  eV     1   --> G_2            
     e( 62 - 62) =     -0.47818  eV     1   --> G_2            
     e( 63 - 63) =     -0.14666  eV     1   --> G_2            
     e( 64 - 64) =     -0.14418  eV     1   --> G_2            
     e( 65 - 65) =      0.29344  eV     1   --> G_2            
     e( 66 - 66) =      0.29494  eV     1   --> G_2            
     e( 67 - 67) =      0.36811  eV     1   --> G_2            
     e( 68 - 68) =      0.37196  eV     1   --> G_2            
     e( 69 - 69) =      0.53856  eV     1   --> G_2            
     e( 70 - 70) =      0.54095  eV     1   --> G_2            
     e( 71 - 71) =      0.82819  eV     1   --> G_2            
     e( 72 - 72) =      0.83293  eV     1   --> G_2            
     e( 73 - 73) =      1.09721  eV     1   --> G_2            
     e( 74 - 74) =      1.09981  eV     1   --> G_2            
     e( 75 - 75) =      1.31549  eV     1   --> G_2            
     e( 76 - 76) =      1.31772  eV     1   --> G_2            
     e( 77 - 77) =      1.69222  eV     1   --> G_2            
     e( 78 - 78) =      1.69371  eV     1   --> G_2            
     e( 79 - 79) =      2.42223  eV     1   --> G_2            
     e( 80 - 80) =      2.42382  eV     1   --> G_2            
     e( 81 - 81) =      2.86837  eV     1   --> G_2            
     e( 82 - 82) =      2.86871  eV     1   --> G_2            
     e( 83 - 83) =      3.08442  eV     1   --> G_2            
     e( 84 - 84) =      3.08540  eV     1   --> G_2            
     e( 85 - 85) =      3.55125  eV     1   --> G_2            
     e( 86 - 86) =      3.55344  eV     1   --> G_2            
     e( 87 - 87) =      4.22735  eV     1   --> G_2            
     e( 88 - 88) =      4.22884  eV     1   --> G_2            
     e( 89 - 89) =      4.30747  eV     1   --> G_2            
     e( 90 - 90) =      4.30832  eV     1   --> G_2            
     e( 91 - 91) =      6.30336  eV     1   --> G_2            
     e( 92 - 92) =      6.30348  eV     1   --> G_2            
     e( 93 - 93) =      6.47185  eV     1   --> G_2            
     e( 94 - 94) =      6.47196  eV     1   --> G_2            
     e( 95 - 96) =      7.03362  eV     2   -->   2 G_2            
     e( 97 - 98) =      7.56897  eV     2   -->   2 G_2            
     e( 99 - 99) =      7.69290  eV     1   --> G_2            
     e(100 -100) =      7.69306  eV     1   --> G_2            

 **************************************************************************

 **************************************************************************

                    xk=(   0.05714,   0.03299,   0.00000  )

     Band symmetry, C_1 (1)     double point group:

     e(  1 -  2) =    -35.43538  eV     2   -->   2 G_2            
     e(  3 -  4) =    -35.42937  eV     2   -->   2 G_2            
     e(  5 -  6) =    -35.40928  eV     2   -->   2 G_2            
     e(  7 -  8) =    -35.40332  eV     2   -->   2 G_2            
     e(  9 - 10) =    -35.32138  eV     2   -->   2 G_2            
     e( 11 - 12) =    -35.28593  eV     2   -->   2 G_2            
     e( 13 - 14) =    -33.97562  eV     2   -->   2 G_2            
     e( 15 - 16) =    -33.96959  eV     2   -->   2 G_2            
     e( 17 - 18) =    -33.95344  eV     2   -->   2 G_2            
     e( 19 - 20) =    -33.94750  eV     2   -->   2 G_2            
     e( 21 - 22) =    -33.94170  eV     2   -->   2 G_2            
     e( 23 - 24) =    -33.93572  eV     2   -->   2 G_2            
     e( 25 - 26) =    -33.85882  eV     2   -->   2 G_2            
     e( 27 - 28) =    -33.84344  eV     2   -->   2 G_2            
     e( 29 - 30) =    -33.81282  eV     2   -->   2 G_2            
     e( 31 - 32) =    -28.06017  eV     2   -->   2 G_2            
     e( 33 - 34) =    -28.05610  eV     2   -->   2 G_2            
     e( 35 - 36) =    -28.05143  eV     2   -->   2 G_2            
     e( 37 - 38) =    -28.04742  eV     2   -->   2 G_2            
     e( 39 - 40) =    -26.82107  eV     2   -->   2 G_2            
     e( 41 - 42) =    -26.81699  eV     2   -->   2 G_2            
     e( 43 - 44) =    -26.81116  eV     2   -->   2 G_2            
     e( 45 - 46) =    -26.80987  eV     2   -->   2 G_2            
     e( 47 - 48) =    -26.80712  eV     2   -->   2 G_2            
     e( 49 - 50) =    -26.80586  eV     2   -->   2 G_2            
     e( 51 - 52) =    -10.55683  eV     2   -->   2 G_2            
     e( 53 - 54) =    -10.03294  eV     2   -->   2 G_2            
     e( 55 - 56) =     -8.95730  eV     2   -->   2 G_2            
     e( 57 - 58) =     -6.21677  eV     2   -->   2 G_2            
     e( 59 - 60) =     -4.84415  eV     2   -->   2 G_2            
     e( 61 - 61) =     -0.49013  eV     1   --> G_2            
     e( 62 - 62) =     -0.48977  eV     1   --> G_2            
     e( 63 - 63) =     -0.19996  eV     1   --> G_2            
     e( 64 - 64) =     -0.19729  eV     1   --> G_2            
     e( 65 - 65) =      0.26958  eV     1   --> G_2            
     e( 66 - 66) =      0.27100  eV     1   --> G_2            
     e( 67 - 67) =      0.32307  eV     1   --> G_2            
     e( 68 - 68) =      0.32618  eV     1   --> G_2            
     e( 69 - 69) =      0.52311  eV     1   --> G_2            
     e( 70 - 70) =      0.52542  eV     1   --> G_2            
     e( 71 - 71) =      0.81089  eV     1   --> G_2            
     e( 72 - 72) =      0.81521  eV     1   --> G_2            
     e( 73 - 73) =      1.09933  eV     1   --> G_2            
     e( 74 - 74) =      1.10180  eV     1   --> G_2            
     e( 75 - 75) =      1.33049  eV     1   --> G_2            
     e( 76 - 76) =      1.33254  eV     1   --> G_2            
     e( 77 - 77) =      1.72584  eV     1   --> G_2            
     e( 78 - 78) =      1.72727  eV     1   --> G_2            
     e( 79 - 79) =      2.44773  eV     1   --> G_2            
     e( 80 - 80) =      2.44930  eV     1   --> G_2            
     e( 81 - 81) =      2.88002  eV     1   --> G_2            
     e( 82 - 82) =      2.88051  eV     1   --> G_2            
     e( 83 - 83) =      3.09151  eV     1   --> G_2            
     e( 84 - 84) =      3.09212  eV     1   --> G_2            
     e( 85 - 85) =      3.57439  eV     1   --> G_2            
     e( 86 - 86) =      3.57656  eV     1   --> G_2            
     e( 87 - 87) =      4.22455  eV     1   --> G_2            
     e( 88 - 88) =      4.22613  eV     1   --> G_2            
     e( 89 - 89) =      4.33980  eV     1   --> G_2            
     e( 90 - 90) =      4.34072  eV     1   --> G_2            
     e( 91 - 91) =      6.31490  eV     1   --> G_2            
     e( 92 - 92) =      6.31504  eV     1   --> G_2            
     e( 93 - 93) =      6.47451  eV     1   --> G_2            
     e( 94 - 94) =      6.47464  eV     1   --> G_2            
     e( 95 - 96) =      7.03393  eV     2   -->   2 G_2            
     e( 97 - 98) =      7.53423  eV     2   -->   2 G_2            
     e( 99 - 99) =      7.69414  eV     1   --> G_2            
     e(100 -100) =      7.69428  eV     1   --> G_2            

 **************************************************************************

 **************************************************************************

                    xk=(   0.06429,   0.03712,   0.00000  )

     Band symmetry, C_1 (1)     double point group:

     e(  1 -  2) =    -35.43538  eV     2   -->   2 G_2            
     e(  3 -  4) =    -35.42937  eV     2   -->   2 G_2            
     e(  5 -  6) =    -35.40928  eV     2   -->   2 G_2            
     e(  7 -  8) =    -35.40332  eV     2   -->   2 G_2            
     e(  9 - 10) =    -35.32138  eV     2   -->   2 G_2            
     e( 11 - 12) =    -35.28593  eV     2   -->   2 G_2            
     e( 13 - 14) =    -33.97561  eV     2   -->   2 G_2            
     e( 15 - 16) =    -33.96958  eV     2   -->   2 G_2            
     e( 17 - 18) =    -33.95344  eV     2   -->   2 G_2            
     e( 19 - 20) =    -33.94750  eV     2   -->   2 G_2            
     e( 21 - 22) =    -33.94170  eV     2   -->   2 G_2            
     e( 23 - 24) =    -33.93572  eV     2   -->   2 G_2            
     e( 25 - 26) =    -33.85882  eV     2   -->   2 G_2            
     e( 27 - 28) =    -33.84344  eV     2   -->   2 G_2            
     e( 29 - 30) =    -33.81281  eV     2   -->   2 G_2            
     e( 31 - 32) =    -28.06016  eV     2   -->   2 G_2            
     e( 33 - 34) =    -28.05609  eV     2   -->   2 G_2            
     e( 35 - 36) =    -28.05144  eV     2   -->   2 G_2            
     e( 37 - 38) =    -28.04742  eV     2   -->   2 G_2            
     e( 39 - 40) =    -26.82106  eV     2   -->   2 G_2            
     e( 41 - 42) =    -26.81698  eV     2   -->   2 G_2            
     e( 43 - 44) =    -26.81118  eV     2   -->   2 G_2            
     e( 45 - 46) =    -26.80987  eV     2   -->   2 G_2            
     e( 47 - 48) =    -26.80713  eV     2   -->   2 G_2            
     e( 49 - 50) =    -26.80586  eV     2   -->   2 G_2            
     e( 51 - 52) =    -10.54936  eV     2   -->   2 G_2            
     e( 53 - 54) =    -10.02607  eV     2   -->   2 G_2            
     e( 55 - 56) =     -8.95308  eV     2   -->   2 G_2            
     e( 57 - 58) =     -6.21772  eV     2   -->   2 G_2            
     e( 59 - 60) =     -4.85677  eV     2   -->   2 G_2            
     e( 61 - 61) =     -0.50451  eV     1   --> G_2            
     e( 62 - 62) =     -0.50399  eV     1   --> G_2            
     e( 63 - 63) =     -0.25532  eV     1   --> G_2            
     e( 64 - 64) =     -0.25244  eV     1   --> G_2            
     e( 65 - 65) =      0.23228  eV     1   --> G_2            
     e( 66 - 66) =      0.23502  eV     1   --> G_2            
     e( 67 - 67) =      0.28787  eV     1   --> G_2            
     e( 68 - 68) =      0.29034  eV     1   --> G_2            
     e( 69 - 69) =      0.50572  eV     1   --> G_2            
     e( 70 - 70) =      0.50794  eV     1   --> G_2            
     e( 71 - 71) =      0.78724  eV     1   --> G_2            
     e( 72 - 72) =      0.79102  eV     1   --> G_2            
     e( 73 - 73) =      1.09900  eV     1   --> G_2            
     e( 74 - 74) =      1.10124  eV     1   --> G_2            
     e( 75 - 75) =      1.35456  eV     1   --> G_2            
     e( 76 - 76) =      1.35639  eV     1   --> G_2            
     e( 77 - 77) =      1.75568  eV     1   --> G_2            
     e( 78 - 78) =      1.75701  eV     1   --> G_2            
     e( 79 - 79) =      2.46744  eV     1   --> G_2            
     e( 80 - 80) =      2.46893  eV     1   --> G_2            
     e( 81 - 81) =      2.89762  eV     1   --> G_2            
     e( 82 - 82) =      2.89878  eV     1   --> G_2            
     e( 83 - 83) =      3.10651  eV     1   --> G_2            
     e( 84 - 84) =      3.10711  eV     1   --> G_2            
     e( 85 - 85) =      3.59626  eV     1   --> G_2            
     e( 86 - 86) =      3.59838  eV     1   --> G_2            
     e( 87 - 87) =      4.22126  eV     1   --> G_2            
     e( 88 - 88) =      4.22292  eV     1   --> G_2            
     e( 89 - 89) =      4.37584  eV     1   --> G_2            
     e( 90 - 90) =      4.37678  eV     1   --> G_2            
     e( 91 - 91) =      6.32774  eV     1   --> G_2            
     e( 92 - 92) =      6.32789  eV     1   --> G_2            
     e( 93 - 93) =      6.47739  eV     1   --> G_2            
     e( 94 - 94) =      6.47754  eV     1   --> G_2            
     e( 95 - 96) =      7.03290  eV     2   -->   2 G_2            
     e( 97 - 97) =      7.50005  eV     1   --> G_2            
     e( 98 - 98) =      7.50016  eV     1   --> G_2            
     e( 99 - 99) =      7.69559  eV     1   --> G_2            
     e(100 -100) =      7.69571  eV     1   --> G_2            

 **************************************************************************

 **************************************************************************

                    xk=(   0.07143,   0.04124,   0.00000  )

     Band symmetry, C_1 (1)     double point group:

     e(  1 -  2) =    -35.43537  eV     2   -->   2 G_2            
     e(  3 -  4) =    -35.42937  eV     2   -->   2 G_2            
     e(  5 -  6) =    -35.40928  eV     2   -->   2 G_2            
     e(  7 -  8) =    -35.40332  eV     2   -->   2 G_2            
     e(  9 - 10) =    -35.32138  eV     2   -->   2 G_2            
     e( 11 - 12) =    -35.28593  eV     2   -->   2 G_2            
     e( 13 - 14) =    -33.97561  eV     2   -->   2 G_2            
     e( 15 - 16) =    -33.96958  eV     2   -->   2 G_2            
     e( 17 - 18) =    -33.95344  eV     2   -->   2 G_2            
     e( 19 - 20) =    -33.94750  eV     2   -->   2 G_2            
     e( 21 - 22) =    -33.94169  eV     2   -->   2 G_2            
     e( 23 - 24) =    -33.93572  eV     2   -->   2 G_2            
     e( 25 - 26) =    -33.85881  eV     2   -->   2 G_2            
     e( 27 - 28) =    -33.84345  eV     2   -->   2 G_2            
     e( 29 - 30) =    -33.81280  eV     2   -->   2 G_2            
     e( 31 - 32) =    -28.06016  eV     2   -->   2 G_2            
     e( 33 - 34) =    -28.05608  eV     2   -->   2 G_2            
     e( 35 - 36) =    -28.05144  eV     2   -->   2 G_2            
     e( 37 - 38) =    -28.04743  eV     2   -->   2 G_2            
     e( 39 - 40) =    -26.82104  eV     2   -->   2 G_2            
     e( 41 - 42) =    -26.81696  eV     2   -->   2 G_2            
     e( 43 - 44) =    -26.81119  eV     2   -->   2 G_2            
     e( 45 - 46) =    -26.80987  eV     2   -->   2 G_2            
     e( 47 - 48) =    -26.80715  eV     2   -->   2 G_2            
     e( 49 - 50) =    -26.80585  eV     2   -->   2 G_2            
     e( 51 - 52) =    -10.54101  eV     2   -->   2 G_2            
     e( 53 - 54) =    -10.01841  eV     2   -->   2 G_2            
     e( 55 - 56) =     -8.94837  eV     2   -->   2 G_2            
     e( 57 - 58) =     -6.21880  eV     2   -->   2 G_2            
     e( 59 - 60) =     -4.87085  eV     2   -->   2 G_2            
     e( 61 - 61) =     -0.52244  eV     1   --> G_2            
     e( 62 - 62) =     -0.52170  eV     1   --> G_2            
     e( 63 - 63) =     -0.31142  eV     1   --> G_2            
     e( 64 - 64) =     -0.30829  eV     1   --> G_2            
     e( 65 - 65) =      0.18546  eV     1   --> G_2            
     e( 66 - 66) =      0.18903  eV     1   --> G_2            
     e( 67 - 67) =      0.26017  eV     1   --> G_2            
     e( 68 - 68) =      0.26249  eV     1   --> G_2            
     e( 69 - 69) =      0.48587  eV     1   --> G_2            
     e( 70 - 70) =      0.48802  eV     1   --> G_2            
     e( 71 - 71) =      0.75861  eV     1   --> G_2            
     e( 72 - 72) =      0.76178  eV     1   --> G_2            
     e( 73 - 73) =      1.09895  eV     1   --> G_2            
     e( 74 - 74) =      1.10096  eV     1   --> G_2            
     e( 75 - 75) =      1.38424  eV     1   --> G_2            
     e( 76 - 76) =      1.38592  eV     1   --> G_2            
     e( 77 - 77) =      1.77942  eV     1   --> G_2            
     e( 78 - 78) =      1.78066  eV     1   --> G_2            
     e( 79 - 79) =      2.48299  eV     1   --> G_2            
     e( 80 - 80) =      2.48437  eV     1   --> G_2            
     e( 81 - 81) =      2.92114  eV     1   --> G_2            
     e( 82 - 82) =      2.92293  eV     1   --> G_2            
     e( 83 - 83) =      3.12871  eV     1   --> G_2            
     e( 84 - 84) =      3.12964  eV     1   --> G_2            
     e( 85 - 85) =      3.61722  eV     1   --> G_2            
     e( 86 - 86) =      3.61926  eV     1   --> G_2            
     e( 87 - 87) =      4.21873  eV     1   --> G_2            
     e( 88 - 88) =      4.22047  eV     1   --> G_2            
     e( 89 - 89) =      4.41416  eV     1   --> G_2            
     e( 90 - 90) =      4.41509  eV     1   --> G_2            
     e( 91 - 91) =      6.34177  eV     1   --> G_2            
     e( 92 - 92) =      6.34194  eV     1   --> G_2            
     e( 93 - 93) =      6.48042  eV     1   --> G_2            
     e( 94 - 94) =      6.48059  eV     1   --> G_2            
     e( 95 - 96) =      7.02992  eV     2   -->   2 G_2            
     e( 97 - 97) =      7.46789  eV     1   --> G_2            
     e( 98 - 98) =      7.46801  eV     1   --> G_2            
     e( 99 - 99) =      7.69714  eV     1   --> G_2            
     e(100 -100) =      7.69725  eV     1   --> G_2            

 **************************************************************************

 **************************************************************************

                    xk=(   0.07857,   0.04536,   0.00000  )

     Band symmetry, C_1 (1)     double point group:

     e(  1 -  2) =    -35.43537  eV     2   -->   2 G_2            
     e(  3 -  4) =    -35.42936  eV     2   -->   2 G_2            
     e(  5 -  6) =    -35.40928  eV     2   -->   2 G_2            
     e(  7 -  8) =    -35.40332  eV     2   -->   2 G_2            
     e(  9 - 10) =    -35.32138  eV     2   -->   2 G_2            
     e( 11 - 12) =    -35.28592  eV     2   -->   2 G_2            
     e( 13 - 14) =    -33.97560  eV     2   -->   2 G_2            
     e( 15 - 16) =    -33.96957  eV     2   -->   2 G_2            
     e( 17 - 18) =    -33.95344  eV     2   -->   2 G_2            
     e( 19 - 20) =    -33.94750  eV     2   -->   2 G_2            
     e( 21 - 22) =    -33.94169  eV     2   -->   2 G_2            
     e( 23 - 24) =    -33.93572  eV     2   -->   2 G_2            
     e( 25 - 26) =    -33.85881  eV     2   -->   2 G_2            
     e( 27 - 28) =    -33.84345  eV     2   -->   2 G_2            
     e( 29 - 30) =    -33.81280  eV     2   -->   2 G_2            
     e( 31 - 32) =    -28.06015  eV     2   -->   2 G_2            
     e( 33 - 34) =    -28.05608  eV     2   -->   2 G_2            
     e( 35 - 36) =    -28.05145  eV     2   -->   2 G_2            
     e( 37 - 38) =    -28.04743  eV     2   -->   2 G_2            
     e( 39 - 40) =    -26.82102  eV     2   -->   2 G_2            
     e( 41 - 42) =    -26.81695  eV     2   -->   2 G_2            
     e( 43 - 44) =    -26.81120  eV     2   -->   2 G_2            
     e( 45 - 46) =    -26.80986  eV     2   -->   2 G_2            
     e( 47 - 48) =    -26.80716  eV     2   -->   2 G_2            
     e( 49 - 50) =    -26.80585  eV     2   -->   2 G_2            
     e( 51 - 52) =    -10.53186  eV     2   -->   2 G_2            
     e( 53 - 54) =    -10.00999  eV     2   -->   2 G_2            
     e( 55 - 56) =     -8.94321  eV     2   -->   2 G_2            
     e( 57 - 58) =     -6.22012  eV     2   -->   2 G_2            
     e( 59 - 60) =     -4.88646  eV     2   -->   2 G_2            
     e( 61 - 61) =     -0.54540  eV     1   --> G_2            
     e( 62 - 62) =     -0.54439  eV     1   --> G_2            
     e( 63 - 63) =     -0.36634  eV     1   --> G_2            
     e( 64 - 64) =     -0.36294  eV     1   --> G_2            
     e( 65 - 65) =      0.13516  eV     1   --> G_2            
     e( 66 - 66) =      0.13901  eV     1   --> G_2            
     e( 67 - 67) =      0.23481  eV     1   --> G_2            
     e( 68 - 68) =      0.23702  eV     1   --> G_2            
     e( 69 - 69) =      0.46307  eV     1   --> G_2            
     e( 70 - 70) =      0.46519  eV     1   --> G_2            
     e( 71 - 71) =      0.72695  eV     1   --> G_2            
     e( 72 - 72) =      0.72946  eV     1   --> G_2            
     e( 73 - 73) =      1.10032  eV     1   --> G_2            
     e( 74 - 74) =      1.10209  eV     1   --> G_2            
     e( 75 - 75) =      1.41701  eV     1   --> G_2            
     e( 76 - 76) =      1.41861  eV     1   --> G_2            
     e( 77 - 77) =      1.79498  eV     1   --> G_2            
     e( 78 - 78) =      1.79617  eV     1   --> G_2            
     e( 79 - 79) =      2.49732  eV     1   --> G_2            
     e( 80 - 80) =      2.49855  eV     1   --> G_2            
     e( 81 - 81) =      2.94915  eV     1   --> G_2            
     e( 82 - 82) =      2.95138  eV     1   --> G_2            
     e( 83 - 83) =      3.15720  eV     1   --> G_2            
     e( 84 - 84) =      3.15846  eV     1   --> G_2            
     e( 85 - 85) =      3.63785  eV     1   --> G_2            
     e( 86 - 86) =      3.63979  eV     1   --> G_2            
     e( 87 - 87) =      4.21780  eV     1   --> G_2            
     e( 88 - 88) =      4.21959  eV     1   --> G_2            
     e( 89 - 89) =      4.45377  eV     1   --> G_2            
     e( 90 - 90) =      4.45468  eV     1   --> G_2            
     e( 91 - 91) =      6.35688  eV     1   --> G_2            
     e( 92 - 92) =      6.35708  eV     1   --> G_2            
     e( 93 - 93) =      6.48350  eV     1   --> G_2            
     e( 94 - 94) =      6.48370  eV     1   --> G_2            
     e( 95 - 96) =      7.02430  eV     2   -->   2 G_2            
     e( 97 - 97) =      7.43912  eV     1   --> G_2            
     e( 98 - 98) =      7.43925  eV     1   --> G_2            
     e( 99 - 99) =      7.69875  eV     1   --> G_2            
     e(100 -100) =      7.69886  eV     1   --> G_2            

 **************************************************************************

 **************************************************************************

                    xk=(   0.08571,   0.04949,   0.00000  )

     Band symmetry, C_1 (1)     double point group:

     e(  1 -  2) =    -35.43537  eV     2   -->   2 G_2            
     e(  3 -  4) =    -35.42936  eV     2   -->   2 G_2            
     e(  5 -  6) =    -35.40928  eV     2   -->   2 G_2            
     e(  7 -  8) =    -35.40332  eV     2   -->   2 G_2            
     e(  9 - 10) =    -35.32138  eV     2   -->   2 G_2            
     e( 11 - 12) =    -35.28592  eV     2   -->   2 G_2            
     e( 13 - 14) =    -33.97559  eV     2   -->   2 G_2            
     e( 15 - 16) =    -33.96956  eV     2   -->   2 G_2            
     e( 17 - 18) =    -33.95344  eV     2   -->   2 G_2            
     e( 19 - 20) =    -33.94750  eV     2   -->   2 G_2            
     e( 21 - 22) =    -33.94169  eV     2   -->   2 G_2            
     e( 23 - 24) =    -33.93571  eV     2   -->   2 G_2            
     e( 25 - 26) =    -33.85881  eV     2   -->   2 G_2            
     e( 27 - 28) =    -33.84345  eV     2   -->   2 G_2            
     e( 29 - 30) =    -33.81279  eV     2   -->   2 G_2            
     e( 31 - 32) =    -28.06014  eV     2   -->   2 G_2            
     e( 33 - 34) =    -28.05607  eV     2   -->   2 G_2            
     e( 35 - 36) =    -28.05145  eV     2   -->   2 G_2            
     e( 37 - 38) =    -28.04744  eV     2   -->   2 G_2            
     e( 39 - 40) =    -26.82100  eV     2   -->   2 G_2            
     e( 41 - 42) =    -26.81693  eV     2   -->   2 G_2            
     e( 43 - 44) =    -26.81122  eV     2   -->   2 G_2            
     e( 45 - 46) =    -26.80986  eV     2   -->   2 G_2            
     e( 47 - 48) =    -26.80717  eV     2   -->   2 G_2            
     e( 49 - 50) =    -26.80585  eV     2   -->   2 G_2            
     e( 51 - 52) =    -10.52178  eV     2   -->   2 G_2            
     e( 53 - 54) =    -10.00073  eV     2   -->   2 G_2            
     e( 55 - 56) =     -8.93754  eV     2   -->   2 G_2            
     e( 57 - 58) =     -6.22159  eV     2   -->   2 G_2            
     e( 59 - 60) =     -4.90347  eV     2   -->   2 G_2            
     e( 61 - 61) =     -0.57562  eV     1   --> G_2            
     e( 62 - 62) =     -0.57439  eV     1   --> G_2            
     e( 63 - 63) =     -0.41732  eV     1   --> G_2            
     e( 64 - 64) =     -0.41369  eV     1   --> G_2            
     e( 65 - 65) =      0.08369  eV     1   --> G_2            
     e( 66 - 66) =      0.08761  eV     1   --> G_2            
     e( 67 - 67) =      0.20981  eV     1   --> G_2            
     e( 68 - 68) =      0.21186  eV     1   --> G_2            
     e( 69 - 69) =      0.43697  eV     1   --> G_2            
     e( 70 - 70) =      0.43913  eV     1   --> G_2            
     e( 71 - 71) =      0.69421  eV     1   --> G_2            
     e( 72 - 72) =      0.69608  eV     1   --> G_2            
     e( 73 - 73) =      1.10313  eV     1   --> G_2            
     e( 74 - 74) =      1.10468  eV     1   --> G_2            
     e( 75 - 75) =      1.45122  eV     1   --> G_2            
     e( 76 - 76) =      1.45279  eV     1   --> G_2            
     e( 77 - 77) =      1.80095  eV     1   --> G_2            
     e( 78 - 78) =      1.80217  eV     1   --> G_2            
     e( 79 - 79) =      2.51339  eV     1   --> G_2            
     e( 80 - 80) =      2.51446  eV     1   --> G_2            
     e( 81 - 81) =      2.97999  eV     1   --> G_2            
     e( 82 - 82) =      2.98246  eV     1   --> G_2            
     e( 83 - 83) =      3.19045  eV     1   --> G_2            
     e( 84 - 84) =      3.19194  eV     1   --> G_2            
     e( 85 - 85) =      3.65895  eV     1   --> G_2            
     e( 86 - 86) =      3.66075  eV     1   --> G_2            
     e( 87 - 87) =      4.21913  eV     1   --> G_2            
     e( 88 - 88) =      4.22094  eV     1   --> G_2            
     e( 89 - 89) =      4.49393  eV     1   --> G_2            
     e( 90 - 90) =      4.49480  eV     1   --> G_2            
     e( 91 - 91) =      6.37293  eV     1   --> G_2            
     e( 92 - 92) =      6.37316  eV     1   --> G_2            
     e( 93 - 93) =      6.48653  eV     1   --> G_2            
     e( 94 - 94) =      6.48676  eV     1   --> G_2            
     e( 95 - 95) =      7.01545  eV     1   --> G_2            
     e( 96 - 96) =      7.01556  eV     1   --> G_2            
     e( 97 - 97) =      7.41497  eV     1   --> G_2            
     e( 98 - 98) =      7.41511  eV     1   --> G_2            
     e( 99 -100) =      7.70047  eV     2   -->   2 G_2            

 **************************************************************************

 **************************************************************************

                    xk=(   0.09286,   0.05361,   0.00000  )

     Band symmetry, C_1 (1)     double point group:

     e(  1 -  2) =    -35.43536  eV     2   -->   2 G_2            
     e(  3 -  4) =    -35.42935  eV     2   -->   2 G_2            
     e(  5 -  6) =    -35.40928  eV     2   -->   2 G_2            
     e(  7 -  8) =    -35.40332  eV     2   -->   2 G_2            
     e(  9 - 10) =    -35.32137  eV     2   -->   2 G_2            
     e( 11 - 12) =    -35.28591  eV     2   -->   2 G_2            
     e( 13 - 14) =    -33.97558  eV     2   -->   2 G_2            
     e( 15 - 16) =    -33.96955  eV     2   -->   2 G_2            
     e( 17 - 18) =    -33.95344  eV     2   -->   2 G_2            
     e( 19 - 20) =    -33.94750  eV     2   -->   2 G_2            
     e( 21 - 22) =    -33.94168  eV     2   -->   2 G_2            
     e( 23 - 24) =    -33.93571  eV     2   -->   2 G_2            
     e( 25 - 26) =    -33.85880  eV     2   -->   2 G_2            
     e( 27 - 28) =    -33.84345  eV     2   -->   2 G_2            
     e( 29 - 30) =    -33.81278  eV     2   -->   2 G_2            
     e( 31 - 32) =    -28.06013  eV     2   -->   2 G_2            
     e( 33 - 34) =    -28.05606  eV     2   -->   2 G_2            
     e( 35 - 36) =    -28.05146  eV     2   -->   2 G_2            
     e( 37 - 38) =    -28.04744  eV     2   -->   2 G_2            
     e( 39 - 40) =    -26.82098  eV     2   -->   2 G_2            
     e( 41 - 42) =    -26.81690  eV     2   -->   2 G_2            
     e( 43 - 44) =    -26.81123  eV     2   -->   2 G_2            
     e( 45 - 46) =    -26.80985  eV     2   -->   2 G_2            
     e( 47 - 48) =    -26.80719  eV     2   -->   2 G_2            
     e( 49 - 50) =    -26.80584  eV     2   -->   2 G_2            
     e( 51 - 52) =    -10.51082  eV     2   -->   2 G_2            
     e( 53 - 54) =     -9.99069  eV     2   -->   2 G_2            
     e( 55 - 56) =     -8.93145  eV     2   -->   2 G_2            
     e( 57 - 58) =     -6.22331  eV     2   -->   2 G_2            
     e( 59 - 60) =     -4.92196  eV     2   -->   2 G_2            
     e( 61 - 61) =     -0.61548  eV     1   --> G_2            
     e( 62 - 62) =     -0.61422  eV     1   --> G_2            
     e( 63 - 63) =     -0.46142  eV     1   --> G_2            
     e( 64 - 64) =     -0.45779  eV     1   --> G_2            
     e( 65 - 65) =      0.03169  eV     1   --> G_2            
     e( 66 - 66) =      0.03560  eV     1   --> G_2            
     e( 67 - 67) =      0.18472  eV     1   --> G_2            
     e( 68 - 68) =      0.18660  eV     1   --> G_2            
     e( 69 - 69) =      0.40746  eV     1   --> G_2            
     e( 70 - 70) =      0.40974  eV     1   --> G_2            
     e( 71 - 71) =      0.66199  eV     1   --> G_2            
     e( 72 - 72) =      0.66332  eV     1   --> G_2            
     e( 73 - 73) =      1.10695  eV     1   --> G_2            
     e( 74 - 74) =      1.10828  eV     1   --> G_2            
     e( 75 - 75) =      1.48569  eV     1   --> G_2            
     e( 76 - 76) =      1.48726  eV     1   --> G_2            
     e( 77 - 77) =      1.79694  eV     1   --> G_2            
     e( 78 - 78) =      1.79827  eV     1   --> G_2            
     e( 79 - 79) =      2.53318  eV     1   --> G_2            
     e( 80 - 80) =      2.53410  eV     1   --> G_2            
     e( 81 - 81) =      3.01249  eV     1   --> G_2            
     e( 82 - 82) =      3.01499  eV     1   --> G_2            
     e( 83 - 83) =      3.22640  eV     1   --> G_2            
     e( 84 - 84) =      3.22802  eV     1   --> G_2            
     e( 85 - 85) =      3.68150  eV     1   --> G_2            
     e( 86 - 86) =      3.68315  eV     1   --> G_2            
     e( 87 - 87) =      4.22329  eV     1   --> G_2            
     e( 88 - 88) =      4.22510  eV     1   --> G_2            
     e( 89 - 89) =      4.53399  eV     1   --> G_2            
     e( 90 - 90) =      4.53480  eV     1   --> G_2            
     e( 91 - 91) =      6.38972  eV     1   --> G_2            
     e( 92 - 92) =      6.38998  eV     1   --> G_2            
     e( 93 - 93) =      6.48937  eV     1   --> G_2            
     e( 94 - 94) =      6.48963  eV     1   --> G_2            
     e( 95 - 95) =      7.00307  eV     1   --> G_2            
     e( 96 - 96) =      7.00318  eV     1   --> G_2            
     e( 97 - 97) =      7.39637  eV     1   --> G_2            
     e( 98 - 98) =      7.39651  eV     1   --> G_2            
     e( 99 -100) =      7.70237  eV     2   -->   2 G_2            

 **************************************************************************

 **************************************************************************

                    xk=(   0.10000,   0.05774,   0.00000  )

     Band symmetry, C_1 (1)     double point group:

     e(  1 -  2) =    -35.43535  eV     2   -->   2 G_2            
     e(  3 -  4) =    -35.42934  eV     2   -->   2 G_2            
     e(  5 -  6) =    -35.40928  eV     2   -->   2 G_2            
     e(  7 -  8) =    -35.40332  eV     2   -->   2 G_2            
     e(  9 - 10) =    -35.32137  eV     2   -->   2 G_2            
     e( 11 - 12) =    -35.28590  eV     2   -->   2 G_2            
     e( 13 - 14) =    -33.97557  eV     2   -->   2 G_2            
     e( 15 - 16) =    -33.96954  eV     2   -->   2 G_2            
     e( 17 - 18) =    -33.95344  eV     2   -->   2 G_2            
     e( 19 - 20) =    -33.94750  eV     2   -->   2 G_2            
     e( 21 - 22) =    -33.94168  eV     2   -->   2 G_2            
     e( 23 - 24) =    -33.93571  eV     2   -->   2 G_2            
     e( 25 - 26) =    -33.85880  eV     2   -->   2 G_2            
     e( 27 - 28) =    -33.84345  eV     2   -->   2 G_2            
     e( 29 - 30) =    -33.81277  eV     2   -->   2 G_2            
     e( 31 - 32) =    -28.06012  eV     2   -->   2 G_2            
     e( 33 - 34) =    -28.05605  eV     2   -->   2 G_2            
     e( 35 - 36) =    -28.05146  eV     2   -->   2 G_2            
     e( 37 - 38) =    -28.04745  eV     2   -->   2 G_2            
     e( 39 - 40) =    -26.82096  eV     2   -->   2 G_2            
     e( 41 - 42) =    -26.81688  eV     2   -->   2 G_2            
     e( 43 - 44) =    -26.81125  eV     2   -->   2 G_2            
     e( 45 - 46) =    -26.80985  eV     2   -->   2 G_2            
     e( 47 - 48) =    -26.80720  eV     2   -->   2 G_2            
     e( 49 - 50) =    -26.80584  eV     2   -->   2 G_2            
     e( 51 - 52) =    -10.49902  eV     2   -->   2 G_2            
     e( 53 - 54) =     -9.97991  eV     2   -->   2 G_2            
     e( 55 - 56) =     -8.92492  eV     2   -->   2 G_2            
     e( 57 - 58) =     -6.22528  eV     2   -->   2 G_2            
     e( 59 - 60) =     -4.94193  eV     2   -->   2 G_2            
     e( 61 - 61) =     -0.66549  eV     1   --> G_2            
     e( 62 - 62) =     -0.66442  eV     1   --> G_2            
     e( 63 - 63) =     -0.49769  eV     1   --> G_2            
     e( 64 - 64) =     -0.49429  eV     1   --> G_2            
     e( 65 - 65) =     -0.02071  eV     1   --> G_2            
     e( 66 - 66) =     -0.01685  eV     1   --> G_2            
     e( 67 - 67) =      0.15948  eV     1   --> G_2            
     e( 68 - 68) =      0.16117  eV     1   --> G_2            
     e( 69 - 69) =      0.37479  eV     1   --> G_2            
     e( 70 - 70) =      0.37724  eV     1   --> G_2            
     e( 71 - 71) =      0.63131  eV     1   --> G_2            
     e( 72 - 72) =      0.63238  eV     1   --> G_2            
     e( 73 - 73) =      1.11123  eV     1   --> G_2            
     e( 74 - 74) =      1.11236  eV     1   --> G_2            
     e( 75 - 75) =      1.51934  eV     1   --> G_2            
     e( 76 - 76) =      1.52094  eV     1   --> G_2            
     e( 77 - 77) =      1.78375  eV     1   --> G_2            
     e( 78 - 78) =      1.78526  eV     1   --> G_2            
     e( 79 - 79) =      2.55732  eV     1   --> G_2            
     e( 80 - 80) =      2.55812  eV     1   --> G_2            
     e( 81 - 81) =      3.04611  eV     1   --> G_2            
     e( 82 - 82) =      3.04850  eV     1   --> G_2            
     e( 83 - 83) =      3.26264  eV     1   --> G_2            
     e( 84 - 84) =      3.26435  eV     1   --> G_2            
     e( 85 - 85) =      3.70662  eV     1   --> G_2            
     e( 86 - 86) =      3.70809  eV     1   --> G_2            
     e( 87 - 87) =      4.23080  eV     1   --> G_2            
     e( 88 - 88) =      4.23255  eV     1   --> G_2            
     e( 89 - 89) =      4.57340  eV     1   --> G_2            
     e( 90 - 90) =      4.57415  eV     1   --> G_2            
     e( 91 - 91) =      6.40694  eV     1   --> G_2            
     e( 92 - 92) =      6.40724  eV     1   --> G_2            
     e( 93 - 93) =      6.49190  eV     1   --> G_2            
     e( 94 - 94) =      6.49220  eV     1   --> G_2            
     e( 95 - 95) =      6.98733  eV     1   --> G_2            
     e( 96 - 96) =      6.98745  eV     1   --> G_2            
     e( 97 - 97) =      7.38377  eV     1   --> G_2            
     e( 98 - 98) =      7.38391  eV     1   --> G_2            
     e( 99 -100) =      7.70456  eV     2   -->   2 G_2            

 **************************************************************************

 **************************************************************************

                    xk=(   0.10714,   0.06186,   0.00000  )

     Band symmetry, C_1 (1)     double point group:

     e(  1 -  2) =    -35.43535  eV     2   -->   2 G_2            
     e(  3 -  4) =    -35.42934  eV     2   -->   2 G_2            
     e(  5 -  6) =    -35.40928  eV     2   -->   2 G_2            
     e(  7 -  8) =    -35.40332  eV     2   -->   2 G_2            
     e(  9 - 10) =    -35.32137  eV     2   -->   2 G_2            
     e( 11 - 12) =    -35.28590  eV     2   -->   2 G_2            
     e( 13 - 14) =    -33.97556  eV     2   -->   2 G_2            
     e( 15 - 16) =    -33.96953  eV     2   -->   2 G_2            
     e( 17 - 18) =    -33.95344  eV     2   -->   2 G_2            
     e( 19 - 20) =    -33.94750  eV     2   -->   2 G_2            
     e( 21 - 22) =    -33.94168  eV     2   -->   2 G_2            
     e( 23 - 24) =    -33.93570  eV     2   -->   2 G_2            
     e( 25 - 26) =    -33.85879  eV     2   -->   2 G_2            
     e( 27 - 28) =    -33.84345  eV     2   -->   2 G_2            
     e( 29 - 30) =    -33.81276  eV     2   -->   2 G_2            
     e( 31 - 32) =    -28.06011  eV     2   -->   2 G_2            
     e( 33 - 34) =    -28.05604  eV     2   -->   2 G_2            
     e( 35 - 36) =    -28.05147  eV     2   -->   2 G_2            
     e( 37 - 38) =    -28.04745  eV     2   -->   2 G_2            
     e( 39 - 40) =    -26.82094  eV     2   -->   2 G_2            
     e( 41 - 42) =    -26.81686  eV     2   -->   2 G_2            
     e( 43 - 44) =    -26.81127  eV     2   -->   2 G_2            
     e( 45 - 46) =    -26.80984  eV     2   -->   2 G_2            
     e( 47 - 48) =    -26.80722  eV     2   -->   2 G_2            
     e( 49 - 50) =    -26.80583  eV     2   -->   2 G_2            
     e( 51 - 52) =    -10.48639  eV     2   -->   2 G_2            
     e( 53 - 54) =     -9.96834  eV     2   -->   2 G_2            
     e( 55 - 56) =     -8.91798  eV     2   -->   2 G_2            
     e( 57 - 58) =     -6.22758  eV     2   -->   2 G_2            
     e( 59 - 60) =     -4.96335  eV     2   -->   2 G_2            
     e( 61 - 61) =     -0.72360  eV     1   --> G_2            
     e( 62 - 62) =     -0.72281  eV     1   --> G_2            
     e( 63 - 63) =     -0.52790  eV     1   --> G_2            
     e( 64 - 64) =     -0.52482  eV     1   --> G_2            
     e( 65 - 65) =     -0.07355  eV     1   --> G_2            
     e( 66 - 66) =     -0.06977  eV     1   --> G_2            
     e( 67 - 67) =      0.13408  eV     1   --> G_2            
     e( 68 - 68) =      0.13556  eV     1   --> G_2            
     e( 69 - 69) =      0.33958  eV     1   --> G_2            
     e( 70 - 70) =      0.34221  eV     1   --> G_2            
     e( 71 - 71) =      0.60268  eV     1   --> G_2            
     e( 72 - 72) =      0.60384  eV     1   --> G_2            
     e( 73 - 73) =      1.11545  eV     1   --> G_2            
     e( 74 - 74) =      1.11643  eV     1   --> G_2            
     e( 75 - 75) =      1.55077  eV     1   --> G_2            
     e( 76 - 76) =      1.55245  eV     1   --> G_2            
     e( 77 - 77) =      1.76347  eV     1   --> G_2            
     e( 78 - 78) =      1.76523  eV     1   --> G_2            
     e( 79 - 79) =      2.58528  eV     1   --> G_2            
     e( 80 - 80) =      2.58600  eV     1   --> G_2            
     e( 81 - 81) =      3.08080  eV     1   --> G_2            
     e( 82 - 82) =      3.08298  eV     1   --> G_2            
     e( 83 - 83) =      3.29687  eV     1   --> G_2            
     e( 84 - 84) =      3.29866  eV     1   --> G_2            
     e( 85 - 85) =      3.73534  eV     1   --> G_2            
     e( 86 - 86) =      3.73661  eV     1   --> G_2            
     e( 87 - 87) =      4.24211  eV     1   --> G_2            
     e( 88 - 88) =      4.24376  eV     1   --> G_2            
     e( 89 - 89) =      4.61172  eV     1   --> G_2            
     e( 90 - 90) =      4.61240  eV     1   --> G_2            
     e( 91 - 91) =      6.42400  eV     1   --> G_2            
     e( 92 - 92) =      6.42435  eV     1   --> G_2            
     e( 93 - 93) =      6.49418  eV     1   --> G_2            
     e( 94 - 94) =      6.49452  eV     1   --> G_2            
     e( 95 - 95) =      6.96900  eV     1   --> G_2            
     e( 96 - 96) =      6.96913  eV     1   --> G_2            
     e( 97 - 97) =      7.37712  eV     1   --> G_2            
     e( 98 - 98) =      7.37724  eV     1   --> G_2            
     e( 99 -100) =      7.70722  eV     2   -->   2 G_2            

 **************************************************************************

 **************************************************************************

                    xk=(   0.11429,   0.06598,   0.00000  )

     Band symmetry, C_1 (1)     double point group:

     e(  1 -  2) =    -35.43534  eV     2   -->   2 G_2            
     e(  3 -  4) =    -35.42933  eV     2   -->   2 G_2            
     e(  5 -  6) =    -35.40928  eV     2   -->   2 G_2            
     e(  7 -  8) =    -35.40332  eV     2   -->   2 G_2            
     e(  9 - 10) =    -35.32137  eV     2   -->   2 G_2            
     e( 11 - 12) =    -35.28589  eV     2   -->   2 G_2            
     e( 13 - 14) =    -33.97555  eV     2   -->   2 G_2            
     e( 15 - 16) =    -33.96952  eV     2   -->   2 G_2            
     e( 17 - 18) =    -33.95344  eV     2   -->   2 G_2            
     e( 19 - 20) =    -33.94750  eV     2   -->   2 G_2            
     e( 21 - 22) =    -33.94167  eV     2   -->   2 G_2            
     e( 23 - 24) =    -33.93570  eV     2   -->   2 G_2            
     e( 25 - 26) =    -33.85879  eV     2   -->   2 G_2            
     e( 27 - 28) =    -33.84345  eV     2   -->   2 G_2            
     e( 29 - 30) =    -33.81275  eV     2   -->   2 G_2            
     e( 31 - 32) =    -28.06010  eV     2   -->   2 G_2            
     e( 33 - 34) =    -28.05603  eV     2   -->   2 G_2            
     e( 35 - 36) =    -28.05147  eV     2   -->   2 G_2            
     e( 37 - 38) =    -28.04746  eV     2   -->   2 G_2            
     e( 39 - 40) =    -26.82091  eV     2   -->   2 G_2            
     e( 41 - 42) =    -26.81683  eV     2   -->   2 G_2            
     e( 43 - 44) =    -26.81128  eV     2   -->   2 G_2            
     e( 45 - 46) =    -26.80984  eV     2   -->   2 G_2            
     e( 47 - 48) =    -26.80724  eV     2   -->   2 G_2            
     e( 49 - 50) =    -26.80582  eV     2   -->   2 G_2            
     e( 51 - 52) =    -10.47289  eV     2   -->   2 G_2            
     e( 53 - 54) =     -9.95600  eV     2   -->   2 G_2            
     e( 55 - 56) =     -8.91061  eV     2   -->   2 G_2            
     e( 57 - 58) =     -6.23017  eV     2   -->   2 G_2            
     e( 59 - 60) =     -4.98619  eV     2   -->   2 G_2            
     e( 61 - 61) =     -0.78705  eV     1   --> G_2            
     e( 62 - 62) =     -0.78649  eV     1   --> G_2            
     e( 63 - 63) =     -0.55454  eV     1   --> G_2            
     e( 64 - 64) =     -0.55177  eV     1   --> G_2            
     e( 65 - 65) =     -0.12688  eV     1   --> G_2            
     e( 66 - 66) =     -0.12320  eV     1   --> G_2            
     e( 67 - 67) =      0.10840  eV     1   --> G_2            
     e( 68 - 68) =      0.10966  eV     1   --> G_2            
[...]
     e( 63 - 63) =     -0.02836  eV     1   --> G_2            
     e( 64 - 64) =     -0.02597  eV     1   --> G_2            
     e( 65 - 65) =      0.31707  eV     1   --> G_2            
     e( 66 - 66) =      0.31901  eV     1   --> G_2            
     e( 67 - 67) =      0.49973  eV     1   --> G_2            
     e( 68 - 68) =      0.50212  eV     1   --> G_2            
     e( 69 - 69) =      0.55989  eV     1   --> G_2            
     e( 70 - 70) =      0.56201  eV     1   --> G_2            
     e( 71 - 71) =      0.83334  eV     1   --> G_2            
     e( 72 - 72) =      0.83843  eV     1   --> G_2            
     e( 73 - 73) =      1.07276  eV     1   --> G_2            
     e( 74 - 74) =      1.07464  eV     1   --> G_2            
     e( 75 - 75) =      1.32400  eV     1   --> G_2            
     e( 76 - 76) =      1.32555  eV     1   --> G_2            
     e( 77 - 77) =      1.61191  eV     1   --> G_2            
     e( 78 - 78) =      1.61342  eV     1   --> G_2            
     e( 79 - 79) =      2.33935  eV     1   --> G_2            
     e( 80 - 80) =      2.34100  eV     1   --> G_2            
     e( 81 - 81) =      2.86602  eV     1   --> G_2            
     e( 82 - 82) =      2.86708  eV     1   --> G_2            
     e( 83 - 83) =      3.09460  eV     1   --> G_2            
     e( 84 - 84) =      3.09643  eV     1   --> G_2            
     e( 85 - 85) =      3.49023  eV     1   --> G_2            
     e( 86 - 86) =      3.49183  eV     1   --> G_2            
     e( 87 - 87) =      4.21092  eV     1   --> G_2            
     e( 88 - 88) =      4.21147  eV     1   --> G_2            
     e( 89 - 89) =      4.27059  eV     1   --> G_2            
     e( 90 - 90) =      4.27086  eV     1   --> G_2            
     e( 91 - 92) =      6.28171  eV     2   -->   2 G_2            
     e( 93 - 94) =      6.46697  eV     2   -->   2 G_2            
     e( 95 - 96) =      7.03027  eV     2   -->   2 G_2            
     e( 97 - 97) =      7.66487  eV     1   --> G_2            
     e( 98 - 98) =      7.66499  eV     1   --> G_2            
     e( 99 - 99) =      7.69792  eV     1   --> G_2            
     e(100 -100) =      7.69817  eV     1   --> G_2            

 **************************************************************************

 **************************************************************************

                    xk=(   0.01429,   0.02491,   0.00000  )

     Band symmetry, C_1 (1)     double point group:

     e(  1 -  2) =    -35.43540  eV     2   -->   2 G_2            
     e(  3 -  4) =    -35.42939  eV     2   -->   2 G_2            
     e(  5 -  6) =    -35.40928  eV     2   -->   2 G_2            
     e(  7 -  8) =    -35.40332  eV     2   -->   2 G_2            
     e(  9 - 10) =    -35.32138  eV     2   -->   2 G_2            
     e( 11 - 12) =    -35.28594  eV     2   -->   2 G_2            
     e( 13 - 14) =    -33.97564  eV     2   -->   2 G_2            
     e( 15 - 16) =    -33.96961  eV     2   -->   2 G_2            
     e( 17 - 18) =    -33.95344  eV     2   -->   2 G_2            
     e( 19 - 20) =    -33.94750  eV     2   -->   2 G_2            
     e( 21 - 22) =    -33.94170  eV     2   -->   2 G_2            
     e( 23 - 24) =    -33.93573  eV     2   -->   2 G_2            
     e( 25 - 26) =    -33.85883  eV     2   -->   2 G_2            
     e( 27 - 28) =    -33.84344  eV     2   -->   2 G_2            
     e( 29 - 30) =    -33.81284  eV     2   -->   2 G_2            
     e( 31 - 32) =    -28.06019  eV     2   -->   2 G_2            
     e( 33 - 34) =    -28.05612  eV     2   -->   2 G_2            
     e( 35 - 36) =    -28.05141  eV     2   -->   2 G_2            
     e( 37 - 38) =    -28.04740  eV     2   -->   2 G_2            
     e( 39 - 40) =    -26.82112  eV     2   -->   2 G_2            
     e( 41 - 42) =    -26.81704  eV     2   -->   2 G_2            
     e( 43 - 44) =    -26.81112  eV     2   -->   2 G_2            
     e( 45 - 46) =    -26.80988  eV     2   -->   2 G_2            
     e( 47 - 48) =    -26.80708  eV     2   -->   2 G_2            
     e( 49 - 50) =    -26.80587  eV     2   -->   2 G_2            
     e( 51 - 52) =    -10.57962  eV     2   -->   2 G_2            
     e( 53 - 54) =    -10.05392  eV     2   -->   2 G_2            
     e( 55 - 56) =     -8.97041  eV     2   -->   2 G_2            
     e( 57 - 58) =     -6.21424  eV     2   -->   2 G_2            
     e( 59 - 60) =     -4.80549  eV     2   -->   2 G_2            
     e( 61 - 62) =     -0.45218  eV     2   -->   2 G_2            
     e( 63 - 63) =      0.01391  eV     1   --> G_2            
     e( 64 - 64) =      0.01590  eV     1   --> G_2            
     e( 65 - 65) =      0.32264  eV     1   --> G_2            
     e( 66 - 66) =      0.32429  eV     1   --> G_2            
     e( 67 - 67) =      0.54851  eV     1   --> G_2            
     e( 68 - 68) =      0.55085  eV     1   --> G_2            
     e( 69 - 69) =      0.58064  eV     1   --> G_2            
     e( 70 - 70) =      0.58427  eV     1   --> G_2            
     e( 71 - 71) =      0.83028  eV     1   --> G_2            
     e( 72 - 72) =      0.83531  eV     1   --> G_2            
     e( 73 - 73) =      1.04657  eV     1   --> G_2            
     e( 74 - 74) =      1.04810  eV     1   --> G_2            
     e( 75 - 75) =      1.34820  eV     1   --> G_2            
     e( 76 - 76) =      1.34940  eV     1   --> G_2            
     e( 77 - 77) =      1.57800  eV     1   --> G_2            
     e( 78 - 78) =      1.57932  eV     1   --> G_2            
     e( 79 - 79) =      2.30202  eV     1   --> G_2            
     e( 80 - 80) =      2.30333  eV     1   --> G_2            
     e( 81 - 81) =      2.86045  eV     1   --> G_2            
     e( 82 - 82) =      2.86129  eV     1   --> G_2            
     e( 83 - 83) =      3.11798  eV     1   --> G_2            
     e( 84 - 84) =      3.11968  eV     1   --> G_2            
     e( 85 - 85) =      3.46009  eV     1   --> G_2            
     e( 86 - 86) =      3.46153  eV     1   --> G_2            
     e( 87 - 87) =      4.19438  eV     1   --> G_2            
     e( 88 - 88) =      4.19475  eV     1   --> G_2            
     e( 89 - 89) =      4.26669  eV     1   --> G_2            
     e( 90 - 90) =      4.26704  eV     1   --> G_2            
     e( 91 - 92) =      6.27411  eV     2   -->   2 G_2            
     e( 93 - 94) =      6.46505  eV     2   -->   2 G_2            
     e( 95 - 96) =      7.02849  eV     2   -->   2 G_2            
     e( 97 - 98) =      7.67348  eV     2   -->   2 G_2            
     e( 99 - 99) =      7.71224  eV     1   --> G_2            
     e(100 -100) =      7.71244  eV     1   --> G_2            

 **************************************************************************

 **************************************************************************

                    xk=(   0.00952,   0.01661,   0.00000  )

     Band symmetry, C_1 (1)     double point group:

     e(  1 -  2) =    -35.43540  eV     2   -->   2 G_2            
     e(  3 -  4) =    -35.42939  eV     2   -->   2 G_2            
     e(  5 -  6) =    -35.40928  eV     2   -->   2 G_2            
     e(  7 -  8) =    -35.40332  eV     2   -->   2 G_2            
     e(  9 - 10) =    -35.32138  eV     2   -->   2 G_2            
     e( 11 - 12) =    -35.28595  eV     2   -->   2 G_2            
     e( 13 - 14) =    -33.97564  eV     2   -->   2 G_2            
     e( 15 - 16) =    -33.96961  eV     2   -->   2 G_2            
     e( 17 - 18) =    -33.95344  eV     2   -->   2 G_2            
     e( 19 - 20) =    -33.94750  eV     2   -->   2 G_2            
     e( 21 - 22) =    -33.94170  eV     2   -->   2 G_2            
     e( 23 - 24) =    -33.93573  eV     2   -->   2 G_2            
     e( 25 - 26) =    -33.85883  eV     2   -->   2 G_2            
     e( 27 - 28) =    -33.84344  eV     2   -->   2 G_2            
     e( 29 - 30) =    -33.81284  eV     2   -->   2 G_2            
     e( 31 - 32) =    -28.06019  eV     2   -->   2 G_2            
     e( 33 - 34) =    -28.05612  eV     2   -->   2 G_2            
     e( 35 - 36) =    -28.05141  eV     2   -->   2 G_2            
     e( 37 - 38) =    -28.04739  eV     2   -->   2 G_2            
     e( 39 - 40) =    -26.82113  eV     2   -->   2 G_2            
     e( 41 - 42) =    -26.81705  eV     2   -->   2 G_2            
     e( 43 - 44) =    -26.81111  eV     2   -->   2 G_2            
     e( 45 - 46) =    -26.80988  eV     2   -->   2 G_2            
     e( 47 - 48) =    -26.80708  eV     2   -->   2 G_2            
     e( 49 - 50) =    -26.80587  eV     2   -->   2 G_2            
     e( 51 - 52) =    -10.58259  eV     2   -->   2 G_2            
     e( 53 - 54) =    -10.05665  eV     2   -->   2 G_2            
     e( 55 - 56) =     -8.97211  eV     2   -->   2 G_2            
     e( 57 - 58) =     -6.21399  eV     2   -->   2 G_2            
     e( 59 - 60) =     -4.80062  eV     2   -->   2 G_2            
     e( 61 - 62) =     -0.44804  eV     2   -->   2 G_2            
     e( 63 - 63) =      0.04726  eV     1   --> G_2            
     e( 64 - 64) =      0.04873  eV     1   --> G_2            
     e( 65 - 65) =      0.32260  eV     1   --> G_2            
     e( 66 - 66) =      0.32384  eV     1   --> G_2            
     e( 67 - 67) =      0.57658  eV     1   --> G_2            
     e( 68 - 68) =      0.57795  eV     1   --> G_2            
     e( 69 - 69) =      0.61779  eV     1   --> G_2            
     e( 70 - 70) =      0.62163  eV     1   --> G_2            
     e( 71 - 71) =      0.81794  eV     1   --> G_2            
     e( 72 - 72) =      0.82249  eV     1   --> G_2            
     e( 73 - 73) =      1.02469  eV     1   --> G_2            
     e( 74 - 74) =      1.02581  eV     1   --> G_2            
     e( 75 - 75) =      1.37033  eV     1   --> G_2            
     e( 76 - 76) =      1.37117  eV     1   --> G_2            
     e( 77 - 77) =      1.55224  eV     1   --> G_2            
     e( 78 - 78) =      1.55323  eV     1   --> G_2            
     e( 79 - 79) =      2.27076  eV     1   --> G_2            
     e( 80 - 80) =      2.27167  eV     1   --> G_2            
     e( 81 - 81) =      2.85607  eV     1   --> G_2            
     e( 82 - 82) =      2.85665  eV     1   --> G_2            
     e( 83 - 83) =      3.14367  eV     1   --> G_2            
     e( 84 - 84) =      3.14505  eV     1   --> G_2            
     e( 85 - 85) =      3.43217  eV     1   --> G_2            
     e( 86 - 86) =      3.43333  eV     1   --> G_2            
     e( 87 - 87) =      4.17903  eV     1   --> G_2            
     e( 88 - 88) =      4.17928  eV     1   --> G_2            
     e( 89 - 89) =      4.26726  eV     1   --> G_2            
     e( 90 - 90) =      4.26754  eV     1   --> G_2            
     e( 91 - 92) =      6.26863  eV     2   -->   2 G_2            
     e( 93 - 94) =      6.46367  eV     2   -->   2 G_2            
     e( 95 - 96) =      7.02704  eV     2   -->   2 G_2            
     e( 97 - 98) =      7.67573  eV     2   -->   2 G_2            
     e( 99 - 99) =      7.72408  eV     1   --> G_2            
     e(100 -100) =      7.72420  eV     1   --> G_2            

 **************************************************************************

 **************************************************************************

                    xk=(   0.00476,   0.00830,   0.00000  )

     Band symmetry, C_1 (1)     double point group:

     e(  1 -  2) =    -35.43540  eV     2   -->   2 G_2            
     e(  3 -  4) =    -35.42939  eV     2   -->   2 G_2            
     e(  5 -  6) =    -35.40928  eV     2   -->   2 G_2            
     e(  7 -  8) =    -35.40332  eV     2   -->   2 G_2            
     e(  9 - 10) =    -35.32138  eV     2   -->   2 G_2            
     e( 11 - 12) =    -35.28595  eV     2   -->   2 G_2            
     e( 13 - 14) =    -33.97564  eV     2   -->   2 G_2            
     e( 15 - 16) =    -33.96962  eV     2   -->   2 G_2            
     e( 17 - 18) =    -33.95344  eV     2   -->   2 G_2            
     e( 19 - 20) =    -33.94750  eV     2   -->   2 G_2            
     e( 21 - 22) =    -33.94170  eV     2   -->   2 G_2            
     e( 23 - 24) =    -33.93573  eV     2   -->   2 G_2            
     e( 25 - 26) =    -33.85883  eV     2   -->   2 G_2            
     e( 27 - 28) =    -33.84344  eV     2   -->   2 G_2            
     e( 29 - 30) =    -33.81284  eV     2   -->   2 G_2            
     e( 31 - 32) =    -28.06019  eV     2   -->   2 G_2            
     e( 33 - 34) =    -28.05612  eV     2   -->   2 G_2            
     e( 35 - 36) =    -28.05140  eV     2   -->   2 G_2            
     e( 37 - 38) =    -28.04739  eV     2   -->   2 G_2            
     e( 39 - 40) =    -26.82113  eV     2   -->   2 G_2            
     e( 41 - 42) =    -26.81705  eV     2   -->   2 G_2            
     e( 43 - 44) =    -26.81111  eV     2   -->   2 G_2            
     e( 45 - 46) =    -26.80987  eV     2   -->   2 G_2            
     e( 47 - 48) =    -26.80707  eV     2   -->   2 G_2            
     e( 49 - 50) =    -26.80586  eV     2   -->   2 G_2            
     e( 51 - 52) =    -10.58436  eV     2   -->   2 G_2            
     e( 53 - 54) =    -10.05830  eV     2   -->   2 G_2            
     e( 55 - 56) =     -8.97313  eV     2   -->   2 G_2            
     e( 57 - 58) =     -6.21384  eV     2   -->   2 G_2            
     e( 59 - 60) =     -4.79777  eV     2   -->   2 G_2            
     e( 61 - 62) =     -0.44559  eV     2   -->   2 G_2            
     e( 63 - 63) =      0.06914  eV     1   --> G_2            
     e( 64 - 64) =      0.06993  eV     1   --> G_2            
     e( 65 - 65) =      0.32079  eV     1   --> G_2            
     e( 66 - 66) =      0.32146  eV     1   --> G_2            
     e( 67 - 67) =      0.58734  eV     1   --> G_2            
     e( 68 - 68) =      0.58780  eV     1   --> G_2            
     e( 69 - 69) =      0.65956  eV     1   --> G_2            
     e( 70 - 70) =      0.66224  eV     1   --> G_2            
     e( 71 - 71) =      0.79999  eV     1   --> G_2            
     e( 72 - 72) =      0.80323  eV     1   --> G_2            
     e( 73 - 73) =      1.01053  eV     1   --> G_2            
     e( 74 - 74) =      1.01114  eV     1   --> G_2            
     e( 75 - 75) =      1.38537  eV     1   --> G_2            
     e( 76 - 76) =      1.38581  eV     1   --> G_2            
     e( 77 - 77) =      1.53676  eV     1   --> G_2            
     e( 78 - 78) =      1.53730  eV     1   --> G_2            
     e( 79 - 79) =      2.24979  eV     1   --> G_2            
     e( 80 - 80) =      2.25026  eV     1   --> G_2            
     e( 81 - 81) =      2.85339  eV     1   --> G_2            
     e( 82 - 82) =      2.85369  eV     1   --> G_2            
     e( 83 - 83) =      3.16480  eV     1   --> G_2            
     e( 84 - 84) =      3.16562  eV     1   --> G_2            
     e( 85 - 85) =      3.41096  eV     1   --> G_2            
     e( 86 - 86) =      3.41166  eV     1   --> G_2            
     e( 87 - 87) =      4.16893  eV     1   --> G_2            
     e( 88 - 88) =      4.16905  eV     1   --> G_2            
     e( 89 - 89) =      4.26848  eV     1   --> G_2            
     e( 90 - 90) =      4.26863  eV     1   --> G_2            
     e( 91 - 92) =      6.26533  eV     2   -->   2 G_2            
     e( 93 - 94) =      6.46284  eV     2   -->   2 G_2            
     e( 95 - 96) =      7.02611  eV     2   -->   2 G_2            
     e( 97 - 98) =      7.67623  eV     2   -->   2 G_2            
     e( 99 -100) =      7.73066  eV     2   -->   2 G_2            

 **************************************************************************

 **************************************************************************

                    xk=(   0.00000,   0.00000,   0.00000  )

     Band symmetry, C_1 (1)     double point group:

     e(  1 -  2) =    -35.43540  eV     2   -->   2 G_2            
     e(  3 -  4) =    -35.42939  eV     2   -->   2 G_2            
     e(  5 -  6) =    -35.40928  eV     2   -->   2 G_2            
     e(  7 -  8) =    -35.40332  eV     2   -->   2 G_2            
     e(  9 - 10) =    -35.32138  eV     2   -->   2 G_2            
     e( 11 - 12) =    -35.28595  eV     2   -->   2 G_2            
     e( 13 - 14) =    -33.97564  eV     2   -->   2 G_2            
     e( 15 - 16) =    -33.96962  eV     2   -->   2 G_2            
     e( 17 - 18) =    -33.95344  eV     2   -->   2 G_2            
     e( 19 - 20) =    -33.94750  eV     2   -->   2 G_2            
     e( 21 - 22) =    -33.94170  eV     2   -->   2 G_2            
     e( 23 - 24) =    -33.93573  eV     2   -->   2 G_2            
     e( 25 - 26) =    -33.85883  eV     2   -->   2 G_2            
     e( 27 - 28) =    -33.84344  eV     2   -->   2 G_2            
     e( 29 - 30) =    -33.81284  eV     2   -->   2 G_2            
     e( 31 - 32) =    -28.06019  eV     2   -->   2 G_2            
     e( 33 - 34) =    -28.05612  eV     2   -->   2 G_2            
     e( 35 - 36) =    -28.05140  eV     2   -->   2 G_2            
     e( 37 - 38) =    -28.04738  eV     2   -->   2 G_2            
     e( 39 - 40) =    -26.82113  eV     2   -->   2 G_2            
     e( 41 - 42) =    -26.81705  eV     2   -->   2 G_2            
     e( 43 - 44) =    -26.81110  eV     2   -->   2 G_2            
     e( 45 - 46) =    -26.80987  eV     2   -->   2 G_2            
     e( 47 - 48) =    -26.80707  eV     2   -->   2 G_2            
     e( 49 - 50) =    -26.80586  eV     2   -->   2 G_2            
     e( 51 - 52) =    -10.58495  eV     2   -->   2 G_2            
     e( 53 - 54) =    -10.05884  eV     2   -->   2 G_2            
     e( 55 - 56) =     -8.97346  eV     2   -->   2 G_2            
     e( 57 - 58) =     -6.21378  eV     2   -->   2 G_2            
     e( 59 - 60) =     -4.79675  eV     2   -->   2 G_2            
     e( 61 - 62) =     -0.44478  eV     2   -->   2 G_2            
     e( 63 - 64) =      0.07708  eV     2   -->   2 G_2            
     e( 65 - 66) =      0.32004  eV     2   -->   2 G_2            
     e( 67 - 68) =      0.59063  eV     2   -->   2 G_2            
     e( 69 - 70) =      0.68012  eV     2   -->   2 G_2            
     e( 71 - 72) =      0.79051  eV     2   -->   2 G_2            
     e( 73 - 74) =      1.00588  eV     2   -->   2 G_2            
     e( 75 - 76) =      1.39071  eV     2   -->   2 G_2            
     e( 77 - 78) =      1.53191  eV     2   -->   2 G_2            
     e( 79 - 80) =      2.24252  eV     2   -->   2 G_2            
     e( 81 - 82) =      2.85259  eV     2   -->   2 G_2            
     e( 83 - 84) =      3.17353  eV     2   -->   2 G_2            
     e( 85 - 86) =      3.40294  eV     2   -->   2 G_2            
     e( 87 - 88) =      4.16548  eV     2   -->   2 G_2            
     e( 89 - 90) =      4.26905  eV     2   -->   2 G_2            
     e( 91 - 92) =      6.26423  eV     2   -->   2 G_2            
     e( 93 - 94) =      6.46256  eV     2   -->   2 G_2            
     e( 95 - 96) =      7.02579  eV     2   -->   2 G_2            
     e( 97 - 98) =      7.67629  eV     2   -->   2 G_2            
     e( 99 -100) =      7.73270  eV     2   -->   2 G_2            

 **************************************************************************

     BANDS        :  21m 3.41s CPU  20m27.87s WALL


   This run was terminated on:  21:40:11  14Aug2025            

=------------------------------------------------------------------------------=
   JOB DONE.
=------------------------------------------------------------------------------=
