
     Program BANDS v.7.4.1 starts on 23Aug2025 at  0:42:29 

     This program is part of the open-source Quantum ESPRESSO suite
     for quantum simulation of materials; please cite
         "P. Giannozzi et al., J. Phys.:Condens. Matter 21 395502 (2009);
         "P. Giannozzi et al., J. Phys.:Condens. Matter 29 465901 (2017);
         "P. Giannozzi et al., J. Chem. Phys. 152 154105 (2020);
          URL http://www.quantum-espresso.org", 
     in publications or presentations arising from this work. More details at
     http://www.quantum-espresso.org/quote

     Parallel version (MPI & OpenMP), running on      48 processor cores
     Number of MPI processes:                24
     Threads/MPI process:                     2

     MPI processes distributed on     2 nodes
     R & G space division:  proc/nbgrp/npool/nimage =      24
     60833 MiB available memory on the printing compute node when the environment starts


     Reading xml data from directory:

     tmp/Sb2Te3-uatsx-c6-soc-5.0.save/
     file Sb.rel-pbe-n-rrkjus_psl.1.0.0.UPF: wavefunction(s)  5S renormalized
     file Te.rel-pbe-n-rrkjus_psl.1.0.0.UPF: wavefunction(s)  5S renormalized

     IMPORTANT: XC functional enforced from input :
     Exchange-correlation= PBE
                           (   1   4   3   4   0   0   0)
     Any further DFT definition will be discarded
     Please, verify this is what you really want


     Parallelization info
     --------------------
     sticks:   dense  smooth     PW     G-vecs:    dense   smooth      PW
     Min          99      40     11                19863     5026     767
     Max         100      41     12                19886     5041     778
     Sum        2397     963    273               477063   120743   18525

     Using Slab Decomposition


     negative rho (up, down):  4.316E-06 0.000E+00
     Reading collected, re-writing distributed wavefunctions
     high-symmetry point:  0.0000 0.0000 0.0000   x coordinate   0.0000
     high-symmetry point:  0.5000 0.2887 0.0000   x coordinate   0.5774
     high-symmetry point:  0.3333 0.5966 0.0000   x coordinate   0.9275
     high-symmetry point:  0.0000 0.0000 0.0000   x coordinate   1.6109

     Plottable bands (eV) written to file ./bands/Sb2Te3-uatsx-c6-soc-5.0.bands.gnu
     Bands written to file ./bands/Sb2Te3-uatsx-c6-soc-5.0.bands

 **************************************************************************

                    xk=(   0.00000,   0.00000,   0.00000  )

     double point group C_1 (1)    
     there are  2 classes and  1 irreducible representations
     the character table:

       E     -E   
                  
G_2    1.00 -1.00

     the symmetry operations in each class and the name of the first element:

     E             1
                                                                 
     -E           -1
                                                                 

     Band symmetry, C_1 (1)     double point group:

     e(  1 -  2) =    -12.65078  eV     2   -->   2 G_2            
     e(  3 -  4) =    -12.11421  eV     2   -->   2 G_2            
     e(  5 -  6) =    -11.03769  eV     2   -->   2 G_2            
     e(  7 -  8) =     -8.32127  eV     2   -->   2 G_2            
     e(  9 - 10) =     -7.00566  eV     2   -->   2 G_2            
     e( 11 - 12) =     -2.62744  eV     2   -->   2 G_2            
     e( 13 - 14) =     -2.23651  eV     2   -->   2 G_2            
     e( 15 - 16) =     -1.91113  eV     2   -->   2 G_2            
     e( 17 - 18) =     -1.68902  eV     2   -->   2 G_2            
     e( 19 - 20) =     -1.56158  eV     2   -->   2 G_2            
     e( 21 - 22) =     -1.51870  eV     2   -->   2 G_2            
     e( 23 - 24) =     -1.19508  eV     2   -->   2 G_2            
     e( 25 - 26) =     -0.97851  eV     2   -->   2 G_2            
     e( 27 - 28) =     -0.75341  eV     2   -->   2 G_2            
     e( 29 - 30) =     -0.19871  eV     2   -->   2 G_2            
     e( 31 - 32) =      0.52419  eV     2   -->   2 G_2            
     e( 33 - 34) =      0.92982  eV     2   -->   2 G_2            
     e( 35 - 36) =      1.07782  eV     2   -->   2 G_2            
     e( 37 - 38) =      1.80230  eV     2   -->   2 G_2            
     e( 39 - 40) =      2.07486  eV     2   -->   2 G_2            
     e( 41 - 42) =      4.11743  eV     2   -->   2 G_2            
     e( 43 - 44) =      4.30120  eV     2   -->   2 G_2            
     e( 45 - 46) =      4.97083  eV     2   -->   2 G_2            
     e( 47 - 48) =      5.16619  eV     2   -->   2 G_2            
     e( 49 - 50) =      5.45120  eV     2   -->   2 G_2            
     e( 51 - 52) =      5.84048  eV     2   -->   2 G_2            
     e( 53 - 54) =      6.26535  eV     2   -->   2 G_2            
     e( 55 - 56) =      6.47313  eV     2   -->   2 G_2            
     e( 57 - 58) =      6.52412  eV     2   -->   2 G_2            
     e( 59 - 60) =      6.61765  eV     2   -->   2 G_2            
     e( 61 - 62) =      7.20186  eV     2   -->   2 G_2            
     e( 63 - 64) =      7.39127  eV     2   -->   2 G_2            
     e( 65 - 66) =      7.63047  eV     2   -->   2 G_2            
     e( 67 - 68) =      7.97426  eV     2   -->   2 G_2            
     e( 69 - 70) =      7.98143  eV     2   -->   2 G_2            
     e( 71 - 72) =      8.47686  eV     2   -->   2 G_2            
     e( 73 - 74) =      8.77048  eV     2   -->   2 G_2            
     e( 75 - 76) =      9.27095  eV     2   -->   2 G_2            
     e( 77 - 78) =      9.34067  eV     2   -->   2 G_2            
     e( 79 - 80) =      9.49654  eV     2   -->   2 G_2            
     e( 81 - 82) =      9.66852  eV     2   -->   2 G_2            
     e( 83 - 84) =     10.74245  eV     2   -->   2 G_2            
     e( 85 - 86) =     10.80985  eV     2   -->   2 G_2            
     e( 87 - 88) =     11.57835  eV     2   -->   2 G_2            
     e( 89 - 90) =     11.86339  eV     2   -->   2 G_2            
     e( 91 - 92) =     12.13580  eV     2   -->   2 G_2            
     e( 93 - 94) =     12.19926  eV     2   -->   2 G_2            
     e( 95 - 96) =     12.41448  eV     2   -->   2 G_2            
     e( 97 - 98) =     12.94583  eV     2   -->   2 G_2            
     e( 99 -100) =     13.31803  eV     2   -->   2 G_2            

 **************************************************************************

 **************************************************************************

                    xk=(   0.00714,   0.00412,   0.00000  )

     Band symmetry, C_1 (1)     double point group:

     e(  1 -  2) =    -12.65038  eV     2   -->   2 G_2            
     e(  3 -  4) =    -12.11385  eV     2   -->   2 G_2            
     e(  5 -  6) =    -11.03749  eV     2   -->   2 G_2            
     e(  7 -  8) =     -8.32141  eV     2   -->   2 G_2            
     e(  9 - 10) =     -7.00653  eV     2   -->   2 G_2            
     e( 11 - 12) =     -2.62831  eV     2   -->   2 G_2            
     e( 13 - 14) =     -2.24288  eV     2   -->   2 G_2            
     e( 15 - 15) =     -1.91006  eV     1   --> G_2            
     e( 16 - 16) =     -1.90991  eV     1   --> G_2            
     e( 17 - 17) =     -1.69774  eV     1   --> G_2            
     e( 18 - 18) =     -1.69736  eV     1   --> G_2            
     e( 19 - 19) =     -1.56900  eV     1   --> G_2            
     e( 20 - 20) =     -1.56882  eV     1   --> G_2            
     e( 21 - 21) =     -1.50680  eV     1   --> G_2            
     e( 22 - 22) =     -1.50631  eV     1   --> G_2            
     e( 23 - 23) =     -1.19341  eV     1   --> G_2            
     e( 24 - 24) =     -1.19329  eV     1   --> G_2            
     e( 25 - 26) =     -0.98014  eV     2   -->   2 G_2            
     e( 27 - 28) =     -0.75268  eV     2   -->   2 G_2            
     e( 29 - 30) =     -0.19174  eV     2   -->   2 G_2            
     e( 31 - 32) =      0.52251  eV     2   -->   2 G_2            
     e( 33 - 33) =      0.92243  eV     1   --> G_2            
     e( 34 - 34) =      0.92270  eV     1   --> G_2            
     e( 35 - 35) =      1.08700  eV     1   --> G_2            
     e( 36 - 36) =      1.08733  eV     1   --> G_2            
     e( 37 - 38) =      1.80390  eV     2   -->   2 G_2            
     e( 39 - 40) =      2.07459  eV     2   -->   2 G_2            
     e( 41 - 42) =      4.11814  eV     2   -->   2 G_2            
     e( 43 - 44) =      4.30124  eV     2   -->   2 G_2            
     e( 45 - 46) =      4.97106  eV     2   -->   2 G_2            
     e( 47 - 48) =      5.16443  eV     2   -->   2 G_2            
     e( 49 - 50) =      5.45078  eV     2   -->   2 G_2            
     e( 51 - 52) =      5.84031  eV     2   -->   2 G_2            
     e( 53 - 54) =      6.26776  eV     2   -->   2 G_2            
     e( 55 - 56) =      6.46923  eV     2   -->   2 G_2            
     e( 57 - 58) =      6.52843  eV     2   -->   2 G_2            
     e( 59 - 60) =      6.61562  eV     2   -->   2 G_2            
     e( 61 - 62) =      7.19906  eV     2   -->   2 G_2            
     e( 63 - 64) =      7.39902  eV     2   -->   2 G_2            
     e( 65 - 66) =      7.63249  eV     2   -->   2 G_2            
     e( 67 - 68) =      7.96988  eV     2   -->   2 G_2            
     e( 69 - 70) =      7.98471  eV     2   -->   2 G_2            
     e( 71 - 72) =      8.47750  eV     2   -->   2 G_2            
     e( 73 - 74) =      8.77325  eV     2   -->   2 G_2            
     e( 75 - 75) =      9.24981  eV     1   --> G_2            
     e( 76 - 76) =      9.25000  eV     1   --> G_2            
     e( 77 - 77) =      9.34903  eV     1   --> G_2            
     e( 78 - 78) =      9.34930  eV     1   --> G_2            
     e( 79 - 79) =      9.50480  eV     1   --> G_2            
     e( 80 - 80) =      9.50491  eV     1   --> G_2            
     e( 81 - 82) =      9.67626  eV     2   -->   2 G_2            
     e( 83 - 84) =     10.74171  eV     2   -->   2 G_2            
     e( 85 - 86) =     10.80981  eV     2   -->   2 G_2            
     e( 87 - 88) =     11.56881  eV     2   -->   2 G_2            
     e( 89 - 90) =     11.87077  eV     2   -->   2 G_2            
     e( 91 - 92) =     12.12280  eV     2   -->   2 G_2            
     e( 93 - 94) =     12.21185  eV     2   -->   2 G_2            
     e( 95 - 96) =     12.41743  eV     2   -->   2 G_2            
     e( 97 - 98) =     12.94550  eV     2   -->   2 G_2            
     e( 99 -100) =     13.29546  eV     2   -->   2 G_2            

 **************************************************************************

 **************************************************************************

                    xk=(   0.01429,   0.00825,   0.00000  )

     Band symmetry, C_1 (1)     double point group:

     e(  1 -  2) =    -12.64917  eV     2   -->   2 G_2            
     e(  3 -  4) =    -12.11277  eV     2   -->   2 G_2            
     e(  5 -  6) =    -11.03688  eV     2   -->   2 G_2            
     e(  7 -  8) =     -8.32180  eV     2   -->   2 G_2            
     e(  9 - 10) =     -7.00914  eV     2   -->   2 G_2            
     e( 11 - 12) =     -2.63092  eV     2   -->   2 G_2            
     e( 13 - 13) =     -2.26128  eV     1   --> G_2            
     e( 14 - 14) =     -2.26118  eV     1   --> G_2            
     e( 15 - 15) =     -1.90731  eV     1   --> G_2            
     e( 16 - 16) =     -1.90704  eV     1   --> G_2            
     e( 17 - 17) =     -1.72110  eV     1   --> G_2            
     e( 18 - 18) =     -1.72047  eV     1   --> G_2            
     e( 19 - 19) =     -1.57963  eV     1   --> G_2            
     e( 20 - 20) =     -1.57934  eV     1   --> G_2            
     e( 21 - 21) =     -1.48435  eV     1   --> G_2            
     e( 22 - 22) =     -1.48365  eV     1   --> G_2            
     e( 23 - 23) =     -1.18842  eV     1   --> G_2            
     e( 24 - 24) =     -1.18819  eV     1   --> G_2            
     e( 25 - 25) =     -0.98485  eV     1   --> G_2            
     e( 26 - 26) =     -0.98466  eV     1   --> G_2            
     e( 27 - 28) =     -0.74952  eV     2   -->   2 G_2            
     e( 29 - 29) =     -0.17156  eV     1   --> G_2            
     e( 30 - 30) =     -0.17141  eV     1   --> G_2            
     e( 31 - 31) =      0.51746  eV     1   --> G_2            
     e( 32 - 32) =      0.51759  eV     1   --> G_2            
     e( 33 - 33) =      0.90540  eV     1   --> G_2            
     e( 34 - 34) =      0.90582  eV     1   --> G_2            
     e( 35 - 35) =      1.11025  eV     1   --> G_2            
     e( 36 - 36) =      1.11077  eV     1   --> G_2            
     e( 37 - 37) =      1.80872  eV     1   --> G_2            
     e( 38 - 38) =      1.80886  eV     1   --> G_2            
     e( 39 - 40) =      2.07390  eV     2   -->   2 G_2            
     e( 41 - 42) =      4.12027  eV     2   -->   2 G_2            
     e( 43 - 44) =      4.30139  eV     2   -->   2 G_2            
     e( 45 - 46) =      4.97171  eV     2   -->   2 G_2            
     e( 47 - 48) =      5.15919  eV     2   -->   2 G_2            
     e( 49 - 50) =      5.44957  eV     2   -->   2 G_2            
     e( 51 - 52) =      5.83996  eV     2   -->   2 G_2            
     e( 53 - 54) =      6.27466  eV     2   -->   2 G_2            
     e( 55 - 56) =      6.46010  eV     2   -->   2 G_2            
     e( 57 - 57) =      6.53816  eV     1   --> G_2            
     e( 58 - 58) =      6.53826  eV     1   --> G_2            
     e( 59 - 60) =      6.61084  eV     2   -->   2 G_2            
     e( 61 - 62) =      7.19176  eV     2   -->   2 G_2            
     e( 63 - 64) =      7.42073  eV     2   -->   2 G_2            
     e( 65 - 66) =      7.63844  eV     2   -->   2 G_2            
     e( 67 - 68) =      7.96071  eV     2   -->   2 G_2            
     e( 69 - 70) =      7.99100  eV     2   -->   2 G_2            
     e( 71 - 72) =      8.47970  eV     2   -->   2 G_2            
     e( 73 - 74) =      8.78100  eV     2   -->   2 G_2            
     e( 75 - 75) =      9.20897  eV     1   --> G_2            
     e( 76 - 76) =      9.20917  eV     1   --> G_2            
     e( 77 - 77) =      9.35233  eV     1   --> G_2            
     e( 78 - 78) =      9.35263  eV     1   --> G_2            
     e( 79 - 79) =      9.53166  eV     1   --> G_2            
     e( 80 - 80) =      9.53181  eV     1   --> G_2            
     e( 81 - 82) =      9.69761  eV     2   -->   2 G_2            
     e( 83 - 84) =     10.73932  eV     2   -->   2 G_2            
     e( 85 - 86) =     10.80986  eV     2   -->   2 G_2            
     e( 87 - 88) =     11.54363  eV     2   -->   2 G_2            
     e( 89 - 90) =     11.88832  eV     2   -->   2 G_2            
     e( 91 - 92) =     12.09966  eV     2   -->   2 G_2            
     e( 93 - 94) =     12.23450  eV     2   -->   2 G_2            
     e( 95 - 96) =     12.42693  eV     2   -->   2 G_2            
     e( 97 - 98) =     12.94078  eV     2   -->   2 G_2            
     e( 99 -100) =     13.24772  eV     2   -->   2 G_2            

 **************************************************************************

 **************************************************************************

                    xk=(   0.02143,   0.01237,   0.00000  )

     Band symmetry, C_1 (1)     double point group:

     e(  1 -  2) =    -12.64716  eV     2   -->   2 G_2            
     e(  3 -  4) =    -12.11096  eV     2   -->   2 G_2            
     e(  5 -  6) =    -11.03587  eV     2   -->   2 G_2            
     e(  7 -  8) =     -8.32246  eV     2   -->   2 G_2            
     e(  9 - 10) =     -7.01349  eV     2   -->   2 G_2            
     e( 11 - 12) =     -2.63527  eV     2   -->   2 G_2            
     e( 13 - 13) =     -2.29010  eV     1   --> G_2            
     e( 14 - 14) =     -2.28996  eV     1   --> G_2            
     e( 15 - 15) =     -1.90448  eV     1   --> G_2            
     e( 16 - 16) =     -1.90409  eV     1   --> G_2            
     e( 17 - 17) =     -1.75394  eV     1   --> G_2            
     e( 18 - 18) =     -1.75321  eV     1   --> G_2            
     e( 19 - 19) =     -1.58804  eV     1   --> G_2            
     e( 20 - 20) =     -1.58765  eV     1   --> G_2            
     e( 21 - 21) =     -1.46238  eV     1   --> G_2            
     e( 22 - 22) =     -1.46157  eV     1   --> G_2            
     e( 23 - 23) =     -1.18079  eV     1   --> G_2            
     e( 24 - 24) =     -1.18045  eV     1   --> G_2            
     e( 25 - 25) =     -0.99186  eV     1   --> G_2            
     e( 26 - 26) =     -0.99158  eV     1   --> G_2            
     e( 27 - 27) =     -0.74198  eV     1   --> G_2            
     e( 28 - 28) =     -0.74184  eV     1   --> G_2            
     e( 29 - 29) =     -0.14027  eV     1   --> G_2            
     e( 30 - 30) =     -0.14005  eV     1   --> G_2            
     e( 31 - 31) =      0.50896  eV     1   --> G_2            
     e( 32 - 32) =      0.50914  eV     1   --> G_2            
     e( 33 - 33) =      0.88620  eV     1   --> G_2            
     e( 34 - 34) =      0.88666  eV     1   --> G_2            
     e( 35 - 35) =      1.14040  eV     1   --> G_2            
     e( 36 - 36) =      1.14103  eV     1   --> G_2            
     e( 37 - 37) =      1.81663  eV     1   --> G_2            
     e( 38 - 38) =      1.81683  eV     1   --> G_2            
     e( 39 - 40) =      2.07297  eV     2   -->   2 G_2            
     e( 41 - 42) =      4.12381  eV     2   -->   2 G_2            
     e( 43 - 44) =      4.30161  eV     2   -->   2 G_2            
     e( 45 - 46) =      4.97266  eV     2   -->   2 G_2            
     e( 47 - 48) =      5.15059  eV     2   -->   2 G_2            
     e( 49 - 50) =      5.44775  eV     2   -->   2 G_2            
     e( 51 - 52) =      5.83981  eV     2   -->   2 G_2            
     e( 53 - 54) =      6.28501  eV     2   -->   2 G_2            
     e( 55 - 56) =      6.44890  eV     2   -->   2 G_2            
     e( 57 - 57) =      6.54728  eV     1   --> G_2            
     e( 58 - 58) =      6.54743  eV     1   --> G_2            
     e( 59 - 60) =      6.60769  eV     2   -->   2 G_2            
     e( 61 - 62) =      7.18209  eV     2   -->   2 G_2            
     e( 63 - 64) =      7.45303  eV     2   -->   2 G_2            
     e( 65 - 66) =      7.64802  eV     2   -->   2 G_2            
     e( 67 - 68) =      7.94798  eV     2   -->   2 G_2            
     e( 69 - 70) =      7.99978  eV     2   -->   2 G_2            
     e( 71 - 72) =      8.48412  eV     2   -->   2 G_2            
     e( 73 - 74) =      8.79216  eV     2   -->   2 G_2            
     e( 75 - 75) =      9.16480  eV     1   --> G_2            
     e( 76 - 76) =      9.16498  eV     1   --> G_2            
     e( 77 - 77) =      9.34115  eV     1   --> G_2            
     e( 78 - 78) =      9.34140  eV     1   --> G_2            
     e( 79 - 79) =      9.57435  eV     1   --> G_2            
     e( 80 - 80) =      9.57452  eV     1   --> G_2            
     e( 81 - 81) =      9.72875  eV     1   --> G_2            
     e( 82 - 82) =      9.72888  eV     1   --> G_2            
     e( 83 - 84) =     10.73484  eV     2   -->   2 G_2            
     e( 85 - 86) =     10.81047  eV     2   -->   2 G_2            
     e( 87 - 88) =     11.50929  eV     2   -->   2 G_2            
     e( 89 - 90) =     11.90567  eV     2   -->   2 G_2            
     e( 91 - 92) =     12.08065  eV     2   -->   2 G_2            
     e( 93 - 94) =     12.25606  eV     2   -->   2 G_2            
     e( 95 - 96) =     12.44403  eV     2   -->   2 G_2            
     e( 97 - 98) =     12.92055  eV     2   -->   2 G_2            
     e( 99 -100) =     13.20727  eV     2   -->   2 G_2            

 **************************************************************************

 **************************************************************************

                    xk=(   0.02857,   0.01650,   0.00000  )

     Band symmetry, C_1 (1)     double point group:

     e(  1 -  2) =    -12.64435  eV     2   -->   2 G_2            
     e(  3 -  4) =    -12.10844  eV     2   -->   2 G_2            
     e(  5 -  6) =    -11.03445  eV     2   -->   2 G_2            
     e(  7 -  8) =     -8.32339  eV     2   -->   2 G_2            
     e(  9 - 10) =     -7.01957  eV     2   -->   2 G_2            
     e( 11 - 12) =     -2.64136  eV     2   -->   2 G_2            
     e( 13 - 13) =     -2.32740  eV     1   --> G_2            
     e( 14 - 14) =     -2.32725  eV     1   --> G_2            
     e( 15 - 15) =     -1.90346  eV     1   --> G_2            
     e( 16 - 16) =     -1.90299  eV     1   --> G_2            
     e( 17 - 17) =     -1.79152  eV     1   --> G_2            
     e( 18 - 18) =     -1.79079  eV     1   --> G_2            
     e( 19 - 19) =     -1.59523  eV     1   --> G_2            
     e( 20 - 20) =     -1.59477  eV     1   --> G_2            
     e( 21 - 21) =     -1.44483  eV     1   --> G_2            
     e( 22 - 22) =     -1.44399  eV     1   --> G_2            
     e( 23 - 23) =     -1.17212  eV     1   --> G_2            
     e( 24 - 24) =     -1.17168  eV     1   --> G_2            
     e( 25 - 25) =     -0.99877  eV     1   --> G_2            
     e( 26 - 26) =     -0.99838  eV     1   --> G_2            
     e( 27 - 27) =     -0.72851  eV     1   --> G_2            
     e( 28 - 28) =     -0.72830  eV     1   --> G_2            
     e( 29 - 29) =     -0.10058  eV     1   --> G_2            
     e( 30 - 30) =     -0.10029  eV     1   --> G_2            
     e( 31 - 31) =      0.49711  eV     1   --> G_2            
     e( 32 - 32) =      0.49733  eV     1   --> G_2            
     e( 33 - 33) =      0.86945  eV     1   --> G_2            
     e( 34 - 34) =      0.86990  eV     1   --> G_2            
     e( 35 - 35) =      1.17315  eV     1   --> G_2            
     e( 36 - 36) =      1.17384  eV     1   --> G_2            
     e( 37 - 37) =      1.82734  eV     1   --> G_2            
     e( 38 - 38) =      1.82760  eV     1   --> G_2            
     e( 39 - 40) =      2.07216  eV     2   -->   2 G_2            
     e( 41 - 42) =      4.12874  eV     2   -->   2 G_2            
     e( 43 - 44) =      4.30189  eV     2   -->   2 G_2            
     e( 45 - 46) =      4.97365  eV     2   -->   2 G_2            
     e( 47 - 48) =      5.13891  eV     2   -->   2 G_2            
     e( 49 - 50) =      5.44557  eV     2   -->   2 G_2            
     e( 51 - 52) =      5.84035  eV     2   -->   2 G_2            
     e( 53 - 54) =      6.29699  eV     2   -->   2 G_2            
     e( 55 - 56) =      6.43726  eV     2   -->   2 G_2            
     e( 57 - 57) =      6.54971  eV     1   --> G_2            
     e( 58 - 58) =      6.54987  eV     1   --> G_2            
     e( 59 - 60) =      6.61311  eV     2   -->   2 G_2            
     e( 61 - 62) =      7.17168  eV     2   -->   2 G_2            
     e( 63 - 64) =      7.49238  eV     2   -->   2 G_2            
     e( 65 - 66) =      7.66075  eV     2   -->   2 G_2            
     e( 67 - 68) =      7.93242  eV     2   -->   2 G_2            
     e( 69 - 70) =      8.01161  eV     2   -->   2 G_2            
     e( 71 - 72) =      8.49154  eV     2   -->   2 G_2            
     e( 73 - 74) =      8.80421  eV     2   -->   2 G_2            
     e( 75 - 75) =      9.12285  eV     1   --> G_2            
     e( 76 - 76) =      9.12301  eV     1   --> G_2            
     e( 77 - 77) =      9.32135  eV     1   --> G_2            
     e( 78 - 78) =      9.32156  eV     1   --> G_2            
     e( 79 - 79) =      9.62575  eV     1   --> G_2            
     e( 80 - 80) =      9.62593  eV     1   --> G_2            
     e( 81 - 81) =      9.76652  eV     1   --> G_2            
     e( 82 - 82) =      9.76669  eV     1   --> G_2            
     e( 83 - 84) =     10.72769  eV     2   -->   2 G_2            
     e( 85 - 86) =     10.81223  eV     2   -->   2 G_2            
     e( 87 - 88) =     11.47100  eV     2   -->   2 G_2            
     e( 89 - 90) =     11.91191  eV     2   -->   2 G_2            
     e( 91 - 91) =     12.07309  eV     1   --> G_2            
     e( 92 - 92) =     12.07320  eV     1   --> G_2            
     e( 93 - 94) =     12.27548  eV     2   -->   2 G_2            
     e( 95 - 96) =     12.46812  eV     2   -->   2 G_2            
     e( 97 - 98) =     12.87460  eV     2   -->   2 G_2            
     e( 99 -100) =     13.19485  eV     2   -->   2 G_2            

 **************************************************************************

 **************************************************************************

                    xk=(   0.03571,   0.02062,   0.00000  )

     Band symmetry, C_1 (1)     double point group:

     e(  1 -  2) =    -12.64073  eV     2   -->   2 G_2            
     e(  3 -  4) =    -12.10519  eV     2   -->   2 G_2            
     e(  5 -  6) =    -11.03264  eV     2   -->   2 G_2            
     e(  7 -  8) =     -8.32459  eV     2   -->   2 G_2            
     e(  9 - 10) =     -7.02738  eV     2   -->   2 G_2            
     e( 11 - 12) =     -2.64922  eV     2   -->   2 G_2            
     e( 13 - 13) =     -2.37144  eV     1   --> G_2            
     e( 14 - 14) =     -2.37129  eV     1   --> G_2            
     e( 15 - 15) =     -1.90644  eV     1   --> G_2            
     e( 16 - 16) =     -1.90591  eV     1   --> G_2            
     e( 17 - 17) =     -1.83018  eV     1   --> G_2            
     e( 18 - 18) =     -1.82956  eV     1   --> G_2            
     e( 19 - 19) =     -1.60257  eV     1   --> G_2            
     e( 20 - 20) =     -1.60207  eV     1   --> G_2            
     e( 21 - 21) =     -1.43351  eV     1   --> G_2            
     e( 22 - 22) =     -1.43267  eV     1   --> G_2            
     e( 23 - 23) =     -1.16500  eV     1   --> G_2            
     e( 24 - 24) =     -1.16449  eV     1   --> G_2            
     e( 25 - 25) =     -1.00134  eV     1   --> G_2            
     e( 26 - 26) =     -1.00087  eV     1   --> G_2            
     e( 27 - 27) =     -0.70885  eV     1   --> G_2            
     e( 28 - 28) =     -0.70858  eV     1   --> G_2            
     e( 29 - 29) =     -0.05525  eV     1   --> G_2            
     e( 30 - 30) =     -0.05491  eV     1   --> G_2            
     e( 31 - 31) =      0.48253  eV     1   --> G_2            
     e( 32 - 32) =      0.48278  eV     1   --> G_2            
     e( 33 - 33) =      0.85749  eV     1   --> G_2            
     e( 34 - 34) =      0.85790  eV     1   --> G_2            
     e( 35 - 35) =      1.20628  eV     1   --> G_2            
     e( 36 - 36) =      1.20701  eV     1   --> G_2            
     e( 37 - 37) =      1.84042  eV     1   --> G_2            
     e( 38 - 38) =      1.84073  eV     1   --> G_2            
     e( 39 - 39) =      2.07199  eV     1   --> G_2            
     e( 40 - 40) =      2.07210  eV     1   --> G_2            
     e( 41 - 42) =      4.13503  eV     2   -->   2 G_2            
     e( 43 - 44) =      4.30219  eV     2   -->   2 G_2            
     e( 45 - 46) =      4.97422  eV     2   -->   2 G_2            
     e( 47 - 48) =      5.12471  eV     2   -->   2 G_2            
     e( 49 - 50) =      5.44331  eV     2   -->   2 G_2            
     e( 51 - 52) =      5.84208  eV     2   -->   2 G_2            
     e( 53 - 54) =      6.30751  eV     2   -->   2 G_2            
     e( 55 - 56) =      6.42712  eV     2   -->   2 G_2            
     e( 57 - 57) =      6.54528  eV     1   --> G_2            
     e( 58 - 58) =      6.54541  eV     1   --> G_2            
     e( 59 - 60) =      6.62894  eV     2   -->   2 G_2            
     e( 61 - 62) =      7.16148  eV     2   -->   2 G_2            
     e( 63 - 64) =      7.53537  eV     2   -->   2 G_2            
     e( 65 - 66) =      7.67607  eV     2   -->   2 G_2            
     e( 67 - 68) =      7.91566  eV     2   -->   2 G_2            
     e( 69 - 70) =      8.02696  eV     2   -->   2 G_2            
     e( 71 - 72) =      8.50255  eV     2   -->   2 G_2            
     e( 73 - 74) =      8.81368  eV     2   -->   2 G_2            
     e( 75 - 75) =      9.08692  eV     1   --> G_2            
     e( 76 - 76) =      9.08706  eV     1   --> G_2            
     e( 77 - 77) =      9.29806  eV     1   --> G_2            
     e( 78 - 78) =      9.29822  eV     1   --> G_2            
     e( 79 - 79) =      9.68094  eV     1   --> G_2            
     e( 80 - 80) =      9.68115  eV     1   --> G_2            
     e( 81 - 81) =      9.80894  eV     1   --> G_2            
     e( 82 - 82) =      9.80913  eV     1   --> G_2            
     e( 83 - 84) =     10.71748  eV     2   -->   2 G_2            
     e( 85 - 86) =     10.81568  eV     2   -->   2 G_2            
     e( 87 - 88) =     11.43202  eV     2   -->   2 G_2            
     e( 89 - 90) =     11.90254  eV     2   -->   2 G_2            
     e( 91 - 91) =     12.07733  eV     1   --> G_2            
     e( 92 - 92) =     12.07745  eV     1   --> G_2            
     e( 93 - 94) =     12.29567  eV     2   -->   2 G_2            
     e( 95 - 96) =     12.49551  eV     2   -->   2 G_2            
     e( 97 - 98) =     12.80877  eV     2   -->   2 G_2            
     e( 99 -100) =     13.21014  eV     2   -->   2 G_2            

 **************************************************************************

 **************************************************************************

                    xk=(   0.04286,   0.02474,   0.00000  )

     Band symmetry, C_1 (1)     double point group:

     e(  1 -  2) =    -12.63631  eV     2   -->   2 G_2            
     e(  3 -  4) =    -12.10123  eV     2   -->   2 G_2            
     e(  5 -  6) =    -11.03043  eV     2   -->   2 G_2            
     e(  7 -  8) =     -8.32608  eV     2   -->   2 G_2            
     e(  9 - 10) =     -7.03691  eV     2   -->   2 G_2            
     e( 11 - 12) =     -2.65890  eV     2   -->   2 G_2            
     e( 13 - 13) =     -2.42071  eV     1   --> G_2            
     e( 14 - 14) =     -2.42055  eV     1   --> G_2            
     e( 15 - 15) =     -1.91744  eV     1   --> G_2            
     e( 16 - 16) =     -1.91681  eV     1   --> G_2            
     e( 17 - 17) =     -1.86515  eV     1   --> G_2            
     e( 18 - 18) =     -1.86485  eV     1   --> G_2            
     e( 19 - 19) =     -1.61116  eV     1   --> G_2            
     e( 20 - 20) =     -1.61063  eV     1   --> G_2            
     e( 21 - 21) =     -1.42915  eV     1   --> G_2            
     e( 22 - 22) =     -1.42836  eV     1   --> G_2            
     e( 23 - 23) =     -1.16163  eV     1   --> G_2            
     e( 24 - 24) =     -1.16110  eV     1   --> G_2            
     e( 25 - 25) =     -0.99544  eV     1   --> G_2            
     e( 26 - 26) =     -0.99495  eV     1   --> G_2            
     e( 27 - 27) =     -0.68387  eV     1   --> G_2            
     e( 28 - 28) =     -0.68356  eV     1   --> G_2            
     e( 29 - 29) =     -0.00699  eV     1   --> G_2            
     e( 30 - 30) =     -0.00661  eV     1   --> G_2            
     e( 31 - 31) =      0.46664  eV     1   --> G_2            
     e( 32 - 32) =      0.46689  eV     1   --> G_2            
     e( 33 - 33) =      0.85131  eV     1   --> G_2            
     e( 34 - 34) =      0.85167  eV     1   --> G_2            
     e( 35 - 35) =      1.23862  eV     1   --> G_2            
     e( 36 - 36) =      1.23937  eV     1   --> G_2            
     e( 37 - 37) =      1.85520  eV     1   --> G_2            
     e( 38 - 38) =      1.85556  eV     1   --> G_2            
     e( 39 - 39) =      2.07322  eV     1   --> G_2            
     e( 40 - 40) =      2.07333  eV     1   --> G_2            
     e( 41 - 42) =      4.14263  eV     2   -->   2 G_2            
     e( 43 - 44) =      4.30247  eV     2   -->   2 G_2            
     e( 45 - 46) =      4.97355  eV     2   -->   2 G_2            
     e( 47 - 48) =      5.10902  eV     2   -->   2 G_2            
     e( 49 - 50) =      5.44123  eV     2   -->   2 G_2            
     e( 51 - 52) =      5.84540  eV     2   -->   2 G_2            
     e( 53 - 54) =      6.31189  eV     2   -->   2 G_2            
     e( 55 - 56) =      6.42213  eV     2   -->   2 G_2            
     e( 57 - 57) =      6.53916  eV     1   --> G_2            
     e( 58 - 58) =      6.53927  eV     1   --> G_2            
     e( 59 - 60) =      6.65136  eV     2   -->   2 G_2            
     e( 61 - 62) =      7.15203  eV     2   -->   2 G_2            
     e( 63 - 64) =      7.57800  eV     2   -->   2 G_2            
     e( 65 - 66) =      7.69360  eV     2   -->   2 G_2            
     e( 67 - 68) =      7.90042  eV     2   -->   2 G_2            
     e( 69 - 70) =      8.04621  eV     2   -->   2 G_2            
     e( 71 - 72) =      8.51749  eV     2   -->   2 G_2            
     e( 73 - 74) =      8.81631  eV     2   -->   2 G_2            
     e( 75 - 75) =      9.06098  eV     1   --> G_2            
     e( 76 - 76) =      9.06110  eV     1   --> G_2            
     e( 77 - 77) =      9.27412  eV     1   --> G_2            
     e( 78 - 78) =      9.27426  eV     1   --> G_2            
     e( 79 - 79) =      9.73722  eV     1   --> G_2            
     e( 80 - 80) =      9.73746  eV     1   --> G_2            
     e( 81 - 81) =      9.85487  eV     1   --> G_2            
     e( 82 - 82) =      9.85509  eV     1   --> G_2            
     e( 83 - 84) =     10.70413  eV     2   -->   2 G_2            
     e( 85 - 86) =     10.82111  eV     2   -->   2 G_2            
     e( 87 - 88) =     11.39435  eV     2   -->   2 G_2            
     e( 89 - 90) =     11.88201  eV     2   -->   2 G_2            
     e( 91 - 91) =     12.08553  eV     1   --> G_2            
     e( 92 - 92) =     12.08564  eV     1   --> G_2            
     e( 93 - 94) =     12.31983  eV     2   -->   2 G_2            
     e( 95 - 96) =     12.51799  eV     2   -->   2 G_2            
     e( 97 - 98) =     12.74104  eV     2   -->   2 G_2            
     e( 99 -100) =     13.24217  eV     2   -->   2 G_2            

 **************************************************************************

 **************************************************************************

                    xk=(   0.05000,   0.02887,   0.00000  )

     Band symmetry, C_1 (1)     double point group:

     e(  1 -  2) =    -12.63109  eV     2   -->   2 G_2            
     e(  3 -  4) =    -12.09655  eV     2   -->   2 G_2            
     e(  5 -  6) =    -11.02783  eV     2   -->   2 G_2            
     e(  7 -  8) =     -8.32787  eV     2   -->   2 G_2            
     e(  9 - 10) =     -7.04814  eV     2   -->   2 G_2            
     e( 11 - 12) =     -2.67054  eV     2   -->   2 G_2            
     e( 13 - 13) =     -2.47389  eV     1   --> G_2            
     e( 14 - 14) =     -2.47373  eV     1   --> G_2            
     e( 15 - 15) =     -1.94310  eV     1   --> G_2            
     e( 16 - 16) =     -1.94225  eV     1   --> G_2            
     e( 17 - 17) =     -1.88953  eV     1   --> G_2            
     e( 18 - 18) =     -1.88929  eV     1   --> G_2            
     e( 19 - 19) =     -1.62196  eV     1   --> G_2            
     e( 20 - 20) =     -1.62141  eV     1   --> G_2            
     e( 21 - 21) =     -1.43174  eV     1   --> G_2            
     e( 22 - 22) =     -1.43105  eV     1   --> G_2            
     e( 23 - 23) =     -1.16157  eV     1   --> G_2            
     e( 24 - 24) =     -1.16107  eV     1   --> G_2            
     e( 25 - 25) =     -0.97994  eV     1   --> G_2            
     e( 26 - 26) =     -0.97946  eV     1   --> G_2            
     e( 27 - 27) =     -0.65510  eV     1   --> G_2            
     e( 28 - 28) =     -0.65476  eV     1   --> G_2            
     e( 29 - 29) =      0.04141  eV     1   --> G_2            
     e( 30 - 30) =      0.04183  eV     1   --> G_2            
     e( 31 - 31) =      0.45186  eV     1   --> G_2            
     e( 32 - 32) =      0.45211  eV     1   --> G_2            
     e( 33 - 33) =      0.85107  eV     1   --> G_2            
     e( 34 - 34) =      0.85137  eV     1   --> G_2            
     e( 35 - 35) =      1.26948  eV     1   --> G_2            
     e( 36 - 36) =      1.27024  eV     1   --> G_2            
     e( 37 - 37) =      1.87076  eV     1   --> G_2            
     e( 38 - 38) =      1.87116  eV     1   --> G_2            
     e( 39 - 39) =      2.07679  eV     1   --> G_2            
     e( 40 - 40) =      2.07690  eV     1   --> G_2            
     e( 41 - 42) =      4.15153  eV     2   -->   2 G_2            
     e( 43 - 44) =      4.30267  eV     2   -->   2 G_2            
     e( 45 - 46) =      4.97029  eV     2   -->   2 G_2            
     e( 47 - 48) =      5.09353  eV     2   -->   2 G_2            
     e( 49 - 50) =      5.43955  eV     2   -->   2 G_2            
     e( 51 - 52) =      5.85056  eV     2   -->   2 G_2            
     e( 53 - 54) =      6.30601  eV     2   -->   2 G_2            
     e( 55 - 56) =      6.42599  eV     2   -->   2 G_2            
     e( 57 - 58) =      6.53457  eV     2   -->   2 G_2            
     e( 59 - 60) =      6.67771  eV     2   -->   2 G_2            
     e( 61 - 62) =      7.14369  eV     2   -->   2 G_2            
     e( 63 - 64) =      7.61442  eV     2   -->   2 G_2            
     e( 65 - 66) =      7.71391  eV     2   -->   2 G_2            
     e( 67 - 68) =      7.89080  eV     2   -->   2 G_2            
     e( 69 - 70) =      8.06969  eV     2   -->   2 G_2            
     e( 71 - 72) =      8.53640  eV     2   -->   2 G_2            
     e( 73 - 74) =      8.80855  eV     2   -->   2 G_2            
     e( 75 - 75) =      9.04824  eV     1   --> G_2            
     e( 76 - 76) =      9.04835  eV     1   --> G_2            
     e( 77 - 77) =      9.25120  eV     1   --> G_2            
     e( 78 - 78) =      9.25133  eV     1   --> G_2            
     e( 79 - 79) =      9.79292  eV     1   --> G_2            
     e( 80 - 80) =      9.79318  eV     1   --> G_2            
     e( 81 - 81) =      9.90359  eV     1   --> G_2            
     e( 82 - 82) =      9.90383  eV     1   --> G_2            
     e( 83 - 84) =     10.68795  eV     2   -->   2 G_2            
     e( 85 - 86) =     10.82863  eV     2   -->   2 G_2            
     e( 87 - 88) =     11.35926  eV     2   -->   2 G_2            
     e( 89 - 90) =     11.85604  eV     2   -->   2 G_2            
     e( 91 - 91) =     12.08993  eV     1   --> G_2            
     e( 92 - 92) =     12.09003  eV     1   --> G_2            
     e( 93 - 94) =     12.34828  eV     2   -->   2 G_2            
     e( 95 - 96) =     12.51807  eV     2   -->   2 G_2            
     e( 97 - 98) =     12.69717  eV     2   -->   2 G_2            
     e( 99 -100) =     13.28093  eV     2   -->   2 G_2            

 **************************************************************************

 **************************************************************************

                    xk=(   0.05714,   0.03299,   0.00000  )

     Band symmetry, C_1 (1)     double point group:

     e(  1 -  2) =    -12.62507  eV     2   -->   2 G_2            
     e(  3 -  4) =    -12.09116  eV     2   -->   2 G_2            
     e(  5 -  6) =    -11.02484  eV     2   -->   2 G_2            
     e(  7 -  8) =     -8.32997  eV     2   -->   2 G_2            
     e(  9 - 10) =     -7.06107  eV     2   -->   2 G_2            
     e( 11 - 11) =     -2.68453  eV     1   --> G_2            
     e( 12 - 12) =     -2.68443  eV     1   --> G_2            
     e( 13 - 13) =     -2.52963  eV     1   --> G_2            
     e( 14 - 14) =     -2.52946  eV     1   --> G_2            
     e( 15 - 15) =     -1.98072  eV     1   --> G_2            
     e( 16 - 16) =     -1.97978  eV     1   --> G_2            
     e( 17 - 17) =     -1.90546  eV     1   --> G_2            
     e( 18 - 18) =     -1.90503  eV     1   --> G_2            
     e( 19 - 19) =     -1.63590  eV     1   --> G_2            
     e( 20 - 20) =     -1.63532  eV     1   --> G_2            
     e( 21 - 21) =     -1.44054  eV     1   --> G_2            
     e( 22 - 22) =     -1.43998  eV     1   --> G_2            
     e( 23 - 23) =     -1.16207  eV     1   --> G_2            
     e( 24 - 24) =     -1.16161  eV     1   --> G_2            
     e( 25 - 25) =     -0.95677  eV     1   --> G_2            
     e( 26 - 26) =     -0.95633  eV     1   --> G_2            
     e( 27 - 27) =     -0.62436  eV     1   --> G_2            
     e( 28 - 28) =     -0.62402  eV     1   --> G_2            
     e( 29 - 29) =      0.08685  eV     1   --> G_2            
     e( 30 - 30) =      0.08729  eV     1   --> G_2            
     e( 31 - 31) =      0.44168  eV     1   --> G_2            
     e( 32 - 32) =      0.44192  eV     1   --> G_2            
     e( 33 - 33) =      0.85645  eV     1   --> G_2            
     e( 34 - 34) =      0.85668  eV     1   --> G_2            
     e( 35 - 35) =      1.29852  eV     1   --> G_2            
     e( 36 - 36) =      1.29928  eV     1   --> G_2            
     e( 37 - 37) =      1.88600  eV     1   --> G_2            
     e( 38 - 38) =      1.88643  eV     1   --> G_2            
     e( 39 - 39) =      2.08382  eV     1   --> G_2            
     e( 40 - 40) =      2.08393  eV     1   --> G_2            
     e( 41 - 42) =      4.16166  eV     2   -->   2 G_2            
     e( 43 - 44) =      4.30270  eV     2   -->   2 G_2            
     e( 45 - 46) =      4.96251  eV     2   -->   2 G_2            
     e( 47 - 48) =      5.08059  eV     2   -->   2 G_2            
     e( 49 - 50) =      5.43842  eV     2   -->   2 G_2            
     e( 51 - 52) =      5.85771  eV     2   -->   2 G_2            
     e( 53 - 54) =      6.29066  eV     2   -->   2 G_2            
     e( 55 - 56) =      6.43799  eV     2   -->   2 G_2            
     e( 57 - 58) =      6.53248  eV     2   -->   2 G_2            
     e( 59 - 60) =      6.70685  eV     2   -->   2 G_2            
     e( 61 - 62) =      7.13678  eV     2   -->   2 G_2            
     e( 63 - 64) =      7.63681  eV     2   -->   2 G_2            
     e( 65 - 66) =      7.73891  eV     2   -->   2 G_2            
     e( 67 - 68) =      7.89181  eV     2   -->   2 G_2            
     e( 69 - 70) =      8.09754  eV     2   -->   2 G_2            
     e( 71 - 72) =      8.55906  eV     2   -->   2 G_2            
     e( 73 - 74) =      8.79041  eV     2   -->   2 G_2            
     e( 75 - 76) =      9.04861  eV     2   -->   2 G_2            
     e( 77 - 77) =      9.23041  eV     1   --> G_2            
     e( 78 - 78) =      9.23052  eV     1   --> G_2            
     e( 79 - 79) =      9.84692  eV     1   --> G_2            
     e( 80 - 80) =      9.84718  eV     1   --> G_2            
     e( 81 - 81) =      9.95447  eV     1   --> G_2            
     e( 82 - 82) =      9.95471  eV     1   --> G_2            
     e( 83 - 84) =     10.66959  eV     2   -->   2 G_2            
     e( 85 - 86) =     10.83821  eV     2   -->   2 G_2            
     e( 87 - 88) =     11.32756  eV     2   -->   2 G_2            
     e( 89 - 90) =     11.82791  eV     2   -->   2 G_2            
     e( 91 - 92) =     12.08568  eV     2   -->   2 G_2            
     e( 93 - 94) =     12.37485  eV     2   -->   2 G_2            
     e( 95 - 96) =     12.48728  eV     2   -->   2 G_2            
     e( 97 - 98) =     12.69631  eV     2   -->   2 G_2            
     e( 99 -100) =     13.31533  eV     2   -->   2 G_2            

 **************************************************************************

 **************************************************************************

                    xk=(   0.06429,   0.03712,   0.00000  )

     Band symmetry, C_1 (1)     double point group:

     e(  1 -  2) =    -12.61825  eV     2   -->   2 G_2            
     e(  3 -  4) =    -12.08505  eV     2   -->   2 G_2            
     e(  5 -  6) =    -11.02147  eV     2   -->   2 G_2            
     e(  7 -  8) =     -8.33238  eV     2   -->   2 G_2            
     e(  9 - 10) =     -7.07567  eV     2   -->   2 G_2            
     e( 11 - 11) =     -2.70188  eV     1   --> G_2            
     e( 12 - 12) =     -2.70176  eV     1   --> G_2            
     e( 13 - 13) =     -2.58609  eV     1   --> G_2            
     e( 14 - 14) =     -2.58589  eV     1   --> G_2            
     e( 15 - 15) =     -2.02288  eV     1   --> G_2            
     e( 16 - 16) =     -2.02194  eV     1   --> G_2            
     e( 17 - 17) =     -1.91975  eV     1   --> G_2            
     e( 18 - 18) =     -1.91926  eV     1   --> G_2            
     e( 19 - 19) =     -1.65377  eV     1   --> G_2            
     e( 20 - 20) =     -1.65317  eV     1   --> G_2            
     e( 21 - 21) =     -1.45398  eV     1   --> G_2            
     e( 22 - 22) =     -1.45355  eV     1   --> G_2            
     e( 23 - 23) =     -1.16069  eV     1   --> G_2            
     e( 24 - 24) =     -1.16028  eV     1   --> G_2            
     e( 25 - 25) =     -0.92868  eV     1   --> G_2            
     e( 26 - 26) =     -0.92828  eV     1   --> G_2            
     e( 27 - 27) =     -0.59364  eV     1   --> G_2            
     e( 28 - 28) =     -0.59331  eV     1   --> G_2            
     e( 29 - 29) =      0.12589  eV     1   --> G_2            
     e( 30 - 30) =      0.12633  eV     1   --> G_2            
     e( 31 - 31) =      0.44043  eV     1   --> G_2            
     e( 32 - 32) =      0.44067  eV     1   --> G_2            
     e( 33 - 33) =      0.86693  eV     1   --> G_2            
     e( 34 - 34) =      0.86709  eV     1   --> G_2            
     e( 35 - 35) =      1.32562  eV     1   --> G_2            
     e( 36 - 36) =      1.32637  eV     1   --> G_2            
     e( 37 - 37) =      1.89983  eV     1   --> G_2            
     e( 38 - 38) =      1.90029  eV     1   --> G_2            
     e( 39 - 39) =      2.09536  eV     1   --> G_2            
     e( 40 - 40) =      2.09548  eV     1   --> G_2            
     e( 41 - 42) =      4.17297  eV     2   -->   2 G_2            
     e( 43 - 44) =      4.30246  eV     2   -->   2 G_2            
     e( 45 - 46) =      4.94853  eV     2   -->   2 G_2            
     e( 47 - 48) =      5.07239  eV     2   -->   2 G_2            
     e( 49 - 50) =      5.43795  eV     2   -->   2 G_2            
     e( 51 - 52) =      5.86689  eV     2   -->   2 G_2            
     e( 53 - 54) =      6.26987  eV     2   -->   2 G_2            
     e( 55 - 56) =      6.45441  eV     2   -->   2 G_2            
     e( 57 - 58) =      6.53286  eV     2   -->   2 G_2            
     e( 59 - 60) =      6.73818  eV     2   -->   2 G_2            
     e( 61 - 62) =      7.13164  eV     2   -->   2 G_2            
     e( 63 - 64) =      7.64120  eV     2   -->   2 G_2            
     e( 65 - 66) =      7.76845  eV     2   -->   2 G_2            
     e( 67 - 68) =      7.90694  eV     2   -->   2 G_2            
     e( 69 - 70) =      8.12964  eV     2   -->   2 G_2            
     e( 71 - 72) =      8.58476  eV     2   -->   2 G_2            
     e( 73 - 74) =      8.76594  eV     2   -->   2 G_2            
     e( 75 - 76) =      9.05854  eV     2   -->   2 G_2            
     e( 77 - 78) =      9.21261  eV     2   -->   2 G_2            
     e( 79 - 79) =      9.89845  eV     1   --> G_2            
     e( 80 - 80) =      9.89871  eV     1   --> G_2            
     e( 81 - 81) =     10.00669  eV     1   --> G_2            
     e( 82 - 82) =     10.00693  eV     1   --> G_2            
     e( 83 - 84) =     10.64998  eV     2   -->   2 G_2            
     e( 85 - 86) =     10.84979  eV     2   -->   2 G_2            
     e( 87 - 88) =     11.29977  eV     2   -->   2 G_2            
     e( 89 - 90) =     11.79928  eV     2   -->   2 G_2            
     e( 91 - 92) =     12.06792  eV     2   -->   2 G_2            
     e( 93 - 94) =     12.37622  eV     2   -->   2 G_2            
     e( 95 - 96) =     12.47031  eV     2   -->   2 G_2            
     e( 97 - 98) =     12.72119  eV     2   -->   2 G_2            
     e( 99 -100) =     13.29265  eV     2   -->   2 G_2            

 **************************************************************************

 **************************************************************************

                    xk=(   0.07143,   0.04124,   0.00000  )

     Band symmetry, C_1 (1)     double point group:

     e(  1 -  2) =    -12.61064  eV     2   -->   2 G_2            
     e(  3 -  4) =    -12.07824  eV     2   -->   2 G_2            
     e(  5 -  6) =    -11.01773  eV     2   -->   2 G_2            
     e(  7 -  8) =     -8.33514  eV     2   -->   2 G_2            
     e(  9 - 10) =     -7.09193  eV     2   -->   2 G_2            
     e( 11 - 11) =     -2.72557  eV     1   --> G_2            
     e( 12 - 12) =     -2.72541  eV     1   --> G_2            
     e( 13 - 13) =     -2.63959  eV     1   --> G_2            
     e( 14 - 14) =     -2.63934  eV     1   --> G_2            
     e( 15 - 15) =     -2.06689  eV     1   --> G_2            
     e( 16 - 16) =     -2.06597  eV     1   --> G_2            
     e( 17 - 17) =     -1.93483  eV     1   --> G_2            
     e( 18 - 18) =     -1.93433  eV     1   --> G_2            
     e( 19 - 19) =     -1.67606  eV     1   --> G_2            
     e( 20 - 20) =     -1.67544  eV     1   --> G_2            
     e( 21 - 21) =     -1.47006  eV     1   --> G_2            
     e( 22 - 22) =     -1.46973  eV     1   --> G_2            
     e( 23 - 23) =     -1.15651  eV     1   --> G_2            
     e( 24 - 24) =     -1.15613  eV     1   --> G_2            
     e( 25 - 25) =     -0.89778  eV     1   --> G_2            
     e( 26 - 26) =     -0.89740  eV     1   --> G_2            
     e( 27 - 27) =     -0.56503  eV     1   --> G_2            
     e( 28 - 28) =     -0.56472  eV     1   --> G_2            
     e( 29 - 29) =      0.15575  eV     1   --> G_2            
     e( 30 - 30) =      0.15618  eV     1   --> G_2            
     e( 31 - 31) =      0.45202  eV     1   --> G_2            
     e( 32 - 32) =      0.45228  eV     1   --> G_2            
     e( 33 - 33) =      0.88195  eV     1   --> G_2            
     e( 34 - 34) =      0.88206  eV     1   --> G_2            
     e( 35 - 35) =      1.35082  eV     1   --> G_2            
     e( 36 - 36) =      1.35155  eV     1   --> G_2            
     e( 37 - 37) =      1.91158  eV     1   --> G_2            
     e( 38 - 38) =      1.91207  eV     1   --> G_2            
     e( 39 - 39) =      2.11203  eV     1   --> G_2            
     e( 40 - 40) =      2.11217  eV     1   --> G_2            
     e( 41 - 42) =      4.18541  eV     2   -->   2 G_2            
     e( 43 - 44) =      4.30182  eV     2   -->   2 G_2            
     e( 45 - 46) =      4.92826  eV     2   -->   2 G_2            
     e( 47 - 48) =      5.06963  eV     2   -->   2 G_2            
     e( 49 - 50) =      5.43822  eV     2   -->   2 G_2            
     e( 51 - 52) =      5.87808  eV     2   -->   2 G_2            
     e( 53 - 54) =      6.24697  eV     2   -->   2 G_2            
     e( 55 - 56) =      6.47220  eV     2   -->   2 G_2            
     e( 57 - 58) =      6.53538  eV     2   -->   2 G_2            
     e( 59 - 60) =      6.77137  eV     2   -->   2 G_2            
     e( 61 - 62) =      7.12858  eV     2   -->   2 G_2            
     e( 63 - 64) =      7.63158  eV     2   -->   2 G_2            
     e( 65 - 66) =      7.79898  eV     2   -->   2 G_2            
     e( 67 - 68) =      7.93544  eV     2   -->   2 G_2            
     e( 69 - 70) =      8.16541  eV     2   -->   2 G_2            
     e( 71 - 72) =      8.61163  eV     2   -->   2 G_2            
     e( 73 - 74) =      8.74126  eV     2   -->   2 G_2            
     e( 75 - 76) =      9.07386  eV     2   -->   2 G_2            
     e( 77 - 78) =      9.19858  eV     2   -->   2 G_2            
     e( 79 - 79) =      9.94701  eV     1   --> G_2            
     e( 80 - 80) =      9.94725  eV     1   --> G_2            
     e( 81 - 81) =     10.05915  eV     1   --> G_2            
     e( 82 - 82) =     10.05936  eV     1   --> G_2            
     e( 83 - 84) =     10.63036  eV     2   -->   2 G_2            
     e( 85 - 86) =     10.86325  eV     2   -->   2 G_2            
     e( 87 - 88) =     11.27625  eV     2   -->   2 G_2            
     e( 89 - 90) =     11.77106  eV     2   -->   2 G_2            
     e( 91 - 92) =     12.03070  eV     2   -->   2 G_2            
     e( 93 - 94) =     12.35011  eV     2   -->   2 G_2            
     e( 95 - 96) =     12.49181  eV     2   -->   2 G_2            
     e( 97 - 98) =     12.75404  eV     2   -->   2 G_2            
     e( 99 -100) =     13.19091  eV     2   -->   2 G_2            

 **************************************************************************

 **************************************************************************

                    xk=(   0.07857,   0.04536,   0.00000  )

     Band symmetry, C_1 (1)     double point group:

     e(  1 -  2) =    -12.60223  eV     2   -->   2 G_2            
     e(  3 -  4) =    -12.07073  eV     2   -->   2 G_2            
     e(  5 -  6) =    -11.01362  eV     2   -->   2 G_2            
     e(  7 -  8) =     -8.33826  eV     2   -->   2 G_2            
     e(  9 - 10) =     -7.10982  eV     2   -->   2 G_2            
     e( 11 - 11) =     -2.76202  eV     1   --> G_2            
     e( 12 - 12) =     -2.76185  eV     1   --> G_2            
     e( 13 - 13) =     -2.68304  eV     1   --> G_2            
     e( 14 - 14) =     -2.68275  eV     1   --> G_2            
     e( 15 - 15) =     -2.11202  eV     1   --> G_2            
     e( 16 - 16) =     -2.11112  eV     1   --> G_2            
     e( 17 - 17) =     -1.95118  eV     1   --> G_2            
     e( 18 - 18) =     -1.95070  eV     1   --> G_2            
     e( 19 - 19) =     -1.70276  eV     1   --> G_2            
     e( 20 - 20) =     -1.70212  eV     1   --> G_2            
     e( 21 - 21) =     -1.48696  eV     1   --> G_2            
     e( 22 - 22) =     -1.48665  eV     1   --> G_2            
     e( 23 - 23) =     -1.14972  eV     1   --> G_2            
     e( 24 - 24) =     -1.14938  eV     1   --> G_2            
     e( 25 - 25) =     -0.86551  eV     1   --> G_2            
     e( 26 - 26) =     -0.86514  eV     1   --> G_2            
     e( 27 - 27) =     -0.54059  eV     1   --> G_2            
     e( 28 - 28) =     -0.54031  eV     1   --> G_2            
     e( 29 - 29) =      0.17656  eV     1   --> G_2            
     e( 30 - 30) =      0.17694  eV     1   --> G_2            
     e( 31 - 31) =      0.47761  eV     1   --> G_2            
     e( 32 - 32) =      0.47792  eV     1   --> G_2            
     e( 33 - 34) =      0.90100  eV     2   -->   2 G_2            
     e( 35 - 35) =      1.37432  eV     1   --> G_2            
     e( 36 - 36) =      1.37503  eV     1   --> G_2            
     e( 37 - 37) =      1.92126  eV     1   --> G_2            
     e( 38 - 38) =      1.92178  eV     1   --> G_2            
     e( 39 - 39) =      2.13377  eV     1   --> G_2            
     e( 40 - 40) =      2.13394  eV     1   --> G_2            
     e( 41 - 42) =      4.19893  eV     2   -->   2 G_2            
     e( 43 - 44) =      4.30061  eV     2   -->   2 G_2            
     e( 45 - 46) =      4.90320  eV     2   -->   2 G_2            
     e( 47 - 48) =      5.07141  eV     2   -->   2 G_2            
     e( 49 - 50) =      5.43929  eV     2   -->   2 G_2            
     e( 51 - 52) =      5.89122  eV     2   -->   2 G_2            
     e( 53 - 54) =      6.22402  eV     2   -->   2 G_2            
     e( 55 - 56) =      6.48923  eV     2   -->   2 G_2            
     e( 57 - 58) =      6.53982  eV     2   -->   2 G_2            
     e( 59 - 60) =      6.80611  eV     2   -->   2 G_2            
     e( 61 - 62) =      7.12793  eV     2   -->   2 G_2            
     e( 63 - 64) =      7.61407  eV     2   -->   2 G_2            
     e( 65 - 66) =      7.82829  eV     2   -->   2 G_2            
     e( 67 - 68) =      7.97330  eV     2   -->   2 G_2            
     e( 69 - 70) =      8.20353  eV     2   -->   2 G_2            
     e( 71 - 72) =      8.63351  eV     2   -->   2 G_2            
     e( 73 - 74) =      8.72613  eV     2   -->   2 G_2            
     e( 75 - 76) =      9.09152  eV     2   -->   2 G_2            
     e( 77 - 78) =      9.18909  eV     2   -->   2 G_2            
     e( 79 - 79) =      9.99215  eV     1   --> G_2            
     e( 80 - 80) =      9.99236  eV     1   --> G_2            
     e( 81 - 81) =     10.11048  eV     1   --> G_2            
     e( 82 - 82) =     10.11066  eV     1   --> G_2            
     e( 83 - 84) =     10.61229  eV     2   -->   2 G_2            
     e( 85 - 86) =     10.87840  eV     2   -->   2 G_2            
     e( 87 - 88) =     11.25715  eV     2   -->   2 G_2            
     e( 89 - 90) =     11.74383  eV     2   -->   2 G_2            
     e( 91 - 92) =     11.97187  eV     2   -->   2 G_2            
     e( 93 - 94) =     12.33300  eV     2   -->   2 G_2            
     e( 95 - 96) =     12.52235  eV     2   -->   2 G_2            
     e( 97 - 98) =     12.78710  eV     2   -->   2 G_2            
     e( 99 -100) =     13.08687  eV     2   -->   2 G_2            

 **************************************************************************

 **************************************************************************

                    xk=(   0.08571,   0.04949,   0.00000  )

     Band symmetry, C_1 (1)     double point group:

     e(  1 -  2) =    -12.59303  eV     2   -->   2 G_2            
     e(  3 -  4) =    -12.06251  eV     2   -->   2 G_2            
     e(  5 -  6) =    -11.00915  eV     2   -->   2 G_2            
     e(  7 -  8) =     -8.34176  eV     2   -->   2 G_2            
     e(  9 - 10) =     -7.12933  eV     2   -->   2 G_2            
     e( 11 - 11) =     -2.81378  eV     1   --> G_2            
     e( 12 - 12) =     -2.81363  eV     1   --> G_2            
     e( 13 - 13) =     -2.71330  eV     1   --> G_2            
     e( 14 - 14) =     -2.71303  eV     1   --> G_2            
     e( 15 - 15) =     -2.15810  eV     1   --> G_2            
     e( 16 - 16) =     -2.15723  eV     1   --> G_2            
     e( 17 - 17) =     -1.96884  eV     1   --> G_2            
     e( 18 - 18) =     -1.96838  eV     1   --> G_2            
     e( 19 - 19) =     -1.73329  eV     1   --> G_2            
     e( 20 - 20) =     -1.73264  eV     1   --> G_2            
     e( 21 - 21) =     -1.50348  eV     1   --> G_2            
     e( 22 - 22) =     -1.50312  eV     1   --> G_2            
     e( 23 - 23) =     -1.14099  eV     1   --> G_2            
     e( 24 - 24) =     -1.14068  eV     1   --> G_2            
     e( 25 - 25) =     -0.83286  eV     1   --> G_2            
     e( 26 - 26) =     -0.83249  eV     1   --> G_2            
     e( 27 - 27) =     -0.52217  eV     1   --> G_2            
     e( 28 - 28) =     -0.52191  eV     1   --> G_2            
     e( 29 - 29) =      0.19200  eV     1   --> G_2            
     e( 30 - 30) =      0.19232  eV     1   --> G_2            
     e( 31 - 31) =      0.51473  eV     1   --> G_2            
     e( 32 - 32) =      0.51509  eV     1   --> G_2            
     e( 33 - 34) =      0.92356  eV     2   -->   2 G_2            
     e( 35 - 35) =      1.39645  eV     1   --> G_2            
     e( 36 - 36) =      1.39713  eV     1   --> G_2            
     e( 37 - 37) =      1.92953  eV     1   --> G_2            
     e( 38 - 38) =      1.93008  eV     1   --> G_2            
     e( 39 - 39) =      2.15984  eV     1   --> G_2            
     e( 40 - 40) =      2.16004  eV     1   --> G_2            
     e( 41 - 42) =      4.21345  eV     2   -->   2 G_2            
     e( 43 - 44) =      4.29861  eV     2   -->   2 G_2            
     e( 45 - 46) =      4.87529  eV     2   -->   2 G_2            
     e( 47 - 48) =      5.07645  eV     2   -->   2 G_2            
     e( 49 - 50) =      5.44123  eV     2   -->   2 G_2            
     e( 51 - 52) =      5.90622  eV     2   -->   2 G_2            
     e( 53 - 54) =      6.20230  eV     2   -->   2 G_2            
     e( 55 - 56) =      6.50351  eV     2   -->   2 G_2            
     e( 57 - 58) =      6.54656  eV     2   -->   2 G_2            
     e( 59 - 60) =      6.84215  eV     2   -->   2 G_2            
     e( 61 - 62) =      7.13005  eV     2   -->   2 G_2            
     e( 63 - 64) =      7.59321  eV     2   -->   2 G_2            
     e( 65 - 66) =      7.85611  eV     2   -->   2 G_2            
     e( 67 - 68) =      8.01651  eV     2   -->   2 G_2            
     e( 69 - 70) =      8.24174  eV     2   -->   2 G_2            
     e( 71 - 72) =      8.63839  eV     2   -->   2 G_2            
     e( 73 - 74) =      8.73575  eV     2   -->   2 G_2            
     e( 75 - 76) =      9.10958  eV     2   -->   2 G_2            
     e( 77 - 78) =      9.18490  eV     2   -->   2 G_2            
     e( 79 - 79) =     10.03327  eV     1   --> G_2            
     e( 80 - 80) =     10.03344  eV     1   --> G_2            
     e( 81 - 81) =     10.15922  eV     1   --> G_2            
     e( 82 - 82) =     10.15936  eV     1   --> G_2            
     e( 83 - 84) =     10.59766  eV     2   -->   2 G_2            
     e( 85 - 86) =     10.89505  eV     2   -->   2 G_2            
     e( 87 - 88) =     11.24250  eV     2   -->   2 G_2            
     e( 89 - 90) =     11.71799  eV     2   -->   2 G_2            
     e( 91 - 92) =     11.89666  eV     2   -->   2 G_2            
     e( 93 - 94) =     12.33288  eV     2   -->   2 G_2            
     e( 95 - 96) =     12.54959  eV     2   -->   2 G_2            
     e( 97 - 98) =     12.81071  eV     2   -->   2 G_2            
     e( 99 -100) =     12.99201  eV     2   -->   2 G_2            

 **************************************************************************

 **************************************************************************

                    xk=(   0.09286,   0.05361,   0.00000  )

     Band symmetry, C_1 (1)     double point group:

     e(  1 -  2) =    -12.58304  eV     2   -->   2 G_2            
     e(  3 -  4) =    -12.05360  eV     2   -->   2 G_2            
     e(  5 -  6) =    -11.00433  eV     2   -->   2 G_2            
     e(  7 -  8) =     -8.34565  eV     2   -->   2 G_2            
     e(  9 - 10) =     -7.15042  eV     2   -->   2 G_2            
     e( 11 - 11) =     -2.87432  eV     1   --> G_2            
     e( 12 - 12) =     -2.87421  eV     1   --> G_2            
     e( 13 - 13) =     -2.73644  eV     1   --> G_2            
     e( 14 - 14) =     -2.73619  eV     1   --> G_2            
     e( 15 - 15) =     -2.20511  eV     1   --> G_2            
     e( 16 - 16) =     -2.20426  eV     1   --> G_2            
     e( 17 - 17) =     -1.98776  eV     1   --> G_2            
     e( 18 - 18) =     -1.98735  eV     1   --> G_2            
     e( 19 - 19) =     -1.76666  eV     1   --> G_2            
     e( 20 - 20) =     -1.76600  eV     1   --> G_2            
     e( 21 - 21) =     -1.51905  eV     1   --> G_2            
     e( 22 - 22) =     -1.51861  eV     1   --> G_2            
     e( 23 - 23) =     -1.13108  eV     1   --> G_2            
     e( 24 - 24) =     -1.13080  eV     1   --> G_2            
     e( 25 - 25) =     -0.80070  eV     1   --> G_2            
     e( 26 - 26) =     -0.80032  eV     1   --> G_2            
     e( 27 - 27) =     -0.51105  eV     1   --> G_2            
     e( 28 - 28) =     -0.51079  eV     1   --> G_2            
     e( 29 - 29) =      0.20698  eV     1   --> G_2            
     e( 30 - 30) =      0.20724  eV     1   --> G_2            
     e( 31 - 31) =      0.55926  eV     1   --> G_2            
     e( 32 - 32) =      0.55968  eV     1   --> G_2            
     e( 33 - 33) =      0.94912  eV     1   --> G_2            
     e( 34 - 34) =      0.94925  eV     1   --> G_2            
     e( 35 - 35) =      1.41767  eV     1   --> G_2            
     e( 36 - 36) =      1.41831  eV     1   --> G_2            
     e( 37 - 37) =      1.93740  eV     1   --> G_2            
     e( 38 - 38) =      1.93797  eV     1   --> G_2            
     e( 39 - 39) =      2.18920  eV     1   --> G_2            
     e( 40 - 40) =      2.18942  eV     1   --> G_2            
     e( 41 - 42) =      4.22890  eV     2   -->   2 G_2            
     e( 43 - 44) =      4.29556  eV     2   -->   2 G_2            
     e( 45 - 46) =      4.84617  eV     2   -->   2 G_2            
     e( 47 - 48) =      5.08374  eV     2   -->   2 G_2            
     e( 49 - 50) =      5.44410  eV     2   -->   2 G_2            
     e( 51 - 52) =      5.92298  eV     2   -->   2 G_2            
     e( 53 - 54) =      6.18262  eV     2   -->   2 G_2            
     e( 55 - 56) =      6.51286  eV     2   -->   2 G_2            
     e( 57 - 58) =      6.55655  eV     2   -->   2 G_2            
     e( 59 - 60) =      6.87919  eV     2   -->   2 G_2            
     e( 61 - 62) =      7.13525  eV     2   -->   2 G_2            
     e( 63 - 64) =      7.57190  eV     2   -->   2 G_2            
     e( 65 - 66) =      7.88257  eV     2   -->   2 G_2            
     e( 67 - 68) =      8.06244  eV     2   -->   2 G_2            
     e( 69 - 70) =      8.27669  eV     2   -->   2 G_2            
     e( 71 - 72) =      8.63077  eV     2   -->   2 G_2            
     e( 73 - 74) =      8.76892  eV     2   -->   2 G_2            
     e( 75 - 76) =      9.12704  eV     2   -->   2 G_2            
     e( 77 - 78) =      9.18664  eV     2   -->   2 G_2            
     e( 79 - 79) =     10.06941  eV     1   --> G_2            
     e( 80 - 80) =     10.06955  eV     1   --> G_2            
     e( 81 - 81) =     10.20396  eV     1   --> G_2            
     e( 82 - 82) =     10.20406  eV     1   --> G_2            
     e( 83 - 84) =     10.58859  eV     2   -->   2 G_2            
     e( 85 - 86) =     10.91289  eV     2   -->   2 G_2            
     e( 87 - 88) =     11.23202  eV     2   -->   2 G_2            
     e( 89 - 89) =     11.69352  eV     1   --> G_2            
     e( 90 - 90) =     11.69363  eV     1   --> G_2            
     e( 91 - 91) =     11.81323  eV     1   --> G_2            
     e( 92 - 92) =     11.81335  eV     1   --> G_2            
     e( 93 - 94) =     12.34627  eV     2   -->   2 G_2            
     e( 95 - 96) =     12.56907  eV     2   -->   2 G_2            
     e( 97 - 98) =     12.79139  eV     2   -->   2 G_2            
     e( 99 -100) =     12.93590  eV     2   -->   2 G_2            

 **************************************************************************

 **************************************************************************

                    xk=(   0.10000,   0.05774,   0.00000  )

     Band symmetry, C_1 (1)     double point group:

     e(  1 -  2) =    -12.57227  eV     2   -->   2 G_2            
     e(  3 -  4) =    -12.04400  eV     2   -->   2 G_2            
     e(  5 -  6) =    -10.99918  eV     2   -->   2 G_2            
     e(  7 -  8) =     -8.34997  eV     2   -->   2 G_2            
     e(  9 - 10) =     -7.17307  eV     2   -->   2 G_2            
     e( 11 - 12) =     -2.93862  eV     2   -->   2 G_2            
     e( 13 - 13) =     -2.75704  eV     1   --> G_2            
     e( 14 - 14) =     -2.75680  eV     1   --> G_2            
     e( 15 - 15) =     -2.25307  eV     1   --> G_2            
     e( 16 - 16) =     -2.25225  eV     1   --> G_2            
     e( 17 - 17) =     -2.00799  eV     1   --> G_2            
     e( 18 - 18) =     -2.00761  eV     1   --> G_2            
     e( 19 - 19) =     -1.80167  eV     1   --> G_2            
     e( 20 - 20) =     -1.80102  eV     1   --> G_2            
     e( 21 - 21) =     -1.53354  eV     1   --> G_2            
     e( 22 - 22) =     -1.53304  eV     1   --> G_2            
     e( 23 - 23) =     -1.12068  eV     1   --> G_2            
     e( 24 - 24) =     -1.12043  eV     1   --> G_2            
     e( 25 - 25) =     -0.76994  eV     1   --> G_2            
     e( 26 - 26) =     -0.76956  eV     1   --> G_2            
     e( 27 - 27) =     -0.50751  eV     1   --> G_2            
     e( 28 - 28) =     -0.50724  eV     1   --> G_2            
     e( 29 - 29) =      0.22521  eV     1   --> G_2            
     e( 30 - 30) =      0.22541  eV     1   --> G_2            
     e( 31 - 31) =      0.60769  eV     1   --> G_2            
     e( 32 - 32) =      0.60813  eV     1   --> G_2            
     e( 33 - 33) =      0.97706  eV     1   --> G_2            
     e( 34 - 34) =      0.97724  eV     1   --> G_2            
     e( 35 - 35) =      1.43859  eV     1   --> G_2            
     e( 36 - 36) =      1.43918  eV     1   --> G_2            
     e( 37 - 37) =      1.94589  eV     1   --> G_2            
     e( 38 - 38) =      1.94647  eV     1   --> G_2            
     e( 39 - 39) =      2.22077  eV     1   --> G_2            
     e( 40 - 40) =      2.22101  eV     1   --> G_2            
     e( 41 - 42) =      4.24518  eV     2   -->   2 G_2            
     e( 43 - 44) =      4.29118  eV     2   -->   2 G_2            
     e( 45 - 46) =      4.81719  eV     2   -->   2 G_2            
     e( 47 - 48) =      5.09267  eV     2   -->   2 G_2            
     e( 49 - 50) =      5.44801  eV     2   -->   2 G_2            
     e( 51 - 52) =      5.94138  eV     2   -->   2 G_2            
     e( 53 - 54) =      6.16556  eV     2   -->   2 G_2            
     e( 55 - 56) =      6.51626  eV     2   -->   2 G_2            
     e( 57 - 58) =      6.56995  eV     2   -->   2 G_2            
     e( 59 - 60) =      6.91687  eV     2   -->   2 G_2            
     e( 61 - 62) =      7.14386  eV     2   -->   2 G_2            
     e( 63 - 64) =      7.55197  eV     2   -->   2 G_2            
     e( 65 - 66) =      7.90764  eV     2   -->   2 G_2            
     e( 67 - 68) =      8.10964  eV     2   -->   2 G_2            
     e( 69 - 70) =      8.30416  eV     2   -->   2 G_2            
     e( 71 - 72) =      8.62644  eV     2   -->   2 G_2            
     e( 73 - 74) =      8.81360  eV     2   -->   2 G_2            
     e( 75 - 76) =      9.14401  eV     2   -->   2 G_2            
     e( 77 - 78) =      9.19431  eV     2   -->   2 G_2            
     e( 79 - 79) =     10.09926  eV     1   --> G_2            
     e( 80 - 80) =     10.09937  eV     1   --> G_2            
     e( 81 - 82) =     10.24370  eV     2   -->   2 G_2            
     e( 83 - 84) =     10.58715  eV     2   -->   2 G_2            
     e( 85 - 86) =     10.93164  eV     2   -->   2 G_2            
     e( 87 - 88) =     11.22482  eV     2   -->   2 G_2            
     e( 89 - 89) =     11.66786  eV     1   --> G_2            
     e( 90 - 90) =     11.66805  eV     1   --> G_2            
     e( 91 - 91) =     11.73096  eV     1   --> G_2            
     e( 92 - 92) =     11.73115  eV     1   --> G_2            
     e( 93 - 94) =     12.36931  eV     2   -->   2 G_2            
     e( 95 - 96) =     12.57811  eV     2   -->   2 G_2            
     e( 97 - 98) =     12.71231  eV     2   -->   2 G_2            
     e( 99 -100) =     12.90309  eV     2   -->   2 G_2            

 **************************************************************************

 **************************************************************************

                    xk=(   0.10714,   0.06186,   0.00000  )

     Band symmetry, C_1 (1)     double point group:

     e(  1 -  2) =    -12.56071  eV     2   -->   2 G_2            
     e(  3 -  4) =    -12.03372  eV     2   -->   2 G_2            
     e(  5 -  6) =    -10.99369  eV     2   -->   2 G_2            
     e(  7 -  8) =     -8.35473  eV     2   -->   2 G_2            
     e(  9 - 10) =     -7.19723  eV     2   -->   2 G_2            
     e( 11 - 12) =     -3.00458  eV     2   -->   2 G_2            
     e( 13 - 13) =     -2.77678  eV     1   --> G_2            
     e( 14 - 14) =     -2.77654  eV     1   --> G_2            
     e( 15 - 15) =     -2.30200  eV     1   --> G_2            
     e( 16 - 16) =     -2.30121  eV     1   --> G_2            
     e( 17 - 17) =     -2.02959  eV     1   --> G_2            
     e( 18 - 18) =     -2.02927  eV     1   --> G_2            
     e( 19 - 19) =     -1.83716  eV     1   --> G_2            
     e( 20 - 20) =     -1.83653  eV     1   --> G_2            
     e( 21 - 21) =     -1.54705  eV     1   --> G_2            
     e( 22 - 22) =     -1.54649  eV     1   --> G_2            
     e( 23 - 23) =     -1.11039  eV     1   --> G_2            
     e( 24 - 24) =     -1.11016  eV     1   --> G_2            
     e( 25 - 25) =     -0.74189  eV     1   --> G_2            
     e( 26 - 26) =     -0.74150  eV     1   --> G_2            
     e( 27 - 27) =     -0.51048  eV     1   --> G_2            
     e( 28 - 28) =     -0.51018  eV     1   --> G_2            
     e( 29 - 29) =      0.24844  eV     1   --> G_2            
     e( 30 - 30) =      0.24860  eV     1   --> G_2            
     e( 31 - 31) =      0.65763  eV     1   --> G_2            
     e( 32 - 32) =      0.65809  eV     1   --> G_2            
     e( 33 - 33) =      1.00662  eV     1   --> G_2            
     e( 34 - 34) =      1.00685  eV     1   --> G_2            
     e( 35 - 35) =      1.45994  eV     1   --> G_2            
     e( 36 - 36) =      1.46048  eV     1   --> G_2            
     e( 37 - 37) =      1.95589  eV     1   --> G_2            
     e( 38 - 38) =      1.95647  eV     1   --> G_2            
     e( 39 - 39) =      2.25361  eV     1   --> G_2            
     e( 40 - 40) =      2.25385  eV     1   --> G_2            
     e( 41 - 41) =      4.26200  eV     1   --> G_2            
     e( 42 - 42) =      4.26212  eV     1   --> G_2            
     e( 43 - 43) =      4.28528  eV     1   --> G_2            
     e( 44 - 44) =      4.28540  eV     1   --> G_2            
     e( 45 - 46) =      4.78944  eV     2   -->   2 G_2            
     e( 47 - 48) =      5.10283  eV     2   -->   2 G_2            
     e( 49 - 50) =      5.45307  eV     2   -->   2 G_2            
     e( 51 - 52) =      5.96132  eV     2   -->   2 G_2            
     e( 53 - 54) =      6.15154  eV     2   -->   2 G_2            
     e( 55 - 56) =      6.51432  eV     2   -->   2 G_2            
     e( 57 - 58) =      6.58555  eV     2   -->   2 G_2            
     e( 59 - 60) =      6.95476  eV     2   -->   2 G_2            
     e( 61 - 62) =      7.15618  eV     2   -->   2 G_2            
     e( 63 - 64) =      7.53463  eV     2   -->   2 G_2            
     e( 65 - 66) =      7.93117  eV     2   -->   2 G_2            
     e( 67 - 68) =      8.15717  eV     2   -->   2 G_2            
     e( 69 - 70) =      8.32055  eV     2   -->   2 G_2            
     e( 71 - 72) =      8.63356  eV     2   -->   2 G_2            
     e( 73 - 74) =      8.86464  eV     2   -->   2 G_2            
     e( 75 - 76) =      9.16171  eV     2   -->   2 G_2            
     e( 77 - 78) =      9.20717  eV     2   -->   2 G_2            
     e( 79 - 80) =     10.12136  eV     2   -->   2 G_2            
     e( 81 - 82) =     10.27828  eV     2   -->   2 G_2            
     e( 83 - 84) =     10.59463  eV     2   -->   2 G_2            
     e( 85 - 86) =     10.95101  eV     2   -->   2 G_2            
     e( 87 - 88) =     11.21879  eV     2   -->   2 G_2            
     e( 89 - 89) =     11.62109  eV     1   --> G_2            
     e( 90 - 90) =     11.62130  eV     1   --> G_2            
     e( 91 - 91) =     11.67575  eV     1   --> G_2            
     e( 92 - 92) =     11.67597  eV     1   --> G_2            
     e( 93 - 94) =     12.39917  eV     2   -->   2 G_2            
     e( 95 - 96) =     12.56868  eV     2   -->   2 G_2            
     e( 97 - 98) =     12.62223  eV     2   -->   2 G_2            
     e( 99 -100) =     12.82142  eV     2   -->   2 G_2            

 **************************************************************************

 **************************************************************************

                    xk=(   0.11429,   0.06598,   0.00000  )

     Band symmetry, C_1 (1)     double point group:

     e(  1 -  2) =    -12.54837  eV     2   -->   2 G_2            
     e(  3 -  4) =    -12.02275  eV     2   -->   2 G_2            
     e(  5 -  6) =    -10.98789  eV     2   -->   2 G_2            
     e(  7 -  8) =     -8.35998  eV     2   -->   2 G_2            
     e(  9 - 10) =     -7.22287  eV     2   -->   2 G_2            
     e( 11 - 12) =     -3.07128  eV     2   -->   2 G_2            
     e( 13 - 13) =     -2.79619  eV     1   --> G_2            
     e( 14 - 14) =     -2.79595  eV     1   --> G_2            
     e( 15 - 15) =     -2.35188  eV     1   --> G_2            
     e( 16 - 16) =     -2.35112  eV     1   --> G_2            
     e( 17 - 17) =     -2.05275  eV     1   --> G_2            
     e( 18 - 18) =     -2.05248  eV     1   --> G_2            
     e( 19 - 19) =     -1.87212  eV     1   --> G_2            
     e( 20 - 20) =     -1.87152  eV     1   --> G_2            
     e( 21 - 21) =     -1.55970  eV     1   --> G_2            
     e( 22 - 22) =     -1.55911  eV     1   --> G_2            
     e( 23 - 23) =     -1.10071  eV     1   --> G_2            
     e( 24 - 24) =     -1.10048  eV     1   --> G_2            
     e( 25 - 25) =     -0.71862  eV     1   --> G_2            
     e( 26 - 26) =     -0.71823  eV     1   --> G_2            
     e( 27 - 27) =     -0.51725  eV     1   --> G_2            
     e( 28 - 28) =     -0.51691  eV     1   --> G_2            
     e( 29 - 29) =      0.27684  eV     1   --> G_2            
     e( 30 - 30) =      0.27696  eV     1   --> G_2            
     e( 31 - 31) =      0.70771  eV     1   --> G_2            
     e( 32 - 32) =      0.70817  eV     1   --> G_2            
     e( 33 - 33) =      1.03687  eV     1   --> G_2            
     e( 34 - 34) =      1.03715  eV     1   --> G_2            
     e( 35 - 35) =      1.48257  eV     1   --> G_2            
     e( 36 - 36) =      1.48304  eV     1   --> G_2            
     e( 37 - 37) =      1.96813  eV     1   --> G_2            
     e( 38 - 38) =      1.96870  eV     1   --> G_2            
     e( 39 - 39) =      2.28694  eV     1   --> G_2            
     e( 40 - 40) =      2.28717  eV     1   --> G_2            
     e( 41 - 41) =      4.27369  eV     1   --> G_2            
     e( 42 - 42) =      4.27398  eV     1   --> G_2            
     e( 43 - 43) =      4.28296  eV     1   --> G_2            
     e( 44 - 44) =      4.28324  eV     1   --> G_2            
     e( 45 - 46) =      4.76390  eV     2   -->   2 G_2            
     e( 47 - 48) =      5.11398  eV     2   -->   2 G_2            
     e( 49 - 50) =      5.45938  eV     2   -->   2 G_2            
[...]
     e( 47 - 48) =      5.15357  eV     2   -->   2 G_2            
     e( 49 - 50) =      5.44710  eV     2   -->   2 G_2            
     e( 51 - 52) =      5.78247  eV     2   -->   2 G_2            
     e( 53 - 54) =      6.32151  eV     2   -->   2 G_2            
     e( 55 - 56) =      6.44700  eV     2   -->   2 G_2            
     e( 57 - 57) =      6.54721  eV     1   --> G_2            
     e( 58 - 58) =      6.54731  eV     1   --> G_2            
     e( 59 - 60) =      6.60844  eV     2   -->   2 G_2            
     e( 61 - 62) =      7.18942  eV     2   -->   2 G_2            
     e( 63 - 64) =      7.47681  eV     2   -->   2 G_2            
     e( 65 - 66) =      7.65817  eV     2   -->   2 G_2            
     e( 67 - 68) =      7.95315  eV     2   -->   2 G_2            
     e( 69 - 70) =      8.03741  eV     2   -->   2 G_2            
     e( 71 - 72) =      8.52474  eV     2   -->   2 G_2            
     e( 73 - 74) =      8.76261  eV     2   -->   2 G_2            
     e( 75 - 75) =      9.08977  eV     1   --> G_2            
     e( 76 - 76) =      9.08988  eV     1   --> G_2            
     e( 77 - 77) =      9.39525  eV     1   --> G_2            
     e( 78 - 78) =      9.39541  eV     1   --> G_2            
     e( 79 - 79) =      9.57218  eV     1   --> G_2            
     e( 80 - 80) =      9.57233  eV     1   --> G_2            
     e( 81 - 81) =      9.82293  eV     1   --> G_2            
     e( 82 - 82) =      9.82304  eV     1   --> G_2            
     e( 83 - 84) =     10.72980  eV     2   -->   2 G_2            
     e( 85 - 86) =     10.83486  eV     2   -->   2 G_2            
     e( 87 - 88) =     11.44122  eV     2   -->   2 G_2            
     e( 89 - 89) =     11.95100  eV     1   --> G_2            
     e( 90 - 90) =     11.95111  eV     1   --> G_2            
     e( 91 - 91) =     12.02660  eV     1   --> G_2            
     e( 92 - 92) =     12.02675  eV     1   --> G_2            
     e( 93 - 94) =     12.18194  eV     2   -->   2 G_2            
     e( 95 - 96) =     12.53362  eV     2   -->   2 G_2            
     e( 97 - 98) =     12.90412  eV     2   -->   2 G_2            
     e( 99 -100) =     13.21604  eV     2   -->   2 G_2            

 **************************************************************************

 **************************************************************************

                    xk=(   0.01429,   0.02557,   0.00000  )

     Band symmetry, C_1 (1)     double point group:

     e(  1 -  2) =    -12.64572  eV     2   -->   2 G_2            
     e(  3 -  4) =    -12.10963  eV     2   -->   2 G_2            
     e(  5 -  6) =    -11.03505  eV     2   -->   2 G_2            
     e(  7 -  8) =     -8.32257  eV     2   -->   2 G_2            
     e(  9 - 10) =     -7.01535  eV     2   -->   2 G_2            
     e( 11 - 12) =     -2.63699  eV     2   -->   2 G_2            
     e( 13 - 13) =     -2.29700  eV     1   --> G_2            
     e( 14 - 14) =     -2.29681  eV     1   --> G_2            
     e( 15 - 15) =     -1.89993  eV     1   --> G_2            
     e( 16 - 16) =     -1.89955  eV     1   --> G_2            
     e( 17 - 17) =     -1.76684  eV     1   --> G_2            
     e( 18 - 18) =     -1.76611  eV     1   --> G_2            
     e( 19 - 19) =     -1.60912  eV     1   --> G_2            
     e( 20 - 20) =     -1.60878  eV     1   --> G_2            
     e( 21 - 21) =     -1.46599  eV     1   --> G_2            
     e( 22 - 22) =     -1.46500  eV     1   --> G_2            
     e( 23 - 23) =     -1.17452  eV     1   --> G_2            
     e( 24 - 24) =     -1.17416  eV     1   --> G_2            
     e( 25 - 25) =     -0.99577  eV     1   --> G_2            
     e( 26 - 26) =     -0.99551  eV     1   --> G_2            
     e( 27 - 27) =     -0.73559  eV     1   --> G_2            
     e( 28 - 28) =     -0.73541  eV     1   --> G_2            
     e( 29 - 29) =     -0.13207  eV     1   --> G_2            
     e( 30 - 30) =     -0.13179  eV     1   --> G_2            
     e( 31 - 31) =      0.52375  eV     1   --> G_2            
     e( 32 - 32) =      0.52392  eV     1   --> G_2            
     e( 33 - 33) =      0.86318  eV     1   --> G_2            
     e( 34 - 34) =      0.86367  eV     1   --> G_2            
     e( 35 - 35) =      1.15437  eV     1   --> G_2            
     e( 36 - 36) =      1.15496  eV     1   --> G_2            
     e( 37 - 37) =      1.82567  eV     1   --> G_2            
     e( 38 - 38) =      1.82584  eV     1   --> G_2            
     e( 39 - 40) =      2.07521  eV     2   -->   2 G_2            
     e( 41 - 42) =      4.12645  eV     2   -->   2 G_2            
     e( 43 - 44) =      4.30249  eV     2   -->   2 G_2            
     e( 45 - 46) =      4.97303  eV     2   -->   2 G_2            
     e( 47 - 48) =      5.15933  eV     2   -->   2 G_2            
     e( 49 - 50) =      5.44858  eV     2   -->   2 G_2            
     e( 51 - 52) =      5.80401  eV     2   -->   2 G_2            
     e( 53 - 54) =      6.30358  eV     2   -->   2 G_2            
     e( 55 - 56) =      6.45283  eV     2   -->   2 G_2            
     e( 57 - 57) =      6.54353  eV     1   --> G_2            
     e( 58 - 58) =      6.54364  eV     1   --> G_2            
     e( 59 - 60) =      6.60657  eV     2   -->   2 G_2            
     e( 61 - 62) =      7.19290  eV     2   -->   2 G_2            
     e( 63 - 64) =      7.44292  eV     2   -->   2 G_2            
     e( 65 - 66) =      7.64891  eV     2   -->   2 G_2            
     e( 67 - 68) =      7.95772  eV     2   -->   2 G_2            
     e( 69 - 70) =      8.01468  eV     2   -->   2 G_2            
     e( 71 - 72) =      8.50370  eV     2   -->   2 G_2            
     e( 73 - 74) =      8.76686  eV     2   -->   2 G_2            
     e( 75 - 75) =      9.14177  eV     1   --> G_2            
     e( 76 - 76) =      9.14190  eV     1   --> G_2            
     e( 77 - 77) =      9.39758  eV     1   --> G_2            
     e( 78 - 78) =      9.39779  eV     1   --> G_2            
     e( 79 - 79) =      9.52819  eV     1   --> G_2            
     e( 80 - 80) =      9.52833  eV     1   --> G_2            
     e( 81 - 81) =      9.76745  eV     1   --> G_2            
     e( 82 - 82) =      9.76756  eV     1   --> G_2            
     e( 83 - 84) =     10.73567  eV     2   -->   2 G_2            
     e( 85 - 86) =     10.82352  eV     2   -->   2 G_2            
     e( 87 - 88) =     11.48752  eV     2   -->   2 G_2            
     e( 89 - 90) =     11.93925  eV     2   -->   2 G_2            
     e( 91 - 92) =     12.06693  eV     2   -->   2 G_2            
     e( 93 - 94) =     12.16984  eV     2   -->   2 G_2            
     e( 95 - 96) =     12.49073  eV     2   -->   2 G_2            
     e( 97 - 98) =     12.94855  eV     2   -->   2 G_2            
     e( 99 -100) =     13.21219  eV     2   -->   2 G_2            

 **************************************************************************

 **************************************************************************

                    xk=(   0.00952,   0.01705,   0.00000  )

     Band symmetry, C_1 (1)     double point group:

     e(  1 -  2) =    -12.64853  eV     2   -->   2 G_2            
     e(  3 -  4) =    -12.11217  eV     2   -->   2 G_2            
     e(  5 -  6) =    -11.03652  eV     2   -->   2 G_2            
     e(  7 -  8) =     -8.32185  eV     2   -->   2 G_2            
     e(  9 - 10) =     -7.00997  eV     2   -->   2 G_2            
     e( 11 - 12) =     -2.63168  eV     2   -->   2 G_2            
     e( 13 - 13) =     -2.26466  eV     1   --> G_2            
     e( 14 - 14) =     -2.26452  eV     1   --> G_2            
     e( 15 - 15) =     -1.90466  eV     1   --> G_2            
     e( 16 - 16) =     -1.90440  eV     1   --> G_2            
     e( 17 - 17) =     -1.72705  eV     1   --> G_2            
     e( 18 - 18) =     -1.72642  eV     1   --> G_2            
     e( 19 - 19) =     -1.59281  eV     1   --> G_2            
     e( 20 - 20) =     -1.59254  eV     1   --> G_2            
     e( 21 - 21) =     -1.48250  eV     1   --> G_2            
     e( 22 - 22) =     -1.48163  eV     1   --> G_2            
     e( 23 - 23) =     -1.18570  eV     1   --> G_2            
     e( 24 - 24) =     -1.18545  eV     1   --> G_2            
     e( 25 - 25) =     -0.98575  eV     1   --> G_2            
     e( 26 - 26) =     -0.98559  eV     1   --> G_2            
     e( 27 - 27) =     -0.74806  eV     1   --> G_2            
     e( 28 - 28) =     -0.74795  eV     1   --> G_2            
     e( 29 - 29) =     -0.16679  eV     1   --> G_2            
     e( 30 - 30) =     -0.16659  eV     1   --> G_2            
     e( 31 - 31) =      0.52403  eV     1   --> G_2            
     e( 32 - 32) =      0.52414  eV     1   --> G_2            
     e( 33 - 33) =      0.89178  eV     1   --> G_2            
     e( 34 - 34) =      0.89224  eV     1   --> G_2            
     e( 35 - 35) =      1.11951  eV     1   --> G_2            
     e( 36 - 36) =      1.12003  eV     1   --> G_2            
     e( 37 - 37) =      1.81291  eV     1   --> G_2            
     e( 38 - 38) =      1.81303  eV     1   --> G_2            
     e( 39 - 40) =      2.07473  eV     2   -->   2 G_2            
     e( 41 - 42) =      4.12145  eV     2   -->   2 G_2            
     e( 43 - 44) =      4.30177  eV     2   -->   2 G_2            
     e( 45 - 46) =      4.97192  eV     2   -->   2 G_2            
     e( 47 - 48) =      5.16323  eV     2   -->   2 G_2            
     e( 49 - 50) =      5.44992  eV     2   -->   2 G_2            
     e( 51 - 52) =      5.82277  eV     2   -->   2 G_2            
     e( 53 - 54) =      6.28458  eV     2   -->   2 G_2            
     e( 55 - 56) =      6.46167  eV     2   -->   2 G_2            
     e( 57 - 58) =      6.53545  eV     2   -->   2 G_2            
     e( 59 - 60) =      6.61087  eV     2   -->   2 G_2            
     e( 61 - 62) =      7.19712  eV     2   -->   2 G_2            
     e( 63 - 64) =      7.41550  eV     2   -->   2 G_2            
     e( 65 - 66) =      7.63959  eV     2   -->   2 G_2            
     e( 67 - 68) =      7.96450  eV     2   -->   2 G_2            
     e( 69 - 70) =      7.99774  eV     2   -->   2 G_2            
     e( 71 - 72) =      8.48866  eV     2   -->   2 G_2            
     e( 73 - 74) =      8.76916  eV     2   -->   2 G_2            
     e( 75 - 75) =      9.19474  eV     1   --> G_2            
     e( 76 - 76) =      9.19490  eV     1   --> G_2            
     e( 77 - 77) =      9.38767  eV     1   --> G_2            
     e( 78 - 78) =      9.38792  eV     1   --> G_2            
     e( 79 - 79) =      9.50166  eV     1   --> G_2            
     e( 80 - 80) =      9.50178  eV     1   --> G_2            
     e( 81 - 82) =      9.71848  eV     2   -->   2 G_2            
     e( 83 - 84) =     10.73961  eV     2   -->   2 G_2            
     e( 85 - 86) =     10.81575  eV     2   -->   2 G_2            
     e( 87 - 88) =     11.53110  eV     2   -->   2 G_2            
     e( 89 - 90) =     11.90548  eV     2   -->   2 G_2            
     e( 91 - 92) =     12.11447  eV     2   -->   2 G_2            
     e( 93 - 94) =     12.16820  eV     2   -->   2 G_2            
     e( 95 - 96) =     12.45330  eV     2   -->   2 G_2            
     e( 97 - 98) =     12.95891  eV     2   -->   2 G_2            
     e( 99 -100) =     13.24485  eV     2   -->   2 G_2            

 **************************************************************************

 **************************************************************************

                    xk=(   0.00476,   0.00852,   0.00000  )

     Band symmetry, C_1 (1)     double point group:

     e(  1 -  2) =    -12.65022  eV     2   -->   2 G_2            
     e(  3 -  4) =    -12.11370  eV     2   -->   2 G_2            
     e(  5 -  6) =    -11.03740  eV     2   -->   2 G_2            
     e(  7 -  8) =     -8.32142  eV     2   -->   2 G_2            
     e(  9 - 10) =     -7.00674  eV     2   -->   2 G_2            
     e( 11 - 12) =     -2.62850  eV     2   -->   2 G_2            
     e( 13 - 14) =     -2.24379  eV     2   -->   2 G_2            
     e( 15 - 15) =     -1.90930  eV     1   --> G_2            
     e( 16 - 16) =     -1.90916  eV     1   --> G_2            
     e( 17 - 17) =     -1.69913  eV     1   --> G_2            
     e( 18 - 18) =     -1.69875  eV     1   --> G_2            
     e( 19 - 19) =     -1.57431  eV     1   --> G_2            
     e( 20 - 20) =     -1.57410  eV     1   --> G_2            
     e( 21 - 21) =     -1.50454  eV     1   --> G_2            
     e( 22 - 22) =     -1.50390  eV     1   --> G_2            
     e( 23 - 23) =     -1.19275  eV     1   --> G_2            
     e( 24 - 24) =     -1.19261  eV     1   --> G_2            
     e( 25 - 26) =     -0.98017  eV     2   -->   2 G_2            
     e( 27 - 28) =     -0.75262  eV     2   -->   2 G_2            
     e( 29 - 29) =     -0.19035  eV     1   --> G_2            
     e( 30 - 30) =     -0.19025  eV     1   --> G_2            
     e( 31 - 32) =      0.52415  eV     2   -->   2 G_2            
     e( 33 - 33) =      0.91796  eV     1   --> G_2            
     e( 34 - 34) =      0.91828  eV     1   --> G_2            
     e( 35 - 35) =      1.09031  eV     1   --> G_2            
     e( 36 - 36) =      1.09066  eV     1   --> G_2            
     e( 37 - 38) =      1.80497  eV     2   -->   2 G_2            
     e( 39 - 40) =      2.07478  eV     2   -->   2 G_2            
     e( 41 - 42) =      4.11844  eV     2   -->   2 G_2            
     e( 43 - 44) =      4.30134  eV     2   -->   2 G_2            
     e( 45 - 46) =      4.97112  eV     2   -->   2 G_2            
     e( 47 - 48) =      5.16546  eV     2   -->   2 G_2            
     e( 49 - 50) =      5.45087  eV     2   -->   2 G_2            
     e( 51 - 52) =      5.83579  eV     2   -->   2 G_2            
     e( 53 - 54) =      6.27051  eV     2   -->   2 G_2            
     e( 55 - 56) =      6.46970  eV     2   -->   2 G_2            
     e( 57 - 58) =      6.52753  eV     2   -->   2 G_2            
     e( 59 - 60) =      6.61569  eV     2   -->   2 G_2            
     e( 61 - 62) =      7.20054  eV     2   -->   2 G_2            
     e( 63 - 64) =      7.39753  eV     2   -->   2 G_2            
     e( 65 - 66) =      7.63289  eV     2   -->   2 G_2            
     e( 67 - 68) =      7.97070  eV     2   -->   2 G_2            
     e( 69 - 70) =      7.98644  eV     2   -->   2 G_2            
     e( 71 - 72) =      8.47978  eV     2   -->   2 G_2            
     e( 73 - 74) =      8.77020  eV     2   -->   2 G_2            
     e( 75 - 75) =      9.24367  eV     1   --> G_2            
     e( 76 - 76) =      9.24383  eV     1   --> G_2            
     e( 77 - 77) =      9.36139  eV     1   --> G_2            
     e( 78 - 78) =      9.36161  eV     1   --> G_2            
     e( 79 - 80) =      9.49554  eV     2   -->   2 G_2            
     e( 81 - 82) =      9.68240  eV     2   -->   2 G_2            
     e( 83 - 84) =     10.74177  eV     2   -->   2 G_2            
     e( 85 - 86) =     10.81129  eV     2   -->   2 G_2            
     e( 87 - 88) =     11.56493  eV     2   -->   2 G_2            
     e( 89 - 90) =     11.87566  eV     2   -->   2 G_2            
     e( 91 - 92) =     12.13365  eV     2   -->   2 G_2            
     e( 93 - 94) =     12.18643  eV     2   -->   2 G_2            
     e( 95 - 96) =     12.42549  eV     2   -->   2 G_2            
     e( 97 - 98) =     12.95091  eV     2   -->   2 G_2            
     e( 99 -100) =     13.29358  eV     2   -->   2 G_2            

 **************************************************************************

 **************************************************************************

                    xk=(   0.00000,   0.00000,   0.00000  )

     Band symmetry, C_1 (1)     double point group:

     e(  1 -  2) =    -12.65078  eV     2   -->   2 G_2            
     e(  3 -  4) =    -12.11421  eV     2   -->   2 G_2            
     e(  5 -  6) =    -11.03769  eV     2   -->   2 G_2            
     e(  7 -  8) =     -8.32127  eV     2   -->   2 G_2            
     e(  9 - 10) =     -7.00566  eV     2   -->   2 G_2            
     e( 11 - 12) =     -2.62744  eV     2   -->   2 G_2            
     e( 13 - 14) =     -2.23651  eV     2   -->   2 G_2            
     e( 15 - 16) =     -1.91113  eV     2   -->   2 G_2            
     e( 17 - 18) =     -1.68902  eV     2   -->   2 G_2            
     e( 19 - 20) =     -1.56158  eV     2   -->   2 G_2            
     e( 21 - 22) =     -1.51870  eV     2   -->   2 G_2            
     e( 23 - 24) =     -1.19508  eV     2   -->   2 G_2            
     e( 25 - 26) =     -0.97851  eV     2   -->   2 G_2            
     e( 27 - 28) =     -0.75341  eV     2   -->   2 G_2            
     e( 29 - 30) =     -0.19871  eV     2   -->   2 G_2            
     e( 31 - 32) =      0.52419  eV     2   -->   2 G_2            
     e( 33 - 34) =      0.92982  eV     2   -->   2 G_2            
     e( 35 - 36) =      1.07782  eV     2   -->   2 G_2            
     e( 37 - 38) =      1.80230  eV     2   -->   2 G_2            
     e( 39 - 40) =      2.07486  eV     2   -->   2 G_2            
     e( 41 - 42) =      4.11743  eV     2   -->   2 G_2            
     e( 43 - 44) =      4.30120  eV     2   -->   2 G_2            
     e( 45 - 46) =      4.97083  eV     2   -->   2 G_2            
     e( 47 - 48) =      5.16619  eV     2   -->   2 G_2            
     e( 49 - 50) =      5.45120  eV     2   -->   2 G_2            
     e( 51 - 52) =      5.84048  eV     2   -->   2 G_2            
     e( 53 - 54) =      6.26535  eV     2   -->   2 G_2            
     e( 55 - 56) =      6.47313  eV     2   -->   2 G_2            
     e( 57 - 58) =      6.52412  eV     2   -->   2 G_2            
     e( 59 - 60) =      6.61765  eV     2   -->   2 G_2            
     e( 61 - 62) =      7.20186  eV     2   -->   2 G_2            
     e( 63 - 64) =      7.39127  eV     2   -->   2 G_2            
     e( 65 - 66) =      7.63047  eV     2   -->   2 G_2            
     e( 67 - 68) =      7.97426  eV     2   -->   2 G_2            
     e( 69 - 70) =      7.98143  eV     2   -->   2 G_2            
     e( 71 - 72) =      8.47686  eV     2   -->   2 G_2            
     e( 73 - 74) =      8.77048  eV     2   -->   2 G_2            
     e( 75 - 76) =      9.27095  eV     2   -->   2 G_2            
     e( 77 - 78) =      9.34067  eV     2   -->   2 G_2            
     e( 79 - 80) =      9.49654  eV     2   -->   2 G_2            
     e( 81 - 82) =      9.66852  eV     2   -->   2 G_2            
     e( 83 - 84) =     10.74245  eV     2   -->   2 G_2            
     e( 85 - 86) =     10.80985  eV     2   -->   2 G_2            
     e( 87 - 88) =     11.57835  eV     2   -->   2 G_2            
     e( 89 - 90) =     11.86339  eV     2   -->   2 G_2            
     e( 91 - 92) =     12.13580  eV     2   -->   2 G_2            
     e( 93 - 94) =     12.19926  eV     2   -->   2 G_2            
     e( 95 - 96) =     12.41448  eV     2   -->   2 G_2            
     e( 97 - 98) =     12.94583  eV     2   -->   2 G_2            
     e( 99 -100) =     13.31803  eV     2   -->   2 G_2            

 **************************************************************************

     BANDS        :  23m30.79s CPU  23m16.80s WALL


   This run was terminated on:   1: 5:46  23Aug2025            

=------------------------------------------------------------------------------=
   JOB DONE.
=------------------------------------------------------------------------------=
