
     Program BANDS v.7.4.1 starts on 15Aug2025 at  1: 9:38 

     This program is part of the open-source Quantum ESPRESSO suite
     for quantum simulation of materials; please cite
         "P. Giannozzi et al., J. Phys.:Condens. Matter 21 395502 (2009);
         "P. Giannozzi et al., J. Phys.:Condens. Matter 29 465901 (2017);
         "P. Giannozzi et al., J. Chem. Phys. 152 154105 (2020);
          URL http://www.quantum-espresso.org", 
     in publications or presentations arising from this work. More details at
     http://www.quantum-espresso.org/quote

     Parallel version (MPI & OpenMP), running on      48 processor cores
     Number of MPI processes:                24
     Threads/MPI process:                     2

     MPI processes distributed on     2 nodes
     R & G space division:  proc/nbgrp/npool/nimage =      24
     59654 MiB available memory on the printing compute node when the environment starts


     Reading xml data from directory:

     tmp/Sb2Te3-uatsx-c4-soc-5.0.save/
Error reading attribute index: expected integer, found *
Error reading attribute index: expected integer, found *

     IMPORTANT: XC functional enforced from input :
     Exchange-correlation= PBE
                           (   1   4   3   4   0   0   0)
     Any further DFT definition will be discarded
     Please, verify this is what you really want


     Parallelization info
     --------------------
     sticks:   dense  smooth     PW     G-vecs:    dense   smooth      PW
     Min          99      40     11                19863     5026     767
     Max         100      41     12                19886     5041     778
     Sum        2397     963    273               477063   120743   18525

     Using Slab Decomposition

     Reading collected, re-writing distributed wavefunctions
     high-symmetry point:  0.0000 0.0000 0.0000   x coordinate   0.0000
     high-symmetry point:  0.5000 0.2887 0.0000   x coordinate   0.5774
     high-symmetry point:  0.3333 0.5966 0.0000   x coordinate   0.9275
     high-symmetry point:  0.0000 0.0000 0.0000   x coordinate   1.6109

     Plottable bands (eV) written to file ./bands/Sb2Te3-uatsx-c4-soc-5.0.bands.gnu
     Bands written to file ./bands/Sb2Te3-uatsx-c4-soc-5.0.bands

 **************************************************************************

                    xk=(   0.00000,   0.00000,   0.00000  )

     double point group C_1 (1)    
     there are  2 classes and  1 irreducible representations
     the character table:

       E     -E   
                  
G_2    1.00 -1.00

     the symmetry operations in each class and the name of the first element:

     E             1
                                                                 
     -E           -1
                                                                 

     Band symmetry, C_1 (1)     double point group:

     e(  1 -  2) =    -35.70292  eV     2   -->   2 G_2            
     e(  3 -  4) =    -35.70135  eV     2   -->   2 G_2            
     e(  5 -  6) =    -35.66648  eV     2   -->   2 G_2            
     e(  7 -  8) =    -35.66494  eV     2   -->   2 G_2            
     e(  9 - 10) =    -35.60199  eV     2   -->   2 G_2            
     e( 11 - 12) =    -35.57190  eV     2   -->   2 G_2            
     e( 13 - 14) =    -34.24502  eV     2   -->   2 G_2            
     e( 15 - 16) =    -34.24345  eV     2   -->   2 G_2            
     e( 17 - 18) =    -34.21458  eV     2   -->   2 G_2            
     e( 19 - 20) =    -34.21306  eV     2   -->   2 G_2            
     e( 21 - 22) =    -34.19768  eV     2   -->   2 G_2            
     e( 23 - 24) =    -34.19612  eV     2   -->   2 G_2            
     e( 25 - 26) =    -34.14109  eV     2   -->   2 G_2            
     e( 27 - 28) =    -34.12218  eV     2   -->   2 G_2            
     e( 29 - 30) =    -34.10146  eV     2   -->   2 G_2            
     e( 31 - 32) =    -28.36137  eV     2   -->   2 G_2            
     e( 33 - 34) =    -28.36025  eV     2   -->   2 G_2            
     e( 35 - 36) =    -28.35264  eV     2   -->   2 G_2            
     e( 37 - 38) =    -28.35156  eV     2   -->   2 G_2            
     e( 39 - 40) =    -27.12171  eV     2   -->   2 G_2            
     e( 41 - 42) =    -27.12059  eV     2   -->   2 G_2            
     e( 43 - 44) =    -27.11375  eV     2   -->   2 G_2            
     e( 45 - 46) =    -27.11266  eV     2   -->   2 G_2            
     e( 47 - 48) =    -27.10954  eV     2   -->   2 G_2            
     e( 49 - 50) =    -27.10846  eV     2   -->   2 G_2            
     e( 51 - 52) =    -10.74907  eV     2   -->   2 G_2            
     e( 53 - 54) =    -10.20632  eV     2   -->   2 G_2            
     e( 55 - 56) =     -9.13851  eV     2   -->   2 G_2            
     e( 57 - 58) =     -6.41211  eV     2   -->   2 G_2            
     e( 59 - 60) =     -5.09537  eV     2   -->   2 G_2            
     e( 61 - 62) =     -0.72896  eV     2   -->   2 G_2            
     e( 63 - 64) =     -0.32720  eV     2   -->   2 G_2            
     e( 65 - 66) =     -0.01364  eV     2   -->   2 G_2            
     e( 67 - 68) =      0.21706  eV     2   -->   2 G_2            
     e( 69 - 70) =      0.33531  eV     2   -->   2 G_2            
     e( 71 - 72) =      0.38999  eV     2   -->   2 G_2            
     e( 73 - 74) =      0.70990  eV     2   -->   2 G_2            
     e( 75 - 76) =      0.92810  eV     2   -->   2 G_2            
     e( 77 - 78) =      1.15503  eV     2   -->   2 G_2            
     e( 79 - 80) =      1.70989  eV     2   -->   2 G_2            
     e( 81 - 82) =      2.43043  eV     2   -->   2 G_2            
     e( 83 - 84) =      2.83422  eV     2   -->   2 G_2            
     e( 85 - 86) =      2.97643  eV     2   -->   2 G_2            
     e( 87 - 88) =      3.70178  eV     2   -->   2 G_2            
     e( 89 - 90) =      3.97537  eV     2   -->   2 G_2            
     e( 91 - 92) =      6.04594  eV     2   -->   2 G_2            
     e( 93 - 94) =      6.22508  eV     2   -->   2 G_2            
     e( 95 - 96) =      6.89137  eV     2   -->   2 G_2            
     e( 97 - 98) =      7.07428  eV     2   -->   2 G_2            
     e( 99 -100) =      7.38848  eV     2   -->   2 G_2            

 **************************************************************************

 **************************************************************************

                    xk=(   0.00714,   0.00412,   0.00000  )

     Band symmetry, C_1 (1)     double point group:

     e(  1 -  2) =    -35.70292  eV     2   -->   2 G_2            
     e(  3 -  4) =    -35.70135  eV     2   -->   2 G_2            
     e(  5 -  6) =    -35.66648  eV     2   -->   2 G_2            
     e(  7 -  8) =    -35.66494  eV     2   -->   2 G_2            
     e(  9 - 10) =    -35.60199  eV     2   -->   2 G_2            
     e( 11 - 12) =    -35.57190  eV     2   -->   2 G_2            
     e( 13 - 14) =    -34.24502  eV     2   -->   2 G_2            
     e( 15 - 16) =    -34.24345  eV     2   -->   2 G_2            
     e( 17 - 18) =    -34.21458  eV     2   -->   2 G_2            
     e( 19 - 20) =    -34.21306  eV     2   -->   2 G_2            
     e( 21 - 22) =    -34.19768  eV     2   -->   2 G_2            
     e( 23 - 24) =    -34.19612  eV     2   -->   2 G_2            
     e( 25 - 26) =    -34.14109  eV     2   -->   2 G_2            
     e( 27 - 28) =    -34.12218  eV     2   -->   2 G_2            
     e( 29 - 30) =    -34.10146  eV     2   -->   2 G_2            
     e( 31 - 32) =    -28.36137  eV     2   -->   2 G_2            
     e( 33 - 34) =    -28.36026  eV     2   -->   2 G_2            
     e( 35 - 36) =    -28.35264  eV     2   -->   2 G_2            
     e( 37 - 38) =    -28.35156  eV     2   -->   2 G_2            
     e( 39 - 40) =    -27.12171  eV     2   -->   2 G_2            
     e( 41 - 42) =    -27.12059  eV     2   -->   2 G_2            
     e( 43 - 44) =    -27.11376  eV     2   -->   2 G_2            
     e( 45 - 46) =    -27.11266  eV     2   -->   2 G_2            
     e( 47 - 48) =    -27.10954  eV     2   -->   2 G_2            
     e( 49 - 50) =    -27.10846  eV     2   -->   2 G_2            
     e( 51 - 52) =    -10.74867  eV     2   -->   2 G_2            
     e( 53 - 54) =    -10.20596  eV     2   -->   2 G_2            
     e( 55 - 56) =     -9.13831  eV     2   -->   2 G_2            
     e( 57 - 58) =     -6.41224  eV     2   -->   2 G_2            
     e( 59 - 60) =     -5.09626  eV     2   -->   2 G_2            
     e( 61 - 62) =     -0.72982  eV     2   -->   2 G_2            
     e( 63 - 63) =     -0.33369  eV     1   --> G_2            
     e( 64 - 64) =     -0.33359  eV     1   --> G_2            
     e( 65 - 65) =     -0.01244  eV     1   --> G_2            
     e( 66 - 66) =     -0.01230  eV     1   --> G_2            
     e( 67 - 67) =      0.20852  eV     1   --> G_2            
     e( 68 - 68) =      0.20894  eV     1   --> G_2            
     e( 69 - 69) =      0.32888  eV     1   --> G_2            
     e( 70 - 70) =      0.32913  eV     1   --> G_2            
     e( 71 - 71) =      0.40074  eV     1   --> G_2            
     e( 72 - 72) =      0.40121  eV     1   --> G_2            
     e( 73 - 73) =      0.71154  eV     1   --> G_2            
     e( 74 - 74) =      0.71166  eV     1   --> G_2            
     e( 75 - 76) =      0.92634  eV     2   -->   2 G_2            
     e( 77 - 78) =      1.15586  eV     2   -->   2 G_2            
     e( 79 - 80) =      1.71681  eV     2   -->   2 G_2            
     e( 81 - 82) =      2.42873  eV     2   -->   2 G_2            
     e( 83 - 83) =      2.82661  eV     1   --> G_2            
     e( 84 - 84) =      2.82686  eV     1   --> G_2            
     e( 85 - 85) =      2.98589  eV     1   --> G_2            
     e( 86 - 86) =      2.98620  eV     1   --> G_2            
     e( 87 - 88) =      3.70337  eV     2   -->   2 G_2            
     e( 89 - 90) =      3.97511  eV     2   -->   2 G_2            
     e( 91 - 92) =      6.04666  eV     2   -->   2 G_2            
     e( 93 - 94) =      6.22512  eV     2   -->   2 G_2            
     e( 95 - 96) =      6.89155  eV     2   -->   2 G_2            
     e( 97 - 98) =      7.07247  eV     2   -->   2 G_2            
     e( 99 -100) =      7.38814  eV     2   -->   2 G_2            

 **************************************************************************

 **************************************************************************

                    xk=(   0.01429,   0.00825,   0.00000  )

     Band symmetry, C_1 (1)     double point group:

     e(  1 -  2) =    -35.70292  eV     2   -->   2 G_2            
     e(  3 -  4) =    -35.70135  eV     2   -->   2 G_2            
     e(  5 -  6) =    -35.66648  eV     2   -->   2 G_2            
     e(  7 -  8) =    -35.66494  eV     2   -->   2 G_2            
     e(  9 - 10) =    -35.60199  eV     2   -->   2 G_2            
     e( 11 - 12) =    -35.57190  eV     2   -->   2 G_2            
     e( 13 - 14) =    -34.24502  eV     2   -->   2 G_2            
     e( 15 - 16) =    -34.24345  eV     2   -->   2 G_2            
     e( 17 - 18) =    -34.21458  eV     2   -->   2 G_2            
     e( 19 - 20) =    -34.21306  eV     2   -->   2 G_2            
     e( 21 - 22) =    -34.19768  eV     2   -->   2 G_2            
     e( 23 - 24) =    -34.19612  eV     2   -->   2 G_2            
     e( 25 - 26) =    -34.14109  eV     2   -->   2 G_2            
     e( 27 - 28) =    -34.12218  eV     2   -->   2 G_2            
     e( 29 - 30) =    -34.10146  eV     2   -->   2 G_2            
     e( 31 - 32) =    -28.36137  eV     2   -->   2 G_2            
     e( 33 - 34) =    -28.36026  eV     2   -->   2 G_2            
     e( 35 - 36) =    -28.35264  eV     2   -->   2 G_2            
     e( 37 - 38) =    -28.35156  eV     2   -->   2 G_2            
     e( 39 - 40) =    -27.12171  eV     2   -->   2 G_2            
     e( 41 - 42) =    -27.12059  eV     2   -->   2 G_2            
     e( 43 - 44) =    -27.11376  eV     2   -->   2 G_2            
     e( 45 - 46) =    -27.11267  eV     2   -->   2 G_2            
     e( 47 - 48) =    -27.10955  eV     2   -->   2 G_2            
     e( 49 - 50) =    -27.10846  eV     2   -->   2 G_2            
     e( 51 - 52) =    -10.74746  eV     2   -->   2 G_2            
     e( 53 - 54) =    -10.20488  eV     2   -->   2 G_2            
     e( 55 - 56) =     -9.13769  eV     2   -->   2 G_2            
     e( 57 - 58) =     -6.41263  eV     2   -->   2 G_2            
     e( 59 - 60) =     -5.09890  eV     2   -->   2 G_2            
     e( 61 - 62) =     -0.73241  eV     2   -->   2 G_2            
     e( 63 - 63) =     -0.35236  eV     1   --> G_2            
     e( 64 - 64) =     -0.35217  eV     1   --> G_2            
     e( 65 - 65) =     -0.00938  eV     1   --> G_2            
     e( 66 - 66) =     -0.00912  eV     1   --> G_2            
     e( 67 - 67) =      0.18547  eV     1   --> G_2            
     e( 68 - 68) =      0.18616  eV     1   --> G_2            
     e( 69 - 69) =      0.31899  eV     1   --> G_2            
     e( 70 - 70) =      0.31938  eV     1   --> G_2            
     e( 71 - 71) =      0.42229  eV     1   --> G_2            
     e( 72 - 72) =      0.42297  eV     1   --> G_2            
     e( 73 - 73) =      0.71642  eV     1   --> G_2            
     e( 74 - 74) =      0.71665  eV     1   --> G_2            
     e( 75 - 75) =      0.92129  eV     1   --> G_2            
     e( 76 - 76) =      0.92146  eV     1   --> G_2            
     e( 77 - 78) =      1.15925  eV     2   -->   2 G_2            
     e( 79 - 79) =      1.73686  eV     1   --> G_2            
     e( 80 - 80) =      1.73703  eV     1   --> G_2            
     e( 81 - 81) =      2.42364  eV     1   --> G_2            
     e( 82 - 82) =      2.42378  eV     1   --> G_2            
     e( 83 - 83) =      2.80924  eV     1   --> G_2            
     e( 84 - 84) =      2.80963  eV     1   --> G_2            
     e( 85 - 85) =      3.00962  eV     1   --> G_2            
     e( 86 - 86) =      3.01012  eV     1   --> G_2            
     e( 87 - 87) =      3.70817  eV     1   --> G_2            
     e( 88 - 88) =      3.70832  eV     1   --> G_2            
     e( 89 - 90) =      3.97443  eV     2   -->   2 G_2            
     e( 91 - 92) =      6.04880  eV     2   -->   2 G_2            
     e( 93 - 94) =      6.22523  eV     2   -->   2 G_2            
     e( 95 - 96) =      6.89207  eV     2   -->   2 G_2            
     e( 97 - 98) =      7.06707  eV     2   -->   2 G_2            
     e( 99 -100) =      7.38718  eV     2   -->   2 G_2            

 **************************************************************************

 **************************************************************************

                    xk=(   0.02143,   0.01237,   0.00000  )

     Band symmetry, C_1 (1)     double point group:

     e(  1 -  2) =    -35.70291  eV     2   -->   2 G_2            
     e(  3 -  4) =    -35.70135  eV     2   -->   2 G_2            
     e(  5 -  6) =    -35.66648  eV     2   -->   2 G_2            
     e(  7 -  8) =    -35.66494  eV     2   -->   2 G_2            
     e(  9 - 10) =    -35.60199  eV     2   -->   2 G_2            
     e( 11 - 12) =    -35.57190  eV     2   -->   2 G_2            
     e( 13 - 14) =    -34.24502  eV     2   -->   2 G_2            
     e( 15 - 16) =    -34.24344  eV     2   -->   2 G_2            
     e( 17 - 18) =    -34.21459  eV     2   -->   2 G_2            
     e( 19 - 20) =    -34.21306  eV     2   -->   2 G_2            
     e( 21 - 22) =    -34.19768  eV     2   -->   2 G_2            
     e( 23 - 24) =    -34.19612  eV     2   -->   2 G_2            
     e( 25 - 26) =    -34.14109  eV     2   -->   2 G_2            
     e( 27 - 28) =    -34.12218  eV     2   -->   2 G_2            
     e( 29 - 30) =    -34.10146  eV     2   -->   2 G_2            
     e( 31 - 32) =    -28.36137  eV     2   -->   2 G_2            
     e( 33 - 34) =    -28.36026  eV     2   -->   2 G_2            
     e( 35 - 36) =    -28.35265  eV     2   -->   2 G_2            
     e( 37 - 38) =    -28.35156  eV     2   -->   2 G_2            
     e( 39 - 40) =    -27.12170  eV     2   -->   2 G_2            
     e( 41 - 42) =    -27.12059  eV     2   -->   2 G_2            
     e( 43 - 44) =    -27.11377  eV     2   -->   2 G_2            
     e( 45 - 46) =    -27.11267  eV     2   -->   2 G_2            
     e( 47 - 48) =    -27.10955  eV     2   -->   2 G_2            
     e( 49 - 50) =    -27.10846  eV     2   -->   2 G_2            
     e( 51 - 52) =    -10.74544  eV     2   -->   2 G_2            
     e( 53 - 54) =    -10.20306  eV     2   -->   2 G_2            
     e( 55 - 56) =     -9.13665  eV     2   -->   2 G_2            
     e( 57 - 58) =     -6.41327  eV     2   -->   2 G_2            
     e( 59 - 60) =     -5.10324  eV     2   -->   2 G_2            
     e( 61 - 62) =     -0.73671  eV     2   -->   2 G_2            
     e( 63 - 63) =     -0.38148  eV     1   --> G_2            
     e( 64 - 64) =     -0.38122  eV     1   --> G_2            
     e( 65 - 65) =     -0.00612  eV     1   --> G_2            
     e( 66 - 66) =     -0.00577  eV     1   --> G_2            
     e( 67 - 67) =      0.15280  eV     1   --> G_2            
     e( 68 - 68) =      0.15360  eV     1   --> G_2            
     e( 69 - 69) =      0.31110  eV     1   --> G_2            
     e( 70 - 70) =      0.31159  eV     1   --> G_2            
     e( 71 - 71) =      0.44388  eV     1   --> G_2            
     e( 72 - 72) =      0.44466  eV     1   --> G_2            
     e( 73 - 73) =      0.72389  eV     1   --> G_2            
     e( 74 - 74) =      0.72423  eV     1   --> G_2            
     e( 75 - 75) =      0.91377  eV     1   --> G_2            
     e( 76 - 76) =      0.91403  eV     1   --> G_2            
     e( 77 - 77) =      1.16706  eV     1   --> G_2            
     e( 78 - 78) =      1.16723  eV     1   --> G_2            
     e( 79 - 79) =      1.76798  eV     1   --> G_2            
     e( 80 - 80) =      1.76821  eV     1   --> G_2            
     e( 81 - 81) =      2.41508  eV     1   --> G_2            
     e( 82 - 82) =      2.41528  eV     1   --> G_2            
     e( 83 - 83) =      2.78987  eV     1   --> G_2            
     e( 84 - 84) =      2.79029  eV     1   --> G_2            
     e( 85 - 85) =      3.04016  eV     1   --> G_2            
     e( 86 - 86) =      3.04076  eV     1   --> G_2            
     e( 87 - 87) =      3.71604  eV     1   --> G_2            
     e( 88 - 88) =      3.71626  eV     1   --> G_2            
     e( 89 - 90) =      3.97351  eV     2   -->   2 G_2            
     e( 91 - 92) =      6.05235  eV     2   -->   2 G_2            
     e( 93 - 94) =      6.22541  eV     2   -->   2 G_2            
     e( 95 - 96) =      6.89277  eV     2   -->   2 G_2            
     e( 97 - 98) =      7.05826  eV     2   -->   2 G_2            
     e( 99 -100) =      7.38575  eV     2   -->   2 G_2            

 **************************************************************************

 **************************************************************************

                    xk=(   0.02857,   0.01650,   0.00000  )

     Band symmetry, C_1 (1)     double point group:

     e(  1 -  2) =    -35.70291  eV     2   -->   2 G_2            
     e(  3 -  4) =    -35.70135  eV     2   -->   2 G_2            
     e(  5 -  6) =    -35.66648  eV     2   -->   2 G_2            
     e(  7 -  8) =    -35.66494  eV     2   -->   2 G_2            
     e(  9 - 10) =    -35.60199  eV     2   -->   2 G_2            
     e( 11 - 12) =    -35.57190  eV     2   -->   2 G_2            
     e( 13 - 14) =    -34.24502  eV     2   -->   2 G_2            
     e( 15 - 16) =    -34.24344  eV     2   -->   2 G_2            
     e( 17 - 18) =    -34.21458  eV     2   -->   2 G_2            
     e( 19 - 20) =    -34.21306  eV     2   -->   2 G_2            
     e( 21 - 22) =    -34.19768  eV     2   -->   2 G_2            
     e( 23 - 24) =    -34.19612  eV     2   -->   2 G_2            
     e( 25 - 26) =    -34.14109  eV     2   -->   2 G_2            
     e( 27 - 28) =    -34.12218  eV     2   -->   2 G_2            
     e( 29 - 30) =    -34.10145  eV     2   -->   2 G_2            
     e( 31 - 32) =    -28.36137  eV     2   -->   2 G_2            
     e( 33 - 34) =    -28.36026  eV     2   -->   2 G_2            
     e( 35 - 36) =    -28.35265  eV     2   -->   2 G_2            
     e( 37 - 38) =    -28.35157  eV     2   -->   2 G_2            
     e( 39 - 40) =    -27.12170  eV     2   -->   2 G_2            
     e( 41 - 42) =    -27.12059  eV     2   -->   2 G_2            
     e( 43 - 44) =    -27.11378  eV     2   -->   2 G_2            
     e( 45 - 46) =    -27.11268  eV     2   -->   2 G_2            
     e( 47 - 48) =    -27.10955  eV     2   -->   2 G_2            
     e( 49 - 50) =    -27.10847  eV     2   -->   2 G_2            
     e( 51 - 52) =    -10.74261  eV     2   -->   2 G_2            
     e( 53 - 54) =    -10.20052  eV     2   -->   2 G_2            
     e( 55 - 56) =     -9.13522  eV     2   -->   2 G_2            
     e( 57 - 58) =     -6.41417  eV     2   -->   2 G_2            
     e( 59 - 60) =     -5.10932  eV     2   -->   2 G_2            
     e( 61 - 62) =     -0.74274  eV     2   -->   2 G_2            
     e( 63 - 63) =     -0.41906  eV     1   --> G_2            
     e( 64 - 64) =     -0.41874  eV     1   --> G_2            
     e( 65 - 65) =     -0.00460  eV     1   --> G_2            
     e( 66 - 66) =     -0.00418  eV     1   --> G_2            
     e( 67 - 67) =      0.11519  eV     1   --> G_2            
     e( 68 - 68) =      0.11599  eV     1   --> G_2            
     e( 69 - 69) =      0.30451  eV     1   --> G_2            
     e( 70 - 70) =      0.30505  eV     1   --> G_2            
     e( 71 - 71) =      0.46126  eV     1   --> G_2            
     e( 72 - 72) =      0.46207  eV     1   --> G_2            
     e( 73 - 73) =      0.73234  eV     1   --> G_2            
     e( 74 - 74) =      0.73277  eV     1   --> G_2            
     e( 75 - 75) =      0.90629  eV     1   --> G_2            
     e( 76 - 76) =      0.90663  eV     1   --> G_2            
     e( 77 - 77) =      1.18074  eV     1   --> G_2            
     e( 78 - 78) =      1.18097  eV     1   --> G_2            
     e( 79 - 79) =      1.80747  eV     1   --> G_2            
     e( 80 - 80) =      1.80777  eV     1   --> G_2            
     e( 81 - 81) =      2.40316  eV     1   --> G_2            
     e( 82 - 82) =      2.40339  eV     1   --> G_2            
     e( 83 - 83) =      2.77311  eV     1   --> G_2            
     e( 84 - 84) =      2.77353  eV     1   --> G_2            
     e( 85 - 85) =      3.07320  eV     1   --> G_2            
     e( 86 - 86) =      3.07386  eV     1   --> G_2            
     e( 87 - 87) =      3.72671  eV     1   --> G_2            
     e( 88 - 88) =      3.72700  eV     1   --> G_2            
     e( 89 - 90) =      3.97270  eV     2   -->   2 G_2            
     e( 91 - 92) =      6.05730  eV     2   -->   2 G_2            
     e( 93 - 94) =      6.22562  eV     2   -->   2 G_2            
     e( 95 - 96) =      6.89338  eV     2   -->   2 G_2            
     e( 97 - 98) =      7.04638  eV     2   -->   2 G_2            
     e( 99 -100) =      7.38406  eV     2   -->   2 G_2            

 **************************************************************************

 **************************************************************************

                    xk=(   0.03571,   0.02062,   0.00000  )

     Band symmetry, C_1 (1)     double point group:

     e(  1 -  2) =    -35.70291  eV     2   -->   2 G_2            
     e(  3 -  4) =    -35.70135  eV     2   -->   2 G_2            
     e(  5 -  6) =    -35.66648  eV     2   -->   2 G_2            
     e(  7 -  8) =    -35.66494  eV     2   -->   2 G_2            
     e(  9 - 10) =    -35.60199  eV     2   -->   2 G_2            
     e( 11 - 12) =    -35.57190  eV     2   -->   2 G_2            
     e( 13 - 14) =    -34.24501  eV     2   -->   2 G_2            
     e( 15 - 16) =    -34.24344  eV     2   -->   2 G_2            
     e( 17 - 18) =    -34.21458  eV     2   -->   2 G_2            
     e( 19 - 20) =    -34.21306  eV     2   -->   2 G_2            
     e( 21 - 22) =    -34.19768  eV     2   -->   2 G_2            
     e( 23 - 24) =    -34.19612  eV     2   -->   2 G_2            
     e( 25 - 26) =    -34.14109  eV     2   -->   2 G_2            
     e( 27 - 28) =    -34.12218  eV     2   -->   2 G_2            
     e( 29 - 30) =    -34.10145  eV     2   -->   2 G_2            
     e( 31 - 32) =    -28.36137  eV     2   -->   2 G_2            
     e( 33 - 34) =    -28.36026  eV     2   -->   2 G_2            
     e( 35 - 36) =    -28.35265  eV     2   -->   2 G_2            
     e( 37 - 38) =    -28.35157  eV     2   -->   2 G_2            
     e( 39 - 40) =    -27.12170  eV     2   -->   2 G_2            
     e( 41 - 42) =    -27.12058  eV     2   -->   2 G_2            
     e( 43 - 44) =    -27.11378  eV     2   -->   2 G_2            
     e( 45 - 46) =    -27.11269  eV     2   -->   2 G_2            
     e( 47 - 48) =    -27.10955  eV     2   -->   2 G_2            
     e( 49 - 50) =    -27.10847  eV     2   -->   2 G_2            
     e( 51 - 52) =    -10.73898  eV     2   -->   2 G_2            
     e( 53 - 54) =    -10.19724  eV     2   -->   2 G_2            
     e( 55 - 56) =     -9.13336  eV     2   -->   2 G_2            
     e( 57 - 58) =     -6.41534  eV     2   -->   2 G_2            
     e( 59 - 60) =     -5.11711  eV     2   -->   2 G_2            
     e( 61 - 62) =     -0.75051  eV     2   -->   2 G_2            
     e( 63 - 63) =     -0.46331  eV     1   --> G_2            
     e( 64 - 64) =     -0.46294  eV     1   --> G_2            
     e( 65 - 65) =     -0.00687  eV     1   --> G_2            
     e( 66 - 66) =     -0.00640  eV     1   --> G_2            
     e( 67 - 67) =      0.07618  eV     1   --> G_2            
     e( 68 - 68) =      0.07684  eV     1   --> G_2            
     e( 69 - 69) =      0.29787  eV     1   --> G_2            
     e( 70 - 70) =      0.29846  eV     1   --> G_2            
     e( 71 - 71) =      0.47254  eV     1   --> G_2            
     e( 72 - 72) =      0.47334  eV     1   --> G_2            
     e( 73 - 73) =      0.73914  eV     1   --> G_2            
     e( 74 - 74) =      0.73963  eV     1   --> G_2            
     e( 75 - 75) =      0.90312  eV     1   --> G_2            
     e( 76 - 76) =      0.90354  eV     1   --> G_2            
     e( 77 - 77) =      1.20047  eV     1   --> G_2            
     e( 78 - 78) =      1.20078  eV     1   --> G_2            
     e( 79 - 79) =      1.85260  eV     1   --> G_2            
     e( 80 - 80) =      1.85295  eV     1   --> G_2            
     e( 81 - 81) =      2.38851  eV     1   --> G_2            
     e( 82 - 82) =      2.38876  eV     1   --> G_2            
     e( 83 - 83) =      2.76126  eV     1   --> G_2            
     e( 84 - 84) =      2.76165  eV     1   --> G_2            
     e( 85 - 85) =      3.10657  eV     1   --> G_2            
     e( 86 - 86) =      3.10728  eV     1   --> G_2            
     e( 87 - 87) =      3.73976  eV     1   --> G_2            
     e( 88 - 88) =      3.74011  eV     1   --> G_2            
     e( 89 - 90) =      3.97254  eV     2   -->   2 G_2            
     e( 91 - 92) =      6.06361  eV     2   -->   2 G_2            
     e( 93 - 94) =      6.22584  eV     2   -->   2 G_2            
     e( 95 - 96) =      6.89337  eV     2   -->   2 G_2            
     e( 97 - 98) =      7.03210  eV     2   -->   2 G_2            
     e( 99 -100) =      7.38233  eV     2   -->   2 G_2            

 **************************************************************************

 **************************************************************************

                    xk=(   0.04286,   0.02474,   0.00000  )

     Band symmetry, C_1 (1)     double point group:

     e(  1 -  2) =    -35.70291  eV     2   -->   2 G_2            
     e(  3 -  4) =    -35.70135  eV     2   -->   2 G_2            
     e(  5 -  6) =    -35.66648  eV     2   -->   2 G_2            
     e(  7 -  8) =    -35.66494  eV     2   -->   2 G_2            
     e(  9 - 10) =    -35.60199  eV     2   -->   2 G_2            
     e( 11 - 12) =    -35.57189  eV     2   -->   2 G_2            
     e( 13 - 14) =    -34.24501  eV     2   -->   2 G_2            
     e( 15 - 16) =    -34.24344  eV     2   -->   2 G_2            
     e( 17 - 18) =    -34.21459  eV     2   -->   2 G_2            
     e( 19 - 20) =    -34.21306  eV     2   -->   2 G_2            
     e( 21 - 22) =    -34.19767  eV     2   -->   2 G_2            
     e( 23 - 24) =    -34.19612  eV     2   -->   2 G_2            
     e( 25 - 26) =    -34.14109  eV     2   -->   2 G_2            
     e( 27 - 28) =    -34.12218  eV     2   -->   2 G_2            
     e( 29 - 30) =    -34.10145  eV     2   -->   2 G_2            
     e( 31 - 32) =    -28.36137  eV     2   -->   2 G_2            
     e( 33 - 34) =    -28.36026  eV     2   -->   2 G_2            
     e( 35 - 36) =    -28.35265  eV     2   -->   2 G_2            
     e( 37 - 38) =    -28.35157  eV     2   -->   2 G_2            
     e( 39 - 40) =    -27.12169  eV     2   -->   2 G_2            
     e( 41 - 42) =    -27.12058  eV     2   -->   2 G_2            
     e( 43 - 44) =    -27.11379  eV     2   -->   2 G_2            
     e( 45 - 46) =    -27.11269  eV     2   -->   2 G_2            
     e( 47 - 48) =    -27.10955  eV     2   -->   2 G_2            
     e( 49 - 50) =    -27.10847  eV     2   -->   2 G_2            
     e( 51 - 52) =    -10.73459  eV     2   -->   2 G_2            
     e( 53 - 54) =    -10.19328  eV     2   -->   2 G_2            
     e( 55 - 56) =     -9.13112  eV     2   -->   2 G_2            
     e( 57 - 58) =     -6.41680  eV     2   -->   2 G_2            
     e( 59 - 60) =     -5.12667  eV     2   -->   2 G_2            
     e( 61 - 62) =     -0.76010  eV     2   -->   2 G_2            
     e( 63 - 63) =     -0.51272  eV     1   --> G_2            
     e( 64 - 64) =     -0.51230  eV     1   --> G_2            
     e( 65 - 65) =     -0.01626  eV     1   --> G_2            
     e( 66 - 66) =     -0.01564  eV     1   --> G_2            
     e( 67 - 67) =      0.03983  eV     1   --> G_2            
     e( 68 - 68) =      0.04015  eV     1   --> G_2            
     e( 69 - 69) =      0.29006  eV     1   --> G_2            
     e( 70 - 70) =      0.29070  eV     1   --> G_2            
     e( 71 - 71) =      0.47695  eV     1   --> G_2            
     e( 72 - 72) =      0.47770  eV     1   --> G_2            
     e( 73 - 73) =      0.74205  eV     1   --> G_2            
     e( 74 - 74) =      0.74255  eV     1   --> G_2            
     e( 75 - 75) =      0.90847  eV     1   --> G_2            
     e( 76 - 76) =      0.90890  eV     1   --> G_2            
     e( 77 - 77) =      1.22537  eV     1   --> G_2            
     e( 78 - 78) =      1.22573  eV     1   --> G_2            
     e( 79 - 79) =      1.90068  eV     1   --> G_2            
     e( 80 - 80) =      1.90108  eV     1   --> G_2            
     e( 81 - 81) =      2.37256  eV     1   --> G_2            
     e( 82 - 82) =      2.37282  eV     1   --> G_2            
     e( 83 - 83) =      2.75525  eV     1   --> G_2            
     e( 84 - 84) =      2.75559  eV     1   --> G_2            
     e( 85 - 85) =      3.13912  eV     1   --> G_2            
     e( 86 - 86) =      3.13985  eV     1   --> G_2            
     e( 87 - 87) =      3.75451  eV     1   --> G_2            
     e( 88 - 88) =      3.75492  eV     1   --> G_2            
     e( 89 - 90) =      3.97373  eV     2   -->   2 G_2            
     e( 91 - 92) =      6.07125  eV     2   -->   2 G_2            
     e( 93 - 94) =      6.22601  eV     2   -->   2 G_2            
     e( 95 - 96) =      6.89183  eV     2   -->   2 G_2            
     e( 97 - 98) =      7.01660  eV     2   -->   2 G_2            
     e( 99 -100) =      7.38080  eV     2   -->   2 G_2            

 **************************************************************************

 **************************************************************************

                    xk=(   0.05000,   0.02887,   0.00000  )

     Band symmetry, C_1 (1)     double point group:

     e(  1 -  2) =    -35.70291  eV     2   -->   2 G_2            
     e(  3 -  4) =    -35.70135  eV     2   -->   2 G_2            
     e(  5 -  6) =    -35.66648  eV     2   -->   2 G_2            
     e(  7 -  8) =    -35.66494  eV     2   -->   2 G_2            
     e(  9 - 10) =    -35.60199  eV     2   -->   2 G_2            
     e( 11 - 12) =    -35.57189  eV     2   -->   2 G_2            
     e( 13 - 14) =    -34.24501  eV     2   -->   2 G_2            
     e( 15 - 16) =    -34.24343  eV     2   -->   2 G_2            
     e( 17 - 18) =    -34.21458  eV     2   -->   2 G_2            
     e( 19 - 20) =    -34.21306  eV     2   -->   2 G_2            
     e( 21 - 22) =    -34.19767  eV     2   -->   2 G_2            
     e( 23 - 24) =    -34.19612  eV     2   -->   2 G_2            
     e( 25 - 26) =    -34.14109  eV     2   -->   2 G_2            
     e( 27 - 28) =    -34.12218  eV     2   -->   2 G_2            
     e( 29 - 30) =    -34.10145  eV     2   -->   2 G_2            
     e( 31 - 32) =    -28.36137  eV     2   -->   2 G_2            
     e( 33 - 34) =    -28.36026  eV     2   -->   2 G_2            
     e( 35 - 36) =    -28.35265  eV     2   -->   2 G_2            
     e( 37 - 38) =    -28.35157  eV     2   -->   2 G_2            
     e( 39 - 40) =    -27.12169  eV     2   -->   2 G_2            
     e( 41 - 42) =    -27.12057  eV     2   -->   2 G_2            
     e( 43 - 44) =    -27.11380  eV     2   -->   2 G_2            
     e( 45 - 46) =    -27.11270  eV     2   -->   2 G_2            
     e( 47 - 48) =    -27.10955  eV     2   -->   2 G_2            
     e( 49 - 50) =    -27.10847  eV     2   -->   2 G_2            
     e( 51 - 52) =    -10.72936  eV     2   -->   2 G_2            
     e( 53 - 54) =    -10.18858  eV     2   -->   2 G_2            
     e( 55 - 56) =     -9.12846  eV     2   -->   2 G_2            
     e( 57 - 58) =     -6.41852  eV     2   -->   2 G_2            
     e( 59 - 60) =     -5.13789  eV     2   -->   2 G_2            
     e( 61 - 61) =     -0.77162  eV     1   --> G_2            
     e( 62 - 62) =     -0.77151  eV     1   --> G_2            
     e( 63 - 63) =     -0.56599  eV     1   --> G_2            
     e( 64 - 64) =     -0.56552  eV     1   --> G_2            
     e( 65 - 65) =     -0.03909  eV     1   --> G_2            
     e( 66 - 66) =     -0.03812  eV     1   --> G_2            
     e( 67 - 67) =      0.01272  eV     1   --> G_2            
     e( 68 - 68) =      0.01300  eV     1   --> G_2            
     e( 69 - 69) =      0.28008  eV     1   --> G_2            
     e( 70 - 70) =      0.28078  eV     1   --> G_2            
     e( 71 - 71) =      0.47446  eV     1   --> G_2            
     e( 72 - 72) =      0.47512  eV     1   --> G_2            
     e( 73 - 73) =      0.74153  eV     1   --> G_2            
     e( 74 - 74) =      0.74200  eV     1   --> G_2            
     e( 75 - 75) =      0.92351  eV     1   --> G_2            
     e( 76 - 76) =      0.92392  eV     1   --> G_2            
     e( 77 - 77) =      1.25393  eV     1   --> G_2            
     e( 78 - 78) =      1.25432  eV     1   --> G_2            
     e( 79 - 79) =      1.94896  eV     1   --> G_2            
     e( 80 - 80) =      1.94940  eV     1   --> G_2            
     e( 81 - 81) =      2.35776  eV     1   --> G_2            
     e( 82 - 82) =      2.35800  eV     1   --> G_2            
     e( 83 - 83) =      2.75520  eV     1   --> G_2            
     e( 84 - 84) =      2.75548  eV     1   --> G_2            
     e( 85 - 85) =      3.17018  eV     1   --> G_2            
     e( 86 - 86) =      3.17094  eV     1   --> G_2            
     e( 87 - 87) =      3.77008  eV     1   --> G_2            
     e( 88 - 88) =      3.77055  eV     1   --> G_2            
     e( 89 - 90) =      3.97724  eV     2   -->   2 G_2            
     e( 91 - 92) =      6.08017  eV     2   -->   2 G_2            
     e( 93 - 94) =      6.22607  eV     2   -->   2 G_2            
     e( 95 - 96) =      6.88725  eV     2   -->   2 G_2            
     e( 97 - 98) =      7.00174  eV     2   -->   2 G_2            
     e( 99 -100) =      7.37966  eV     2   -->   2 G_2            

 **************************************************************************

 **************************************************************************

                    xk=(   0.05714,   0.03299,   0.00000  )

     Band symmetry, C_1 (1)     double point group:

     e(  1 -  2) =    -35.70291  eV     2   -->   2 G_2            
     e(  3 -  4) =    -35.70135  eV     2   -->   2 G_2            
     e(  5 -  6) =    -35.66648  eV     2   -->   2 G_2            
     e(  7 -  8) =    -35.66494  eV     2   -->   2 G_2            
     e(  9 - 10) =    -35.60199  eV     2   -->   2 G_2            
     e( 11 - 12) =    -35.57189  eV     2   -->   2 G_2            
     e( 13 - 14) =    -34.24500  eV     2   -->   2 G_2            
     e( 15 - 16) =    -34.24343  eV     2   -->   2 G_2            
     e( 17 - 18) =    -34.21458  eV     2   -->   2 G_2            
     e( 19 - 20) =    -34.21306  eV     2   -->   2 G_2            
     e( 21 - 22) =    -34.19767  eV     2   -->   2 G_2            
     e( 23 - 24) =    -34.19612  eV     2   -->   2 G_2            
     e( 25 - 26) =    -34.14108  eV     2   -->   2 G_2            
     e( 27 - 28) =    -34.12218  eV     2   -->   2 G_2            
     e( 29 - 30) =    -34.10144  eV     2   -->   2 G_2            
     e( 31 - 32) =    -28.36137  eV     2   -->   2 G_2            
     e( 33 - 34) =    -28.36026  eV     2   -->   2 G_2            
     e( 35 - 36) =    -28.35266  eV     2   -->   2 G_2            
     e( 37 - 38) =    -28.35157  eV     2   -->   2 G_2            
     e( 39 - 40) =    -27.12168  eV     2   -->   2 G_2            
     e( 41 - 42) =    -27.12057  eV     2   -->   2 G_2            
     e( 43 - 44) =    -27.11380  eV     2   -->   2 G_2            
     e( 45 - 46) =    -27.11271  eV     2   -->   2 G_2            
     e( 47 - 48) =    -27.10955  eV     2   -->   2 G_2            
     e( 49 - 50) =    -27.10847  eV     2   -->   2 G_2            
     e( 51 - 52) =    -10.72333  eV     2   -->   2 G_2            
     e( 53 - 54) =    -10.18318  eV     2   -->   2 G_2            
     e( 55 - 56) =     -9.12543  eV     2   -->   2 G_2            
     e( 57 - 58) =     -6.42057  eV     2   -->   2 G_2            
     e( 59 - 60) =     -5.15084  eV     2   -->   2 G_2            
     e( 61 - 61) =     -0.78544  eV     1   --> G_2            
     e( 62 - 62) =     -0.78529  eV     1   --> G_2            
     e( 63 - 63) =     -0.62182  eV     1   --> G_2            
     e( 64 - 64) =     -0.62128  eV     1   --> G_2            
     e( 65 - 65) =     -0.07507  eV     1   --> G_2            
     e( 66 - 66) =     -0.07396  eV     1   --> G_2            
     e( 67 - 67) =     -0.00474  eV     1   --> G_2            
     e( 68 - 68) =     -0.00423  eV     1   --> G_2            
     e( 69 - 69) =      0.26698  eV     1   --> G_2            
     e( 70 - 70) =      0.26774  eV     1   --> G_2            
     e( 71 - 71) =      0.46575  eV     1   --> G_2            
     e( 72 - 72) =      0.46631  eV     1   --> G_2            
     e( 73 - 73) =      0.74039  eV     1   --> G_2            
     e( 74 - 74) =      0.74081  eV     1   --> G_2            
     e( 75 - 75) =      0.94628  eV     1   --> G_2            
     e( 76 - 76) =      0.94665  eV     1   --> G_2            
     e( 77 - 77) =      1.28432  eV     1   --> G_2            
     e( 78 - 78) =      1.28472  eV     1   --> G_2            
     e( 79 - 79) =      1.99436  eV     1   --> G_2            
     e( 80 - 80) =      1.99484  eV     1   --> G_2            
     e( 81 - 81) =      2.34757  eV     1   --> G_2            
     e( 82 - 82) =      2.34778  eV     1   --> G_2            
     e( 83 - 83) =      2.76076  eV     1   --> G_2            
     e( 84 - 84) =      2.76097  eV     1   --> G_2            
     e( 85 - 85) =      3.19942  eV     1   --> G_2            
     e( 86 - 86) =      3.20019  eV     1   --> G_2            
     e( 87 - 87) =      3.78537  eV     1   --> G_2            
     e( 88 - 88) =      3.78589  eV     1   --> G_2            
     e( 89 - 90) =      3.98414  eV     2   -->   2 G_2            
     e( 91 - 92) =      6.09034  eV     2   -->   2 G_2            
     e( 93 - 94) =      6.22592  eV     2   -->   2 G_2            
     e( 95 - 96) =      6.87765  eV     2   -->   2 G_2            
     e( 97 - 98) =      6.98995  eV     2   -->   2 G_2            
     e( 99 -100) =      7.37906  eV     2   -->   2 G_2            

 **************************************************************************

 **************************************************************************

                    xk=(   0.06429,   0.03712,   0.00000  )

     Band symmetry, C_1 (1)     double point group:

     e(  1 -  2) =    -35.70290  eV     2   -->   2 G_2            
     e(  3 -  4) =    -35.70134  eV     2   -->   2 G_2            
     e(  5 -  6) =    -35.66648  eV     2   -->   2 G_2            
     e(  7 -  8) =    -35.66494  eV     2   -->   2 G_2            
     e(  9 - 10) =    -35.60198  eV     2   -->   2 G_2            
     e( 11 - 12) =    -35.57189  eV     2   -->   2 G_2            
     e( 13 - 14) =    -34.24500  eV     2   -->   2 G_2            
     e( 15 - 16) =    -34.24343  eV     2   -->   2 G_2            
     e( 17 - 18) =    -34.21458  eV     2   -->   2 G_2            
     e( 19 - 20) =    -34.21306  eV     2   -->   2 G_2            
     e( 21 - 22) =    -34.19767  eV     2   -->   2 G_2            
     e( 23 - 24) =    -34.19612  eV     2   -->   2 G_2            
     e( 25 - 26) =    -34.14108  eV     2   -->   2 G_2            
     e( 27 - 28) =    -34.12218  eV     2   -->   2 G_2            
     e( 29 - 30) =    -34.10144  eV     2   -->   2 G_2            
     e( 31 - 32) =    -28.36137  eV     2   -->   2 G_2            
     e( 33 - 34) =    -28.36026  eV     2   -->   2 G_2            
     e( 35 - 36) =    -28.35266  eV     2   -->   2 G_2            
     e( 37 - 38) =    -28.35158  eV     2   -->   2 G_2            
     e( 39 - 40) =    -27.12167  eV     2   -->   2 G_2            
     e( 41 - 42) =    -27.12056  eV     2   -->   2 G_2            
     e( 43 - 44) =    -27.11381  eV     2   -->   2 G_2            
     e( 45 - 46) =    -27.11271  eV     2   -->   2 G_2            
     e( 47 - 48) =    -27.10955  eV     2   -->   2 G_2            
     e( 49 - 50) =    -27.10847  eV     2   -->   2 G_2            
     e( 51 - 52) =    -10.71651  eV     2   -->   2 G_2            
     e( 53 - 54) =    -10.17704  eV     2   -->   2 G_2            
     e( 55 - 56) =     -9.12199  eV     2   -->   2 G_2            
     e( 57 - 58) =     -6.42291  eV     2   -->   2 G_2            
     e( 59 - 60) =     -5.16544  eV     2   -->   2 G_2            
     e( 61 - 61) =     -0.80248  eV     1   --> G_2            
     e( 62 - 62) =     -0.80225  eV     1   --> G_2            
     e( 63 - 63) =     -0.67849  eV     1   --> G_2            
     e( 64 - 64) =     -0.67784  eV     1   --> G_2            
     e( 65 - 65) =     -0.11665  eV     1   --> G_2            
     e( 66 - 66) =     -0.11555  eV     1   --> G_2            
     e( 67 - 67) =     -0.01948  eV     1   --> G_2            
     e( 68 - 68) =     -0.01893  eV     1   --> G_2            
     e( 69 - 69) =      0.24994  eV     1   --> G_2            
     e( 70 - 70) =      0.25076  eV     1   --> G_2            
     e( 71 - 71) =      0.45233  eV     1   --> G_2            
     e( 72 - 72) =      0.45278  eV     1   --> G_2            
     e( 73 - 73) =      0.74117  eV     1   --> G_2            
     e( 74 - 74) =      0.74155  eV     1   --> G_2            
     e( 75 - 75) =      0.97404  eV     1   --> G_2            
     e( 76 - 76) =      0.97438  eV     1   --> G_2            
     e( 77 - 77) =      1.31457  eV     1   --> G_2            
     e( 78 - 78) =      1.31496  eV     1   --> G_2            
     e( 79 - 79) =      2.03350  eV     1   --> G_2            
     e( 80 - 80) =      2.03399  eV     1   --> G_2            
     e( 81 - 81) =      2.34626  eV     1   --> G_2            
     e( 82 - 82) =      2.34646  eV     1   --> G_2            
     e( 83 - 83) =      2.77141  eV     1   --> G_2            
     e( 84 - 84) =      2.77155  eV     1   --> G_2            
     e( 85 - 85) =      3.22673  eV     1   --> G_2            
     e( 86 - 86) =      3.22751  eV     1   --> G_2            
     e( 87 - 87) =      3.79932  eV     1   --> G_2            
     e( 88 - 88) =      3.79990  eV     1   --> G_2            
     e( 89 - 89) =      3.99549  eV     1   --> G_2            
     e( 90 - 90) =      3.99561  eV     1   --> G_2            
     e( 91 - 92) =      6.10170  eV     2   -->   2 G_2            
     e( 93 - 94) =      6.22547  eV     2   -->   2 G_2            
     e( 95 - 96) =      6.86169  eV     2   -->   2 G_2            
     e( 97 - 98) =      6.98313  eV     2   -->   2 G_2            
     e( 99 -100) =      7.37909  eV     2   -->   2 G_2            

 **************************************************************************

 **************************************************************************

                    xk=(   0.07143,   0.04124,   0.00000  )

     Band symmetry, C_1 (1)     double point group:

     e(  1 -  2) =    -35.70290  eV     2   -->   2 G_2            
     e(  3 -  4) =    -35.70134  eV     2   -->   2 G_2            
     e(  5 -  6) =    -35.66648  eV     2   -->   2 G_2            
     e(  7 -  8) =    -35.66494  eV     2   -->   2 G_2            
     e(  9 - 10) =    -35.60198  eV     2   -->   2 G_2            
     e( 11 - 12) =    -35.57189  eV     2   -->   2 G_2            
     e( 13 - 14) =    -34.24499  eV     2   -->   2 G_2            
     e( 15 - 16) =    -34.24342  eV     2   -->   2 G_2            
     e( 17 - 18) =    -34.21458  eV     2   -->   2 G_2            
     e( 19 - 20) =    -34.21306  eV     2   -->   2 G_2            
     e( 21 - 22) =    -34.19767  eV     2   -->   2 G_2            
     e( 23 - 24) =    -34.19611  eV     2   -->   2 G_2            
     e( 25 - 26) =    -34.14108  eV     2   -->   2 G_2            
     e( 27 - 28) =    -34.12218  eV     2   -->   2 G_2            
     e( 29 - 30) =    -34.10143  eV     2   -->   2 G_2            
     e( 31 - 32) =    -28.36137  eV     2   -->   2 G_2            
     e( 33 - 34) =    -28.36026  eV     2   -->   2 G_2            
     e( 35 - 36) =    -28.35266  eV     2   -->   2 G_2            
     e( 37 - 38) =    -28.35158  eV     2   -->   2 G_2            
     e( 39 - 40) =    -27.12167  eV     2   -->   2 G_2            
     e( 41 - 42) =    -27.12055  eV     2   -->   2 G_2            
     e( 43 - 43) =    -27.11382  eV     1   --> G_2            
     e( 44 - 44) =    -27.11372  eV     1   --> G_2            
     e( 45 - 45) =    -27.11272  eV     1   --> G_2            
     e( 46 - 46) =    -27.11262  eV     1   --> G_2            
     e( 47 - 48) =    -27.10956  eV     2   -->   2 G_2            
     e( 49 - 50) =    -27.10847  eV     2   -->   2 G_2            
     e( 51 - 52) =    -10.70888  eV     2   -->   2 G_2            
     e( 53 - 54) =    -10.17020  eV     2   -->   2 G_2            
     e( 55 - 56) =     -9.11818  eV     2   -->   2 G_2            
     e( 57 - 58) =     -6.42559  eV     2   -->   2 G_2            
     e( 59 - 60) =     -5.18171  eV     2   -->   2 G_2            
     e( 61 - 61) =     -0.82530  eV     1   --> G_2            
     e( 62 - 62) =     -0.82494  eV     1   --> G_2            
     e( 63 - 63) =     -0.73274  eV     1   --> G_2            
     e( 64 - 64) =     -0.73195  eV     1   --> G_2            
     e( 65 - 65) =     -0.16040  eV     1   --> G_2            
     e( 66 - 66) =     -0.15934  eV     1   --> G_2            
     e( 67 - 67) =     -0.03468  eV     1   --> G_2            
     e( 68 - 68) =     -0.03414  eV     1   --> G_2            
     e( 69 - 69) =      0.22843  eV     1   --> G_2            
     e( 70 - 70) =      0.22933  eV     1   --> G_2            
     e( 71 - 71) =      0.43617  eV     1   --> G_2            
     e( 72 - 72) =      0.43658  eV     1   --> G_2            
     e( 73 - 73) =      0.74484  eV     1   --> G_2            
     e( 74 - 74) =      0.74519  eV     1   --> G_2            
     e( 75 - 75) =      1.00463  eV     1   --> G_2            
     e( 76 - 76) =      1.00496  eV     1   --> G_2            
     e( 77 - 77) =      1.34259  eV     1   --> G_2            
     e( 78 - 78) =      1.34297  eV     1   --> G_2            
     e( 79 - 79) =      2.06364  eV     1   --> G_2            
     e( 80 - 80) =      2.06414  eV     1   --> G_2            
     e( 81 - 81) =      2.35771  eV     1   --> G_2            
     e( 82 - 82) =      2.35794  eV     1   --> G_2            
     e( 83 - 84) =      2.78658  eV     2   -->   2 G_2            
     e( 85 - 85) =      3.25215  eV     1   --> G_2            
     e( 86 - 86) =      3.25293  eV     1   --> G_2            
     e( 87 - 87) =      3.81124  eV     1   --> G_2            
     e( 88 - 88) =      3.81186  eV     1   --> G_2            
     e( 89 - 89) =      4.01194  eV     1   --> G_2            
     e( 90 - 90) =      4.01209  eV     1   --> G_2            
     e( 91 - 92) =      6.11419  eV     2   -->   2 G_2            
     e( 93 - 94) =      6.22456  eV     2   -->   2 G_2            
     e( 95 - 96) =      6.83980  eV     2   -->   2 G_2            
     e( 97 - 98) =      6.98141  eV     2   -->   2 G_2            
     e( 99 -100) =      7.37985  eV     2   -->   2 G_2            

 **************************************************************************

 **************************************************************************

                    xk=(   0.07857,   0.04536,   0.00000  )

     Band symmetry, C_1 (1)     double point group:

     e(  1 -  2) =    -35.70290  eV     2   -->   2 G_2            
     e(  3 -  4) =    -35.70134  eV     2   -->   2 G_2            
     e(  5 -  6) =    -35.66648  eV     2   -->   2 G_2            
     e(  7 -  8) =    -35.66494  eV     2   -->   2 G_2            
     e(  9 - 10) =    -35.60198  eV     2   -->   2 G_2            
     e( 11 - 12) =    -35.57188  eV     2   -->   2 G_2            
     e( 13 - 14) =    -34.24499  eV     2   -->   2 G_2            
     e( 15 - 16) =    -34.24342  eV     2   -->   2 G_2            
     e( 17 - 18) =    -34.21458  eV     2   -->   2 G_2            
     e( 19 - 20) =    -34.21306  eV     2   -->   2 G_2            
     e( 21 - 22) =    -34.19767  eV     2   -->   2 G_2            
     e( 23 - 24) =    -34.19611  eV     2   -->   2 G_2            
     e( 25 - 26) =    -34.14108  eV     2   -->   2 G_2            
     e( 27 - 28) =    -34.12218  eV     2   -->   2 G_2            
     e( 29 - 30) =    -34.10143  eV     2   -->   2 G_2            
     e( 31 - 32) =    -28.36137  eV     2   -->   2 G_2            
     e( 33 - 34) =    -28.36026  eV     2   -->   2 G_2            
     e( 35 - 36) =    -28.35266  eV     2   -->   2 G_2            
     e( 37 - 38) =    -28.35158  eV     2   -->   2 G_2            
     e( 39 - 40) =    -27.12166  eV     2   -->   2 G_2            
     e( 41 - 42) =    -27.12054  eV     2   -->   2 G_2            
     e( 43 - 43) =    -27.11382  eV     1   --> G_2            
     e( 44 - 44) =    -27.11371  eV     1   --> G_2            
     e( 45 - 45) =    -27.11273  eV     1   --> G_2            
     e( 46 - 46) =    -27.11261  eV     1   --> G_2            
     e( 47 - 48) =    -27.10956  eV     2   -->   2 G_2            
     e( 49 - 50) =    -27.10847  eV     2   -->   2 G_2            
     e( 51 - 52) =    -10.70047  eV     2   -->   2 G_2            
     e( 53 - 54) =    -10.16266  eV     2   -->   2 G_2            
     e( 55 - 56) =     -9.11401  eV     2   -->   2 G_2            
     e( 57 - 58) =     -6.42865  eV     2   -->   2 G_2            
     e( 59 - 60) =     -5.19965  eV     2   -->   2 G_2            
     e( 61 - 61) =     -0.85964  eV     1   --> G_2            
     e( 62 - 62) =     -0.85921  eV     1   --> G_2            
     e( 63 - 63) =     -0.77813  eV     1   --> G_2            
     e( 64 - 64) =     -0.77726  eV     1   --> G_2            
     e( 65 - 65) =     -0.20538  eV     1   --> G_2            
     e( 66 - 66) =     -0.20436  eV     1   --> G_2            
     e( 67 - 67) =     -0.05106  eV     1   --> G_2            
     e( 68 - 68) =     -0.05055  eV     1   --> G_2            
     e( 69 - 69) =      0.20244  eV     1   --> G_2            
     e( 70 - 70) =      0.20340  eV     1   --> G_2            
     e( 71 - 71) =      0.41913  eV     1   --> G_2            
     e( 72 - 72) =      0.41956  eV     1   --> G_2            
     e( 73 - 73) =      0.75124  eV     1   --> G_2            
     e( 74 - 74) =      0.75156  eV     1   --> G_2            
     e( 75 - 75) =      1.03664  eV     1   --> G_2            
     e( 76 - 76) =      1.03697  eV     1   --> G_2            
     e( 77 - 77) =      1.36635  eV     1   --> G_2            
     e( 78 - 78) =      1.36671  eV     1   --> G_2            
     e( 79 - 79) =      2.08490  eV     1   --> G_2            
     e( 80 - 80) =      2.08537  eV     1   --> G_2            
     e( 81 - 81) =      2.38308  eV     1   --> G_2            
     e( 82 - 82) =      2.38337  eV     1   --> G_2            
     e( 83 - 84) =      2.80575  eV     2   -->   2 G_2            
     e( 85 - 85) =      3.27589  eV     1   --> G_2            
     e( 86 - 86) =      3.27667  eV     1   --> G_2            
     e( 87 - 87) =      3.82112  eV     1   --> G_2            
     e( 88 - 88) =      3.82178  eV     1   --> G_2            
     e( 89 - 89) =      4.03343  eV     1   --> G_2            
     e( 90 - 90) =      4.03362  eV     1   --> G_2            
     e( 91 - 92) =      6.12775  eV     2   -->   2 G_2            
     e( 93 - 94) =      6.22302  eV     2   -->   2 G_2            
     e( 95 - 96) =      6.81373  eV     2   -->   2 G_2            
     e( 97 - 98) =      6.98369  eV     2   -->   2 G_2            
     e( 99 -100) =      7.38140  eV     2   -->   2 G_2            

 **************************************************************************

 **************************************************************************

                    xk=(   0.08571,   0.04949,   0.00000  )

     Band symmetry, C_1 (1)     double point group:

     e(  1 -  2) =    -35.70289  eV     2   -->   2 G_2            
     e(  3 -  4) =    -35.70133  eV     2   -->   2 G_2            
     e(  5 -  6) =    -35.66648  eV     2   -->   2 G_2            
     e(  7 -  8) =    -35.66494  eV     2   -->   2 G_2            
     e(  9 - 10) =    -35.60198  eV     2   -->   2 G_2            
     e( 11 - 12) =    -35.57188  eV     2   -->   2 G_2            
     e( 13 - 14) =    -34.24498  eV     2   -->   2 G_2            
     e( 15 - 16) =    -34.24341  eV     2   -->   2 G_2            
     e( 17 - 18) =    -34.21458  eV     2   -->   2 G_2            
     e( 19 - 20) =    -34.21306  eV     2   -->   2 G_2            
     e( 21 - 22) =    -34.19767  eV     2   -->   2 G_2            
     e( 23 - 24) =    -34.19611  eV     2   -->   2 G_2            
     e( 25 - 26) =    -34.14107  eV     2   -->   2 G_2            
     e( 27 - 28) =    -34.12218  eV     2   -->   2 G_2            
     e( 29 - 30) =    -34.10142  eV     2   -->   2 G_2            
     e( 31 - 32) =    -28.36137  eV     2   -->   2 G_2            
     e( 33 - 34) =    -28.36026  eV     2   -->   2 G_2            
     e( 35 - 36) =    -28.35266  eV     2   -->   2 G_2            
     e( 37 - 38) =    -28.35158  eV     2   -->   2 G_2            
     e( 39 - 40) =    -27.12165  eV     2   -->   2 G_2            
     e( 41 - 42) =    -27.12053  eV     2   -->   2 G_2            
     e( 43 - 43) =    -27.11383  eV     1   --> G_2            
     e( 44 - 44) =    -27.11371  eV     1   --> G_2            
     e( 45 - 45) =    -27.11273  eV     1   --> G_2            
     e( 46 - 46) =    -27.11261  eV     1   --> G_2            
     e( 47 - 48) =    -27.10956  eV     2   -->   2 G_2            
     e( 49 - 50) =    -27.10847  eV     2   -->   2 G_2            
     e( 51 - 52) =    -10.69124  eV     2   -->   2 G_2            
     e( 53 - 54) =    -10.15439  eV     2   -->   2 G_2            
     e( 55 - 56) =     -9.10946  eV     2   -->   2 G_2            
     e( 57 - 58) =     -6.43205  eV     2   -->   2 G_2            
     e( 59 - 60) =     -5.21918  eV     2   -->   2 G_2            
     e( 61 - 61) =     -0.90914  eV     1   --> G_2            
     e( 62 - 62) =     -0.90881  eV     1   --> G_2            
     e( 63 - 63) =     -0.81035  eV     1   --> G_2            
     e( 64 - 64) =     -0.80957  eV     1   --> G_2            
     e( 65 - 65) =     -0.25134  eV     1   --> G_2            
     e( 66 - 66) =     -0.25036  eV     1   --> G_2            
     e( 67 - 67) =     -0.06873  eV     1   --> G_2            
     e( 68 - 68) =     -0.06825  eV     1   --> G_2            
     e( 69 - 69) =      0.17252  eV     1   --> G_2            
     e( 70 - 70) =      0.17352  eV     1   --> G_2            
     e( 71 - 71) =      0.40247  eV     1   --> G_2            
     e( 72 - 72) =      0.40295  eV     1   --> G_2            
     e( 73 - 73) =      0.75967  eV     1   --> G_2            
     e( 74 - 74) =      0.75996  eV     1   --> G_2            
     e( 75 - 75) =      1.06905  eV     1   --> G_2            
     e( 76 - 76) =      1.06940  eV     1   --> G_2            
     e( 77 - 77) =      1.38403  eV     1   --> G_2            
     e( 78 - 78) =      1.38439  eV     1   --> G_2            
     e( 79 - 79) =      2.10088  eV     1   --> G_2            
     e( 80 - 80) =      2.10131  eV     1   --> G_2            
     e( 81 - 81) =      2.41993  eV     1   --> G_2            
     e( 82 - 82) =      2.42029  eV     1   --> G_2            
     e( 83 - 84) =      2.82839  eV     2   -->   2 G_2            
     e( 85 - 85) =      3.29828  eV     1   --> G_2            
     e( 86 - 86) =      3.29904  eV     1   --> G_2            
     e( 87 - 87) =      3.82959  eV     1   --> G_2            
     e( 88 - 88) =      3.83028  eV     1   --> G_2            
     e( 89 - 89) =      4.05928  eV     1   --> G_2            
     e( 90 - 90) =      4.05950  eV     1   --> G_2            
     e( 91 - 92) =      6.14232  eV     2   -->   2 G_2            
     e( 93 - 94) =      6.22062  eV     2   -->   2 G_2            
     e( 95 - 96) =      6.78533  eV     2   -->   2 G_2            
     e( 97 - 98) =      6.98875  eV     2   -->   2 G_2            
     e( 99 -100) =      7.38380  eV     2   -->   2 G_2            

 **************************************************************************

 **************************************************************************

                    xk=(   0.09286,   0.05361,   0.00000  )

     Band symmetry, C_1 (1)     double point group:

     e(  1 -  2) =    -35.70289  eV     2   -->   2 G_2            
     e(  3 -  4) =    -35.70133  eV     2   -->   2 G_2            
     e(  5 -  6) =    -35.66648  eV     2   -->   2 G_2            
     e(  7 -  8) =    -35.66494  eV     2   -->   2 G_2            
     e(  9 - 10) =    -35.60198  eV     2   -->   2 G_2            
     e( 11 - 12) =    -35.57188  eV     2   -->   2 G_2            
     e( 13 - 14) =    -34.24498  eV     2   -->   2 G_2            
     e( 15 - 16) =    -34.24340  eV     2   -->   2 G_2            
     e( 17 - 18) =    -34.21458  eV     2   -->   2 G_2            
     e( 19 - 20) =    -34.21306  eV     2   -->   2 G_2            
     e( 21 - 22) =    -34.19766  eV     2   -->   2 G_2            
     e( 23 - 24) =    -34.19611  eV     2   -->   2 G_2            
     e( 25 - 26) =    -34.14107  eV     2   -->   2 G_2            
     e( 27 - 28) =    -34.12218  eV     2   -->   2 G_2            
     e( 29 - 30) =    -34.10142  eV     2   -->   2 G_2            
     e( 31 - 32) =    -28.36136  eV     2   -->   2 G_2            
     e( 33 - 34) =    -28.36025  eV     2   -->   2 G_2            
     e( 35 - 36) =    -28.35267  eV     2   -->   2 G_2            
     e( 37 - 38) =    -28.35158  eV     2   -->   2 G_2            
     e( 39 - 40) =    -27.12164  eV     2   -->   2 G_2            
     e( 41 - 42) =    -27.12052  eV     2   -->   2 G_2            
     e( 43 - 43) =    -27.11384  eV     1   --> G_2            
     e( 44 - 44) =    -27.11371  eV     1   --> G_2            
     e( 45 - 45) =    -27.11274  eV     1   --> G_2            
     e( 46 - 46) =    -27.11261  eV     1   --> G_2            
     e( 47 - 48) =    -27.10956  eV     2   -->   2 G_2            
     e( 49 - 50) =    -27.10848  eV     2   -->   2 G_2            
     e( 51 - 52) =    -10.68125  eV     2   -->   2 G_2            
     e( 53 - 54) =    -10.14545  eV     2   -->   2 G_2            
     e( 55 - 56) =     -9.10456  eV     2   -->   2 G_2            
     e( 57 - 58) =     -6.43585  eV     2   -->   2 G_2            
     e( 59 - 60) =     -5.24028  eV     2   -->   2 G_2            
     e( 61 - 61) =     -0.96845  eV     1   --> G_2            
     e( 62 - 62) =     -0.96824  eV     1   --> G_2            
     e( 63 - 63) =     -0.83438  eV     1   --> G_2            
     e( 64 - 64) =     -0.83372  eV     1   --> G_2            
     e( 65 - 65) =     -0.29824  eV     1   --> G_2            
     e( 66 - 66) =     -0.29730  eV     1   --> G_2            
     e( 67 - 67) =     -0.08767  eV     1   --> G_2            
     e( 68 - 68) =     -0.08724  eV     1   --> G_2            
     e( 69 - 69) =      0.13967  eV     1   --> G_2            
     e( 70 - 70) =      0.14071  eV     1   --> G_2            
     e( 71 - 71) =      0.38677  eV     1   --> G_2            
     e( 72 - 72) =      0.38731  eV     1   --> G_2            
     e( 73 - 73) =      0.76937  eV     1   --> G_2            
     e( 74 - 74) =      0.76963  eV     1   --> G_2            
     e( 75 - 75) =      1.10101  eV     1   --> G_2            
     e( 76 - 76) =      1.10138  eV     1   --> G_2            
     e( 77 - 77) =      1.39442  eV     1   --> G_2            
     e( 78 - 78) =      1.39478  eV     1   --> G_2            
     e( 79 - 79) =      2.11642  eV     1   --> G_2            
     e( 80 - 80) =      2.11680  eV     1   --> G_2            
     e( 81 - 81) =      2.46420  eV     1   --> G_2            
     e( 82 - 82) =      2.46461  eV     1   --> G_2            
     e( 83 - 83) =      2.85399  eV     1   --> G_2            
     e( 84 - 84) =      2.85410  eV     1   --> G_2            
     e( 85 - 85) =      3.31977  eV     1   --> G_2            
     e( 86 - 86) =      3.32051  eV     1   --> G_2            
     e( 87 - 87) =      3.83764  eV     1   --> G_2            
     e( 88 - 88) =      3.83835  eV     1   --> G_2            
     e( 89 - 89) =      4.08846  eV     1   --> G_2            
     e( 90 - 90) =      4.08870  eV     1   --> G_2            
     e( 91 - 91) =      6.15780  eV     1   --> G_2            
     e( 92 - 92) =      6.15792  eV     1   --> G_2            
     e( 93 - 93) =      6.21709  eV     1   --> G_2            
     e( 94 - 94) =      6.21721  eV     1   --> G_2            
     e( 95 - 96) =      6.75613  eV     2   -->   2 G_2            
     e( 97 - 98) =      6.99575  eV     2   -->   2 G_2            
     e( 99 -100) =      7.38714  eV     2   -->   2 G_2            

 **************************************************************************

 **************************************************************************

                    xk=(   0.10000,   0.05774,   0.00000  )

     Band symmetry, C_1 (1)     double point group:

     e(  1 -  2) =    -35.70289  eV     2   -->   2 G_2            
     e(  3 -  4) =    -35.70133  eV     2   -->   2 G_2            
     e(  5 -  6) =    -35.66648  eV     2   -->   2 G_2            
     e(  7 -  8) =    -35.66494  eV     2   -->   2 G_2            
     e(  9 - 10) =    -35.60198  eV     2   -->   2 G_2            
     e( 11 - 12) =    -35.57187  eV     2   -->   2 G_2            
     e( 13 - 14) =    -34.24497  eV     2   -->   2 G_2            
     e( 15 - 16) =    -34.24340  eV     2   -->   2 G_2            
     e( 17 - 18) =    -34.21458  eV     2   -->   2 G_2            
     e( 19 - 20) =    -34.21306  eV     2   -->   2 G_2            
     e( 21 - 22) =    -34.19766  eV     2   -->   2 G_2            
     e( 23 - 24) =    -34.19611  eV     2   -->   2 G_2            
     e( 25 - 26) =    -34.14107  eV     2   -->   2 G_2            
     e( 27 - 28) =    -34.12218  eV     2   -->   2 G_2            
     e( 29 - 30) =    -34.10141  eV     2   -->   2 G_2            
     e( 31 - 32) =    -28.36136  eV     2   -->   2 G_2            
     e( 33 - 34) =    -28.36025  eV     2   -->   2 G_2            
     e( 35 - 36) =    -28.35267  eV     2   -->   2 G_2            
     e( 37 - 38) =    -28.35158  eV     2   -->   2 G_2            
     e( 39 - 40) =    -27.12162  eV     2   -->   2 G_2            
     e( 41 - 42) =    -27.12051  eV     2   -->   2 G_2            
     e( 43 - 43) =    -27.11385  eV     1   --> G_2            
     e( 44 - 44) =    -27.11371  eV     1   --> G_2            
     e( 45 - 45) =    -27.11275  eV     1   --> G_2            
     e( 46 - 46) =    -27.11261  eV     1   --> G_2            
     e( 47 - 48) =    -27.10956  eV     2   -->   2 G_2            
     e( 49 - 50) =    -27.10848  eV     2   -->   2 G_2            
     e( 51 - 52) =    -10.67048  eV     2   -->   2 G_2            
     e( 53 - 54) =    -10.13581  eV     2   -->   2 G_2            
     e( 55 - 56) =     -9.09931  eV     2   -->   2 G_2            
     e( 57 - 58) =     -6.44007  eV     2   -->   2 G_2            
     e( 59 - 60) =     -5.26293  eV     2   -->   2 G_2            
     e( 61 - 61) =     -1.03213  eV     1   --> G_2            
     e( 62 - 62) =     -1.03199  eV     1   --> G_2            
     e( 63 - 63) =     -0.85528  eV     1   --> G_2            
     e( 64 - 64) =     -0.85471  eV     1   --> G_2            
     e( 65 - 65) =     -0.34607  eV     1   --> G_2            
     e( 66 - 66) =     -0.34518  eV     1   --> G_2            
     e( 67 - 67) =     -0.10792  eV     1   --> G_2            
     e( 68 - 68) =     -0.10754  eV     1   --> G_2            
     e( 69 - 69) =      0.10510  eV     1   --> G_2            
     e( 70 - 70) =      0.10614  eV     1   --> G_2            
     e( 71 - 71) =      0.37217  eV     1   --> G_2            
     e( 72 - 72) =      0.37276  eV     1   --> G_2            
     e( 73 - 73) =      0.77962  eV     1   --> G_2            
     e( 74 - 74) =      0.77986  eV     1   --> G_2            
     e( 75 - 75) =      1.13160  eV     1   --> G_2            
     e( 76 - 76) =      1.13200  eV     1   --> G_2            
     e( 77 - 77) =      1.39727  eV     1   --> G_2            
     e( 78 - 78) =      1.39765  eV     1   --> G_2            
     e( 79 - 79) =      2.13513  eV     1   --> G_2            
     e( 80 - 80) =      2.13547  eV     1   --> G_2            
     e( 81 - 81) =      2.51239  eV     1   --> G_2            
     e( 82 - 82) =      2.51283  eV     1   --> G_2            
     e( 83 - 83) =      2.88194  eV     1   --> G_2            
     e( 84 - 84) =      2.88209  eV     1   --> G_2            
     e( 85 - 85) =      3.34097  eV     1   --> G_2            
     e( 86 - 86) =      3.34169  eV     1   --> G_2            
     e( 87 - 87) =      3.84629  eV     1   --> G_2            
     e( 88 - 88) =      3.84701  eV     1   --> G_2            
     e( 89 - 89) =      4.11990  eV     1   --> G_2            
     e( 90 - 90) =      4.12014  eV     1   --> G_2            
     e( 91 - 91) =      6.17406  eV     1   --> G_2            
     e( 92 - 92) =      6.17424  eV     1   --> G_2            
     e( 93 - 93) =      6.21216  eV     1   --> G_2            
     e( 94 - 94) =      6.21233  eV     1   --> G_2            
     e( 95 - 96) =      6.72736  eV     2   -->   2 G_2            
     e( 97 - 98) =      7.00417  eV     2   -->   2 G_2            
     e( 99 -100) =      7.39151  eV     2   -->   2 G_2            

 **************************************************************************

 **************************************************************************

                    xk=(   0.10714,   0.06186,   0.00000  )

     Band symmetry, C_1 (1)     double point group:

     e(  1 -  2) =    -35.70288  eV     2   -->   2 G_2            
     e(  3 -  4) =    -35.70132  eV     2   -->   2 G_2            
     e(  5 -  6) =    -35.66648  eV     2   -->   2 G_2            
     e(  7 -  8) =    -35.66494  eV     2   -->   2 G_2            
     e(  9 - 10) =    -35.60198  eV     2   -->   2 G_2            
     e( 11 - 12) =    -35.57187  eV     2   -->   2 G_2            
     e( 13 - 14) =    -34.24496  eV     2   -->   2 G_2            
     e( 15 - 16) =    -34.24339  eV     2   -->   2 G_2            
     e( 17 - 18) =    -34.21458  eV     2   -->   2 G_2            
     e( 19 - 20) =    -34.21306  eV     2   -->   2 G_2            
     e( 21 - 22) =    -34.19766  eV     2   -->   2 G_2            
     e( 23 - 24) =    -34.19610  eV     2   -->   2 G_2            
     e( 25 - 26) =    -34.14107  eV     2   -->   2 G_2            
     e( 27 - 28) =    -34.12218  eV     2   -->   2 G_2            
     e( 29 - 30) =    -34.10141  eV     2   -->   2 G_2            
     e( 31 - 32) =    -28.36136  eV     2   -->   2 G_2            
     e( 33 - 34) =    -28.36025  eV     2   -->   2 G_2            
     e( 35 - 36) =    -28.35267  eV     2   -->   2 G_2            
     e( 37 - 38) =    -28.35158  eV     2   -->   2 G_2            
     e( 39 - 40) =    -27.12161  eV     2   -->   2 G_2            
     e( 41 - 42) =    -27.12050  eV     2   -->   2 G_2            
     e( 43 - 43) =    -27.11385  eV     1   --> G_2            
     e( 44 - 44) =    -27.11371  eV     1   --> G_2            
     e( 45 - 45) =    -27.11275  eV     1   --> G_2            
     e( 46 - 46) =    -27.11261  eV     1   --> G_2            
     e( 47 - 48) =    -27.10956  eV     2   -->   2 G_2            
     e( 49 - 50) =    -27.10848  eV     2   -->   2 G_2            
     e( 51 - 52) =    -10.65891  eV     2   -->   2 G_2            
     e( 53 - 54) =    -10.12548  eV     2   -->   2 G_2            
     e( 55 - 56) =     -9.09373  eV     2   -->   2 G_2            
     e( 57 - 58) =     -6.44474  eV     2   -->   2 G_2            
     e( 59 - 60) =     -5.28712  eV     2   -->   2 G_2            
     e( 61 - 61) =     -1.09778  eV     1   --> G_2            
     e( 62 - 62) =     -1.09767  eV     1   --> G_2            
     e( 63 - 63) =     -0.87506  eV     1   --> G_2            
     e( 64 - 64) =     -0.87454  eV     1   --> G_2            
     e( 65 - 65) =     -0.39487  eV     1   --> G_2            
     e( 66 - 66) =     -0.39402  eV     1   --> G_2            
     e( 67 - 67) =     -0.12957  eV     1   --> G_2            
     e( 68 - 68) =     -0.12925  eV     1   --> G_2            
     e( 69 - 69) =      0.06998  eV     1   --> G_2            
     e( 70 - 70) =      0.07101  eV     1   --> G_2            
     e( 71 - 71) =      0.35857  eV     1   --> G_2            
     e( 72 - 72) =      0.35920  eV     1   --> G_2            
     e( 73 - 73) =      0.78982  eV     1   --> G_2            
     e( 74 - 74) =      0.79005  eV     1   --> G_2            
     e( 75 - 75) =      1.15953  eV     1   --> G_2            
     e( 76 - 76) =      1.15995  eV     1   --> G_2            
     e( 77 - 77) =      1.39369  eV     1   --> G_2            
     e( 78 - 78) =      1.39412  eV     1   --> G_2            
     e( 79 - 79) =      2.15873  eV     1   --> G_2            
     e( 80 - 80) =      2.15902  eV     1   --> G_2            
     e( 81 - 81) =      2.56214  eV     1   --> G_2            
     e( 82 - 82) =      2.56259  eV     1   --> G_2            
     e( 83 - 83) =      2.91144  eV     1   --> G_2            
     e( 84 - 84) =      2.91164  eV     1   --> G_2            
     e( 85 - 85) =      3.36262  eV     1   --> G_2            
     e( 86 - 86) =      3.36330  eV     1   --> G_2            
     e( 87 - 87) =      3.85645  eV     1   --> G_2            
     e( 88 - 88) =      3.85716  eV     1   --> G_2            
     e( 89 - 89) =      4.15264  eV     1   --> G_2            
     e( 90 - 90) =      4.15287  eV     1   --> G_2            
     e( 91 - 91) =      6.19045  eV     1   --> G_2            
     e( 92 - 92) =      6.19086  eV     1   --> G_2            
     e( 93 - 93) =      6.20586  eV     1   --> G_2            
     e( 94 - 94) =      6.20626  eV     1   --> G_2            
     e( 95 - 96) =      6.70007  eV     2   -->   2 G_2            
     e( 97 - 98) =      7.01370  eV     2   -->   2 G_2            
     e( 99 -100) =      7.39701  eV     2   -->   2 G_2            

 **************************************************************************

 **************************************************************************

                    xk=(   0.11429,   0.06598,   0.00000  )

     Band symmetry, C_1 (1)     double point group:

     e(  1 -  2) =    -35.70288  eV     2   -->   2 G_2            
     e(  3 -  4) =    -35.70132  eV     2   -->   2 G_2            
     e(  5 -  6) =    -35.66648  eV     2   -->   2 G_2            
     e(  7 -  8) =    -35.66494  eV     2   -->   2 G_2            
     e(  9 - 10) =    -35.60197  eV     2   -->   2 G_2            
     e( 11 - 12) =    -35.57187  eV     2   -->   2 G_2            
     e( 13 - 14) =    -34.24496  eV     2   -->   2 G_2            
     e( 15 - 16) =    -34.24338  eV     2   -->   2 G_2            
     e( 17 - 18) =    -34.21458  eV     2   -->   2 G_2            
     e( 19 - 20) =    -34.21305  eV     2   -->   2 G_2            
     e( 21 - 22) =    -34.19766  eV     2   -->   2 G_2            
     e( 23 - 24) =    -34.19610  eV     2   -->   2 G_2            
     e( 25 - 26) =    -34.14106  eV     2   -->   2 G_2            
     e( 27 - 28) =    -34.12218  eV     2   -->   2 G_2            
     e( 29 - 30) =    -34.10140  eV     2   -->   2 G_2            
     e( 31 - 32) =    -28.36135  eV     2   -->   2 G_2            
     e( 33 - 34) =    -28.36025  eV     2   -->   2 G_2            
     e( 35 - 36) =    -28.35267  eV     2   -->   2 G_2            
     e( 37 - 38) =    -28.35159  eV     2   -->   2 G_2            
     e( 39 - 40) =    -27.12160  eV     2   -->   2 G_2            
     e( 41 - 42) =    -27.12049  eV     2   -->   2 G_2            
     e( 43 - 43) =    -27.11386  eV     1   --> G_2            
     e( 44 - 44) =    -27.11371  eV     1   --> G_2            
     e( 45 - 45) =    -27.11276  eV     1   --> G_2            
     e( 46 - 46) =    -27.11261  eV     1   --> G_2            
     e( 47 - 48) =    -27.10956  eV     2   -->   2 G_2            
     e( 49 - 50) =    -27.10848  eV     2   -->   2 G_2            
     e( 51 - 52) =    -10.64657  eV     2   -->   2 G_2            
     e( 53 - 54) =    -10.11448  eV     2   -->   2 G_2            
     e( 55 - 56) =     -9.08783  eV     2   -->   2 G_2            
     e( 57 - 58) =     -6.44989  eV     2   -->   2 G_2            
     e( 59 - 60) =     -5.31278  eV     2   -->   2 G_2            
     e( 61 - 61) =     -1.16432  eV     1   --> G_2            
     e( 62 - 62) =     -1.16421  eV     1   --> G_2            
     e( 63 - 63) =     -0.89441  eV     1   --> G_2            
     e( 64 - 64) =     -0.89392  eV     1   --> G_2            
     e( 65 - 65) =     -0.44462  eV     1   --> G_2            
     e( 66 - 66) =     -0.44380  eV     1   --> G_2            
     e( 67 - 67) =     -0.15278  eV     1   --> G_2            
     e( 68 - 68) =     -0.15252  eV     1   --> G_2            
     e( 69 - 69) =      0.03534  eV     1   --> G_2            
     e( 70 - 70) =      0.03635  eV     1   --> G_2            
     e( 71 - 71) =      0.34583  eV     1   --> G_2            
     e( 72 - 72) =      0.34649  eV     1   --> G_2            
     e( 73 - 73) =      0.79947  eV     1   --> G_2            
     e( 74 - 74) =      0.79969  eV     1   --> G_2            
     e( 75 - 75) =      1.18274  eV     1   --> G_2            
     e( 76 - 76) =      1.18318  eV     1   --> G_2            
     e( 77 - 77) =      1.38640  eV     1   --> G_2            
     e( 78 - 78) =      1.38687  eV     1   --> G_2            
     e( 79 - 79) =      2.18735  eV     1   --> G_2            
     e( 80 - 80) =      2.18761  eV     1   --> G_2            
     e( 81 - 81) =      2.61206  eV     1   --> G_2            
     e( 82 - 82) =      2.61252  eV     1   --> G_2            
     e( 83 - 83) =      2.94157  eV     1   --> G_2            
     e( 84 - 84) =      2.94182  eV     1   --> G_2            
     e( 85 - 85) =      3.38555  eV     1   --> G_2            
     e( 86 - 86) =      3.38618  eV     1   --> G_2            
     e( 87 - 87) =      3.86884  eV     1   --> G_2            
     e( 88 - 88) =      3.86953  eV     1   --> G_2            
     e( 89 - 89) =      4.18590  eV     1   --> G_2            
     e( 90 - 90) =      4.18613  eV     1   --> G_2            
     e( 91 - 91) =      6.19426  eV     1   --> G_2            
     e( 92 - 92) =      6.19461  eV     1   --> G_2            
     e( 93 - 93) =      6.21088  eV     1   --> G_2            
     e( 94 - 94) =      6.21122  eV     1   --> G_2            
     e( 95 - 96) =      6.67518  eV     2   -->   2 G_2            
     e( 97 - 98) =      7.02415  eV     2   -->   2 G_2            
     e( 99 -100) =      7.40374  eV     2   -->   2 G_2            

 **************************************************************************

 **************************************************************************

                    xk=(   0.12143,   0.07011,   0.00000  )

     Band symmetry, C_1 (1)     double point group:

     e(  1 -  2) =    -35.70287  eV     2   -->   2 G_2            
     e(  3 -  4) =    -35.70131  eV     2   -->   2 G_2            
     e(  5 -  6) =    -35.66648  eV     2   -->   2 G_2            
     e(  7 -  8) =    -35.66493  eV     2   -->   2 G_2            
     e(  9 - 10) =    -35.60197  eV     2   -->   2 G_2            
     e( 11 - 12) =    -35.57186  eV     2   -->   2 G_2            
[...]
     e( 45 - 46) =    -27.11268  eV     2   -->   2 G_2            
     e( 47 - 48) =    -27.10957  eV     2   -->   2 G_2            
     e( 49 - 50) =    -27.10848  eV     2   -->   2 G_2            
     e( 51 - 52) =    -10.74008  eV     2   -->   2 G_2            
     e( 53 - 54) =    -10.19817  eV     2   -->   2 G_2            
     e( 55 - 56) =     -9.13377  eV     2   -->   2 G_2            
     e( 57 - 58) =     -6.41438  eV     2   -->   2 G_2            
     e( 59 - 60) =     -5.11267  eV     2   -->   2 G_2            
     e( 61 - 62) =     -0.74583  eV     2   -->   2 G_2            
     e( 63 - 63) =     -0.43029  eV     1   --> G_2            
     e( 64 - 64) =     -0.42986  eV     1   --> G_2            
     e( 65 - 65) =     -0.00008  eV     1   --> G_2            
     e( 66 - 66) =      0.00039  eV     1   --> G_2            
     e( 67 - 67) =      0.09569  eV     1   --> G_2            
     e( 68 - 68) =      0.09653  eV     1   --> G_2            
     e( 69 - 69) =      0.27531  eV     1   --> G_2            
     e( 70 - 70) =      0.27570  eV     1   --> G_2            
     e( 71 - 71) =      0.44784  eV     1   --> G_2            
     e( 72 - 72) =      0.44904  eV     1   --> G_2            
     e( 73 - 73) =      0.74299  eV     1   --> G_2            
     e( 74 - 74) =      0.74348  eV     1   --> G_2            
     e( 75 - 75) =      0.89718  eV     1   --> G_2            
     e( 76 - 76) =      0.89755  eV     1   --> G_2            
     e( 77 - 77) =      1.19578  eV     1   --> G_2            
     e( 78 - 78) =      1.19611  eV     1   --> G_2            
     e( 79 - 79) =      1.81695  eV     1   --> G_2            
     e( 80 - 80) =      1.81737  eV     1   --> G_2            
     e( 81 - 81) =      2.42937  eV     1   --> G_2            
     e( 82 - 82) =      2.42959  eV     1   --> G_2            
     e( 83 - 83) =      2.74231  eV     1   --> G_2            
     e( 84 - 84) =      2.74278  eV     1   --> G_2            
     e( 85 - 85) =      3.09003  eV     1   --> G_2            
     e( 86 - 86) =      3.09054  eV     1   --> G_2            
     e( 87 - 87) =      3.74180  eV     1   --> G_2            
     e( 88 - 88) =      3.74199  eV     1   --> G_2            
     e( 89 - 89) =      3.97759  eV     1   --> G_2            
     e( 90 - 90) =      3.97772  eV     1   --> G_2            
     e( 91 - 92) =      6.06193  eV     2   -->   2 G_2            
     e( 93 - 94) =      6.22719  eV     2   -->   2 G_2            
     e( 95 - 96) =      6.89359  eV     2   -->   2 G_2            
     e( 97 - 98) =      7.06090  eV     2   -->   2 G_2            
     e( 99 -100) =      7.38588  eV     2   -->   2 G_2            

 **************************************************************************

 **************************************************************************

                    xk=(   0.01429,   0.02557,   0.00000  )

     Band symmetry, C_1 (1)     double point group:

     e(  1 -  2) =    -35.70291  eV     2   -->   2 G_2            
     e(  3 -  4) =    -35.70135  eV     2   -->   2 G_2            
     e(  5 -  6) =    -35.66648  eV     2   -->   2 G_2            
     e(  7 -  8) =    -35.66494  eV     2   -->   2 G_2            
     e(  9 - 10) =    -35.60199  eV     2   -->   2 G_2            
     e( 11 - 12) =    -35.57190  eV     2   -->   2 G_2            
     e( 13 - 14) =    -34.24502  eV     2   -->   2 G_2            
     e( 15 - 16) =    -34.24344  eV     2   -->   2 G_2            
     e( 17 - 18) =    -34.21459  eV     2   -->   2 G_2            
     e( 19 - 20) =    -34.21306  eV     2   -->   2 G_2            
     e( 21 - 22) =    -34.19768  eV     2   -->   2 G_2            
     e( 23 - 24) =    -34.19612  eV     2   -->   2 G_2            
     e( 25 - 26) =    -34.14109  eV     2   -->   2 G_2            
     e( 27 - 28) =    -34.12218  eV     2   -->   2 G_2            
     e( 29 - 30) =    -34.10145  eV     2   -->   2 G_2            
     e( 31 - 32) =    -28.36137  eV     2   -->   2 G_2            
     e( 33 - 34) =    -28.36026  eV     2   -->   2 G_2            
     e( 35 - 36) =    -28.35265  eV     2   -->   2 G_2            
     e( 37 - 38) =    -28.35157  eV     2   -->   2 G_2            
     e( 39 - 40) =    -27.12170  eV     2   -->   2 G_2            
     e( 41 - 42) =    -27.12058  eV     2   -->   2 G_2            
     e( 43 - 44) =    -27.11377  eV     2   -->   2 G_2            
     e( 45 - 46) =    -27.11267  eV     2   -->   2 G_2            
     e( 47 - 48) =    -27.10956  eV     2   -->   2 G_2            
     e( 49 - 50) =    -27.10848  eV     2   -->   2 G_2            
     e( 51 - 52) =    -10.74403  eV     2   -->   2 G_2            
     e( 53 - 54) =    -10.20175  eV     2   -->   2 G_2            
     e( 55 - 56) =     -9.13585  eV     2   -->   2 G_2            
     e( 57 - 58) =     -6.41340  eV     2   -->   2 G_2            
     e( 59 - 60) =     -5.10514  eV     2   -->   2 G_2            
     e( 61 - 62) =     -0.73843  eV     2   -->   2 G_2            
     e( 63 - 63) =     -0.38855  eV     1   --> G_2            
     e( 64 - 64) =     -0.38820  eV     1   --> G_2            
     e( 65 - 65) =     -0.00114  eV     1   --> G_2            
     e( 66 - 66) =     -0.00075  eV     1   --> G_2            
     e( 67 - 67) =      0.13978  eV     1   --> G_2            
     e( 68 - 68) =      0.14058  eV     1   --> G_2            
     e( 69 - 69) =      0.29013  eV     1   --> G_2            
     e( 70 - 70) =      0.29051  eV     1   --> G_2            
     e( 71 - 71) =      0.44048  eV     1   --> G_2            
     e( 72 - 72) =      0.44163  eV     1   --> G_2            
     e( 73 - 73) =      0.72998  eV     1   --> G_2            
     e( 74 - 74) =      0.73036  eV     1   --> G_2            
     e( 75 - 75) =      0.90950  eV     1   --> G_2            
     e( 76 - 76) =      0.90977  eV     1   --> G_2            
     e( 77 - 77) =      1.17345  eV     1   --> G_2            
     e( 78 - 78) =      1.17370  eV     1   --> G_2            
     e( 79 - 79) =      1.77604  eV     1   --> G_2            
     e( 80 - 80) =      1.77638  eV     1   --> G_2            
     e( 81 - 81) =      2.42992  eV     1   --> G_2            
     e( 82 - 82) =      2.43009  eV     1   --> G_2            
     e( 83 - 83) =      2.76667  eV     1   --> G_2            
     e( 84 - 84) =      2.76715  eV     1   --> G_2            
     e( 85 - 85) =      3.05438  eV     1   --> G_2            
     e( 86 - 86) =      3.05487  eV     1   --> G_2            
     e( 87 - 87) =      3.72512  eV     1   --> G_2            
     e( 88 - 88) =      3.72527  eV     1   --> G_2            
     e( 89 - 89) =      3.97572  eV     1   --> G_2            
     e( 90 - 90) =      3.97582  eV     1   --> G_2            
     e( 91 - 92) =      6.05499  eV     2   -->   2 G_2            
     e( 93 - 94) =      6.22628  eV     2   -->   2 G_2            
     e( 95 - 96) =      6.89301  eV     2   -->   2 G_2            
     e( 97 - 98) =      7.06691  eV     2   -->   2 G_2            
     e( 99 -100) =      7.38675  eV     2   -->   2 G_2            

 **************************************************************************

 **************************************************************************

                    xk=(   0.00952,   0.01705,   0.00000  )

     Band symmetry, C_1 (1)     double point group:

     e(  1 -  2) =    -35.70291  eV     2   -->   2 G_2            
     e(  3 -  4) =    -35.70135  eV     2   -->   2 G_2            
     e(  5 -  6) =    -35.66648  eV     2   -->   2 G_2            
     e(  7 -  8) =    -35.66494  eV     2   -->   2 G_2            
     e(  9 - 10) =    -35.60199  eV     2   -->   2 G_2            
     e( 11 - 12) =    -35.57190  eV     2   -->   2 G_2            
     e( 13 - 14) =    -34.24502  eV     2   -->   2 G_2            
     e( 15 - 16) =    -34.24344  eV     2   -->   2 G_2            
     e( 17 - 18) =    -34.21459  eV     2   -->   2 G_2            
     e( 19 - 20) =    -34.21306  eV     2   -->   2 G_2            
     e( 21 - 22) =    -34.19768  eV     2   -->   2 G_2            
     e( 23 - 24) =    -34.19612  eV     2   -->   2 G_2            
     e( 25 - 26) =    -34.14109  eV     2   -->   2 G_2            
     e( 27 - 28) =    -34.12218  eV     2   -->   2 G_2            
     e( 29 - 30) =    -34.10146  eV     2   -->   2 G_2            
     e( 31 - 32) =    -28.36137  eV     2   -->   2 G_2            
     e( 33 - 34) =    -28.36026  eV     2   -->   2 G_2            
     e( 35 - 36) =    -28.35265  eV     2   -->   2 G_2            
     e( 37 - 38) =    -28.35157  eV     2   -->   2 G_2            
     e( 39 - 40) =    -27.12170  eV     2   -->   2 G_2            
     e( 41 - 42) =    -27.12059  eV     2   -->   2 G_2            
     e( 43 - 44) =    -27.11376  eV     2   -->   2 G_2            
     e( 45 - 46) =    -27.11267  eV     2   -->   2 G_2            
     e( 47 - 48) =    -27.10955  eV     2   -->   2 G_2            
     e( 49 - 50) =    -27.10847  eV     2   -->   2 G_2            
     e( 51 - 52) =    -10.74683  eV     2   -->   2 G_2            
     e( 53 - 54) =    -10.20429  eV     2   -->   2 G_2            
     e( 55 - 56) =     -9.13732  eV     2   -->   2 G_2            
     e( 57 - 58) =     -6.41268  eV     2   -->   2 G_2            
     e( 59 - 60) =     -5.09973  eV     2   -->   2 G_2            
     e( 61 - 62) =     -0.73316  eV     2   -->   2 G_2            
     e( 63 - 63) =     -0.35584  eV     1   --> G_2            
     e( 64 - 64) =     -0.35558  eV     1   --> G_2            
     e( 65 - 65) =     -0.00654  eV     1   --> G_2            
     e( 66 - 66) =     -0.00627  eV     1   --> G_2            
     e( 67 - 67) =      0.17958  eV     1   --> G_2            
     e( 68 - 68) =      0.18024  eV     1   --> G_2            
     e( 69 - 69) =      0.30594  eV     1   --> G_2            
     e( 70 - 70) =      0.30630  eV     1   --> G_2            
     e( 71 - 71) =      0.42405  eV     1   --> G_2            
     e( 72 - 72) =      0.42507  eV     1   --> G_2            
     e( 73 - 73) =      0.71904  eV     1   --> G_2            
     e( 74 - 74) =      0.71930  eV     1   --> G_2            
     e( 75 - 75) =      0.92016  eV     1   --> G_2            
     e( 76 - 76) =      0.92033  eV     1   --> G_2            
     e( 77 - 77) =      1.16076  eV     1   --> G_2            
     e( 78 - 78) =      1.16092  eV     1   --> G_2            
     e( 79 - 79) =      1.74156  eV     1   --> G_2            
     e( 80 - 80) =      1.74180  eV     1   --> G_2            
     e( 81 - 81) =      2.43024  eV     1   --> G_2            
     e( 82 - 82) =      2.43035  eV     1   --> G_2            
     e( 83 - 83) =      2.79543  eV     1   --> G_2            
     e( 84 - 84) =      2.79587  eV     1   --> G_2            
     e( 85 - 85) =      3.01911  eV     1   --> G_2            
     e( 86 - 86) =      3.01954  eV     1   --> G_2            
     e( 87 - 87) =      3.71238  eV     1   --> G_2            
     e( 88 - 88) =      3.71248  eV     1   --> G_2            
     e( 89 - 90) =      3.97524  eV     2   -->   2 G_2            
     e( 91 - 92) =      6.04998  eV     2   -->   2 G_2            
     e( 93 - 94) =      6.22561  eV     2   -->   2 G_2            
     e( 95 - 96) =      6.89222  eV     2   -->   2 G_2            
     e( 97 - 98) =      7.07107  eV     2   -->   2 G_2            
     e( 99 -100) =      7.38761  eV     2   -->   2 G_2            

 **************************************************************************

 **************************************************************************

                    xk=(   0.00476,   0.00852,   0.00000  )

     Band symmetry, C_1 (1)     double point group:

     e(  1 -  2) =    -35.70292  eV     2   -->   2 G_2            
     e(  3 -  4) =    -35.70136  eV     2   -->   2 G_2            
     e(  5 -  6) =    -35.66648  eV     2   -->   2 G_2            
     e(  7 -  8) =    -35.66494  eV     2   -->   2 G_2            
     e(  9 - 10) =    -35.60199  eV     2   -->   2 G_2            
     e( 11 - 12) =    -35.57190  eV     2   -->   2 G_2            
     e( 13 - 14) =    -34.24502  eV     2   -->   2 G_2            
     e( 15 - 16) =    -34.24345  eV     2   -->   2 G_2            
     e( 17 - 18) =    -34.21458  eV     2   -->   2 G_2            
     e( 19 - 20) =    -34.21306  eV     2   -->   2 G_2            
     e( 21 - 22) =    -34.19768  eV     2   -->   2 G_2            
     e( 23 - 24) =    -34.19612  eV     2   -->   2 G_2            
     e( 25 - 26) =    -34.14109  eV     2   -->   2 G_2            
     e( 27 - 28) =    -34.12218  eV     2   -->   2 G_2            
     e( 29 - 30) =    -34.10146  eV     2   -->   2 G_2            
     e( 31 - 32) =    -28.36137  eV     2   -->   2 G_2            
     e( 33 - 34) =    -28.36026  eV     2   -->   2 G_2            
     e( 35 - 36) =    -28.35264  eV     2   -->   2 G_2            
     e( 37 - 38) =    -28.35156  eV     2   -->   2 G_2            
     e( 39 - 40) =    -27.12171  eV     2   -->   2 G_2            
     e( 41 - 42) =    -27.12059  eV     2   -->   2 G_2            
     e( 43 - 44) =    -27.11376  eV     2   -->   2 G_2            
     e( 45 - 46) =    -27.11266  eV     2   -->   2 G_2            
     e( 47 - 48) =    -27.10955  eV     2   -->   2 G_2            
     e( 49 - 50) =    -27.10847  eV     2   -->   2 G_2            
     e( 51 - 52) =    -10.74852  eV     2   -->   2 G_2            
     e( 53 - 54) =    -10.20581  eV     2   -->   2 G_2            
     e( 55 - 56) =     -9.13824  eV     2   -->   2 G_2            
     e( 57 - 58) =     -6.41226  eV     2   -->   2 G_2            
     e( 59 - 60) =     -5.09649  eV     2   -->   2 G_2            
     e( 61 - 62) =     -0.73001  eV     2   -->   2 G_2            
     e( 63 - 63) =     -0.33464  eV     1   --> G_2            
     e( 64 - 64) =     -0.33450  eV     1   --> G_2            
     e( 65 - 65) =     -0.01164  eV     1   --> G_2            
     e( 66 - 66) =     -0.01149  eV     1   --> G_2            
     e( 67 - 67) =      0.20718  eV     1   --> G_2            
     e( 68 - 68) =      0.20757  eV     1   --> G_2            
     e( 69 - 69) =      0.32377  eV     1   --> G_2            
     e( 70 - 70) =      0.32411  eV     1   --> G_2            
     e( 71 - 71) =      0.40270  eV     1   --> G_2            
     e( 72 - 72) =      0.40345  eV     1   --> G_2            
     e( 73 - 73) =      0.71217  eV     1   --> G_2            
     e( 74 - 74) =      0.71230  eV     1   --> G_2            
     e( 75 - 76) =      0.92625  eV     2   -->   2 G_2            
     e( 77 - 78) =      1.15593  eV     2   -->   2 G_2            
     e( 79 - 79) =      1.71818  eV     1   --> G_2            
     e( 80 - 80) =      1.71830  eV     1   --> G_2            
     e( 81 - 82) =      2.43038  eV     2   -->   2 G_2            
     e( 83 - 83) =      2.82203  eV     1   --> G_2            
     e( 84 - 84) =      2.82233  eV     1   --> G_2            
     e( 85 - 85) =      2.98933  eV     1   --> G_2            
     e( 86 - 86) =      2.98962  eV     1   --> G_2            
     e( 87 - 88) =      3.70445  eV     2   -->   2 G_2            
     e( 89 - 90) =      3.97529  eV     2   -->   2 G_2            
     e( 91 - 92) =      6.04695  eV     2   -->   2 G_2            
     e( 93 - 94) =      6.22521  eV     2   -->   2 G_2            
     e( 95 - 96) =      6.89160  eV     2   -->   2 G_2            
     e( 97 - 98) =      7.07349  eV     2   -->   2 G_2            
     e( 99 -100) =      7.38824  eV     2   -->   2 G_2            

 **************************************************************************

 **************************************************************************

                    xk=(   0.00000,   0.00000,   0.00000  )

     Band symmetry, C_1 (1)     double point group:

     e(  1 -  2) =    -35.70292  eV     2   -->   2 G_2            
     e(  3 -  4) =    -35.70135  eV     2   -->   2 G_2            
     e(  5 -  6) =    -35.66648  eV     2   -->   2 G_2            
     e(  7 -  8) =    -35.66494  eV     2   -->   2 G_2            
     e(  9 - 10) =    -35.60199  eV     2   -->   2 G_2            
     e( 11 - 12) =    -35.57190  eV     2   -->   2 G_2            
     e( 13 - 14) =    -34.24502  eV     2   -->   2 G_2            
     e( 15 - 16) =    -34.24345  eV     2   -->   2 G_2            
     e( 17 - 18) =    -34.21458  eV     2   -->   2 G_2            
     e( 19 - 20) =    -34.21306  eV     2   -->   2 G_2            
     e( 21 - 22) =    -34.19768  eV     2   -->   2 G_2            
     e( 23 - 24) =    -34.19612  eV     2   -->   2 G_2            
     e( 25 - 26) =    -34.14109  eV     2   -->   2 G_2            
     e( 27 - 28) =    -34.12218  eV     2   -->   2 G_2            
     e( 29 - 30) =    -34.10146  eV     2   -->   2 G_2            
     e( 31 - 32) =    -28.36137  eV     2   -->   2 G_2            
     e( 33 - 34) =    -28.36025  eV     2   -->   2 G_2            
     e( 35 - 36) =    -28.35264  eV     2   -->   2 G_2            
     e( 37 - 38) =    -28.35156  eV     2   -->   2 G_2            
     e( 39 - 40) =    -27.12171  eV     2   -->   2 G_2            
     e( 41 - 42) =    -27.12059  eV     2   -->   2 G_2            
     e( 43 - 44) =    -27.11375  eV     2   -->   2 G_2            
     e( 45 - 46) =    -27.11266  eV     2   -->   2 G_2            
     e( 47 - 48) =    -27.10954  eV     2   -->   2 G_2            
     e( 49 - 50) =    -27.10846  eV     2   -->   2 G_2            
     e( 51 - 52) =    -10.74907  eV     2   -->   2 G_2            
     e( 53 - 54) =    -10.20632  eV     2   -->   2 G_2            
     e( 55 - 56) =     -9.13851  eV     2   -->   2 G_2            
     e( 57 - 58) =     -6.41211  eV     2   -->   2 G_2            
     e( 59 - 60) =     -5.09537  eV     2   -->   2 G_2            
     e( 61 - 62) =     -0.72896  eV     2   -->   2 G_2            
     e( 63 - 64) =     -0.32720  eV     2   -->   2 G_2            
     e( 65 - 66) =     -0.01364  eV     2   -->   2 G_2            
     e( 67 - 68) =      0.21706  eV     2   -->   2 G_2            
     e( 69 - 70) =      0.33531  eV     2   -->   2 G_2            
     e( 71 - 72) =      0.38999  eV     2   -->   2 G_2            
     e( 73 - 74) =      0.70990  eV     2   -->   2 G_2            
     e( 75 - 76) =      0.92810  eV     2   -->   2 G_2            
     e( 77 - 78) =      1.15503  eV     2   -->   2 G_2            
     e( 79 - 80) =      1.70989  eV     2   -->   2 G_2            
     e( 81 - 82) =      2.43043  eV     2   -->   2 G_2            
     e( 83 - 84) =      2.83422  eV     2   -->   2 G_2            
     e( 85 - 86) =      2.97643  eV     2   -->   2 G_2            
     e( 87 - 88) =      3.70178  eV     2   -->   2 G_2            
     e( 89 - 90) =      3.97537  eV     2   -->   2 G_2            
     e( 91 - 92) =      6.04594  eV     2   -->   2 G_2            
     e( 93 - 94) =      6.22508  eV     2   -->   2 G_2            
     e( 95 - 96) =      6.89137  eV     2   -->   2 G_2            
     e( 97 - 98) =      7.07428  eV     2   -->   2 G_2            
     e( 99 -100) =      7.38848  eV     2   -->   2 G_2            

 **************************************************************************

     BANDS        :  22m56.44s CPU  22m 6.48s WALL


   This run was terminated on:   1:31:45  15Aug2025            

=------------------------------------------------------------------------------=
   JOB DONE.
=------------------------------------------------------------------------------=
