
     Program BANDS v.7.4.1 starts on 22Aug2025 at 21:54:13 

     This program is part of the open-source Quantum ESPRESSO suite
     for quantum simulation of materials; please cite
         "P. Giannozzi et al., J. Phys.:Condens. Matter 21 395502 (2009);
         "P. Giannozzi et al., J. Phys.:Condens. Matter 29 465901 (2017);
         "P. Giannozzi et al., J. Chem. Phys. 152 154105 (2020);
          URL http://www.quantum-espresso.org", 
     in publications or presentations arising from this work. More details at
     http://www.quantum-espresso.org/quote

     Parallel version (MPI & OpenMP), running on      48 processor cores
     Number of MPI processes:                24
     Threads/MPI process:                     2

     MPI processes distributed on     2 nodes
     R & G space division:  proc/nbgrp/npool/nimage =      24
     90490 MiB available memory on the printing compute node when the environment starts


     Reading xml data from directory:

     tmp/Sb2Te3-uatsx-c6-soc-2.0.save/
     file Sb.rel-pbe-n-rrkjus_psl.1.0.0.UPF: wavefunction(s)  5S renormalized
     file Te.rel-pbe-n-rrkjus_psl.1.0.0.UPF: wavefunction(s)  5S renormalized

     IMPORTANT: XC functional enforced from input :
     Exchange-correlation= PBE
                           (   1   4   3   4   0   0   0)
     Any further DFT definition will be discarded
     Please, verify this is what you really want


     Parallelization info
     --------------------
     sticks:   dense  smooth     PW     G-vecs:    dense   smooth      PW
     Min          97      39     10                19297     4885     728
     Max          98      40     11                19315     4897     761
     Sum        2329     937    263               463351   117389   17987

     Using Slab Decomposition


     negative rho (up, down):  3.987E-06 0.000E+00
     Reading collected, re-writing distributed wavefunctions
     high-symmetry point:  0.0000 0.0000 0.0000   x coordinate   0.0000
     high-symmetry point:  0.5000 0.2887 0.0000   x coordinate   0.5774
     high-symmetry point:  0.3333 0.5851 0.0000   x coordinate   0.9174
     high-symmetry point:  0.0000 0.0000 0.0000   x coordinate   1.5907

     Plottable bands (eV) written to file ./bands/Sb2Te3-uatsx-c6-soc-2.0.bands.gnu
     Bands written to file ./bands/Sb2Te3-uatsx-c6-soc-2.0.bands

 **************************************************************************

                    xk=(   0.00000,   0.00000,   0.00000  )

     double point group C_1 (1)    
     there are  2 classes and  1 irreducible representations
     the character table:

       E     -E   
                  
G_2    1.00 -1.00

     the symmetry operations in each class and the name of the first element:

     E             1
                                                                 
     -E           -1
                                                                 

     Band symmetry, C_1 (1)     double point group:

     e(  1 -  2) =    -12.58816  eV     2   -->   2 G_2            
     e(  3 -  4) =    -12.06112  eV     2   -->   2 G_2            
     e(  5 -  6) =    -10.97305  eV     2   -->   2 G_2            
     e(  7 -  8) =     -8.22975  eV     2   -->   2 G_2            
     e(  9 - 10) =     -6.83607  eV     2   -->   2 G_2            
     e( 11 - 12) =     -2.46096  eV     2   -->   2 G_2            
     e( 13 - 14) =     -1.99131  eV     2   -->   2 G_2            
     e( 15 - 16) =     -1.71884  eV     2   -->   2 G_2            
     e( 17 - 18) =     -1.46010  eV     2   -->   2 G_2            
     e( 19 - 20) =     -1.38845  eV     2   -->   2 G_2            
     e( 21 - 22) =     -1.28229  eV     2   -->   2 G_2            
     e( 23 - 24) =     -1.03087  eV     2   -->   2 G_2            
     e( 25 - 26) =     -0.68917  eV     2   -->   2 G_2            
     e( 27 - 28) =     -0.54167  eV     2   -->   2 G_2            
     e( 29 - 30) =      0.14599  eV     2   -->   2 G_2            
     e( 31 - 32) =      0.77500  eV     2   -->   2 G_2            
     e( 33 - 34) =      1.11686  eV     2   -->   2 G_2            
     e( 35 - 36) =      1.34079  eV     2   -->   2 G_2            
     e( 37 - 38) =      2.08370  eV     2   -->   2 G_2            
     e( 39 - 40) =      2.23219  eV     2   -->   2 G_2            
     e( 41 - 42) =      4.22478  eV     2   -->   2 G_2            
     e( 43 - 44) =      4.42183  eV     2   -->   2 G_2            
     e( 45 - 46) =      5.01320  eV     2   -->   2 G_2            
     e( 47 - 48) =      5.57645  eV     2   -->   2 G_2            
     e( 49 - 50) =      5.62178  eV     2   -->   2 G_2            
     e( 51 - 52) =      5.87733  eV     2   -->   2 G_2            
     e( 53 - 54) =      6.43597  eV     2   -->   2 G_2            
     e( 55 - 56) =      6.66279  eV     2   -->   2 G_2            
     e( 57 - 58) =      6.79455  eV     2   -->   2 G_2            
     e( 59 - 60) =      6.92012  eV     2   -->   2 G_2            
     e( 61 - 62) =      7.20400  eV     2   -->   2 G_2            
     e( 63 - 64) =      7.65155  eV     2   -->   2 G_2            
     e( 65 - 66) =      7.75697  eV     2   -->   2 G_2            
     e( 67 - 68) =      8.07131  eV     2   -->   2 G_2            
     e( 69 - 70) =      8.15006  eV     2   -->   2 G_2            
     e( 71 - 72) =      8.58988  eV     2   -->   2 G_2            
     e( 73 - 74) =      9.10485  eV     2   -->   2 G_2            
     e( 75 - 76) =      9.38210  eV     2   -->   2 G_2            
     e( 77 - 78) =      9.53870  eV     2   -->   2 G_2            
     e( 79 - 80) =      9.59302  eV     2   -->   2 G_2            
     e( 81 - 82) =      9.74881  eV     2   -->   2 G_2            
     e( 83 - 84) =     10.86843  eV     2   -->   2 G_2            
     e( 85 - 86) =     10.88922  eV     2   -->   2 G_2            
     e( 87 - 88) =     11.94621  eV     2   -->   2 G_2            
     e( 89 - 90) =     12.18909  eV     2   -->   2 G_2            
     e( 91 - 92) =     12.21500  eV     2   -->   2 G_2            
     e( 93 - 94) =     12.32070  eV     2   -->   2 G_2            
     e( 95 - 96) =     12.45367  eV     2   -->   2 G_2            
     e( 97 - 98) =     13.11295  eV     2   -->   2 G_2            
     e( 99 -100) =     13.79298  eV     2   -->   2 G_2            

 **************************************************************************

 **************************************************************************

                    xk=(   0.00714,   0.00412,   0.00000  )

     Band symmetry, C_1 (1)     double point group:

     e(  1 -  2) =    -12.58773  eV     2   -->   2 G_2            
     e(  3 -  4) =    -12.06073  eV     2   -->   2 G_2            
     e(  5 -  6) =    -10.97282  eV     2   -->   2 G_2            
     e(  7 -  8) =     -8.22982  eV     2   -->   2 G_2            
     e(  9 - 10) =     -6.83684  eV     2   -->   2 G_2            
     e( 11 - 12) =     -2.46170  eV     2   -->   2 G_2            
     e( 13 - 13) =     -1.99756  eV     1   --> G_2            
     e( 14 - 14) =     -1.99722  eV     1   --> G_2            
     e( 15 - 15) =     -1.71814  eV     1   --> G_2            
     e( 16 - 16) =     -1.71772  eV     1   --> G_2            
     e( 17 - 17) =     -1.46325  eV     1   --> G_2            
     e( 18 - 18) =     -1.46292  eV     1   --> G_2            
     e( 19 - 19) =     -1.40302  eV     1   --> G_2            
     e( 20 - 20) =     -1.40200  eV     1   --> G_2            
     e( 21 - 21) =     -1.27254  eV     1   --> G_2            
     e( 22 - 22) =     -1.27132  eV     1   --> G_2            
     e( 23 - 23) =     -1.02789  eV     1   --> G_2            
     e( 24 - 24) =     -1.02762  eV     1   --> G_2            
     e( 25 - 25) =     -0.69251  eV     1   --> G_2            
     e( 26 - 26) =     -0.69231  eV     1   --> G_2            
     e( 27 - 27) =     -0.53865  eV     1   --> G_2            
     e( 28 - 28) =     -0.53854  eV     1   --> G_2            
     e( 29 - 29) =      0.15214  eV     1   --> G_2            
     e( 30 - 30) =      0.15229  eV     1   --> G_2            
     e( 31 - 31) =      0.77461  eV     1   --> G_2            
     e( 32 - 32) =      0.77476  eV     1   --> G_2            
     e( 33 - 33) =      1.11085  eV     1   --> G_2            
     e( 34 - 34) =      1.11115  eV     1   --> G_2            
     e( 35 - 35) =      1.34725  eV     1   --> G_2            
     e( 36 - 36) =      1.34765  eV     1   --> G_2            
     e( 37 - 37) =      2.08598  eV     1   --> G_2            
     e( 38 - 38) =      2.08609  eV     1   --> G_2            
     e( 39 - 40) =      2.23176  eV     2   -->   2 G_2            
     e( 41 - 42) =      4.22556  eV     2   -->   2 G_2            
     e( 43 - 44) =      4.42199  eV     2   -->   2 G_2            
     e( 45 - 46) =      5.01344  eV     2   -->   2 G_2            
     e( 47 - 48) =      5.57423  eV     2   -->   2 G_2            
     e( 49 - 50) =      5.62093  eV     2   -->   2 G_2            
     e( 51 - 52) =      5.87766  eV     2   -->   2 G_2            
     e( 53 - 54) =      6.43886  eV     2   -->   2 G_2            
     e( 55 - 55) =      6.66159  eV     1   --> G_2            
     e( 56 - 56) =      6.66189  eV     1   --> G_2            
     e( 57 - 57) =      6.79270  eV     1   --> G_2            
     e( 58 - 58) =      6.79320  eV     1   --> G_2            
     e( 59 - 59) =      6.91982  eV     1   --> G_2            
     e( 60 - 60) =      6.92002  eV     1   --> G_2            
     e( 61 - 62) =      7.20280  eV     2   -->   2 G_2            
     e( 63 - 64) =      7.65741  eV     2   -->   2 G_2            
     e( 65 - 66) =      7.75928  eV     2   -->   2 G_2            
     e( 67 - 68) =      8.06991  eV     2   -->   2 G_2            
     e( 69 - 70) =      8.15264  eV     2   -->   2 G_2            
     e( 71 - 72) =      8.59216  eV     2   -->   2 G_2            
     e( 73 - 74) =      9.10418  eV     2   -->   2 G_2            
     e( 75 - 75) =      9.37516  eV     1   --> G_2            
     e( 76 - 76) =      9.37550  eV     1   --> G_2            
     e( 77 - 77) =      9.50609  eV     1   --> G_2            
     e( 78 - 78) =      9.50658  eV     1   --> G_2            
     e( 79 - 79) =      9.62902  eV     1   --> G_2            
     e( 80 - 80) =      9.62930  eV     1   --> G_2            
     e( 81 - 81) =      9.75652  eV     1   --> G_2            
     e( 82 - 82) =      9.75668  eV     1   --> G_2            
     e( 83 - 84) =     10.86716  eV     2   -->   2 G_2            
     e( 85 - 86) =     10.89112  eV     2   -->   2 G_2            
     e( 87 - 88) =     11.93206  eV     2   -->   2 G_2            
     e( 89 - 89) =     12.17263  eV     1   --> G_2            
     e( 90 - 90) =     12.17286  eV     1   --> G_2            
     e( 91 - 91) =     12.22609  eV     1   --> G_2            
     e( 92 - 92) =     12.22650  eV     1   --> G_2            
     e( 93 - 93) =     12.33471  eV     1   --> G_2            
     e( 94 - 94) =     12.33489  eV     1   --> G_2            
     e( 95 - 96) =     12.45775  eV     2   -->   2 G_2            
     e( 97 - 98) =     13.11617  eV     2   -->   2 G_2            
     e( 99 -100) =     13.77156  eV     2   -->   2 G_2            

 **************************************************************************

 **************************************************************************

                    xk=(   0.01429,   0.00825,   0.00000  )

     Band symmetry, C_1 (1)     double point group:

     e(  1 -  2) =    -12.58644  eV     2   -->   2 G_2            
     e(  3 -  4) =    -12.05955  eV     2   -->   2 G_2            
     e(  5 -  6) =    -10.97210  eV     2   -->   2 G_2            
     e(  7 -  8) =     -8.23002  eV     2   -->   2 G_2            
     e(  9 - 10) =     -6.83917  eV     2   -->   2 G_2            
     e( 11 - 12) =     -2.46390  eV     2   -->   2 G_2            
     e( 13 - 13) =     -2.01529  eV     1   --> G_2            
     e( 14 - 14) =     -2.01464  eV     1   --> G_2            
     e( 15 - 15) =     -1.71626  eV     1   --> G_2            
     e( 16 - 16) =     -1.71547  eV     1   --> G_2            
     e( 17 - 17) =     -1.47580  eV     1   --> G_2            
     e( 18 - 18) =     -1.47487  eV     1   --> G_2            
     e( 19 - 19) =     -1.43064  eV     1   --> G_2            
     e( 20 - 20) =     -1.42942  eV     1   --> G_2            
     e( 21 - 21) =     -1.25294  eV     1   --> G_2            
     e( 22 - 22) =     -1.25121  eV     1   --> G_2            
     e( 23 - 23) =     -1.01892  eV     1   --> G_2            
     e( 24 - 24) =     -1.01840  eV     1   --> G_2            
     e( 25 - 25) =     -0.70210  eV     1   --> G_2            
     e( 26 - 26) =     -0.70173  eV     1   --> G_2            
     e( 27 - 27) =     -0.52899  eV     1   --> G_2            
     e( 28 - 28) =     -0.52877  eV     1   --> G_2            
     e( 29 - 29) =      0.17000  eV     1   --> G_2            
     e( 30 - 30) =      0.17030  eV     1   --> G_2            
     e( 31 - 31) =      0.77353  eV     1   --> G_2            
     e( 32 - 32) =      0.77381  eV     1   --> G_2            
     e( 33 - 33) =      1.09569  eV     1   --> G_2            
     e( 34 - 34) =      1.09621  eV     1   --> G_2            
     e( 35 - 35) =      1.36478  eV     1   --> G_2            
     e( 36 - 36) =      1.36548  eV     1   --> G_2            
     e( 37 - 37) =      2.09285  eV     1   --> G_2            
     e( 38 - 38) =      2.09306  eV     1   --> G_2            
     e( 39 - 39) =      2.23067  eV     1   --> G_2            
     e( 40 - 40) =      2.23083  eV     1   --> G_2            
     e( 41 - 42) =      4.22792  eV     2   -->   2 G_2            
     e( 43 - 44) =      4.42248  eV     2   -->   2 G_2            
     e( 45 - 46) =      5.01415  eV     2   -->   2 G_2            
     e( 47 - 48) =      5.56710  eV     2   -->   2 G_2            
     e( 49 - 50) =      5.61900  eV     2   -->   2 G_2            
     e( 51 - 52) =      5.87880  eV     2   -->   2 G_2            
     e( 53 - 54) =      6.44728  eV     2   -->   2 G_2            
     e( 55 - 55) =      6.65812  eV     1   --> G_2            
     e( 56 - 56) =      6.65872  eV     1   --> G_2            
     e( 57 - 57) =      6.78733  eV     1   --> G_2            
     e( 58 - 58) =      6.78828  eV     1   --> G_2            
     e( 59 - 59) =      6.92019  eV     1   --> G_2            
     e( 60 - 60) =      6.92056  eV     1   --> G_2            
     e( 61 - 62) =      7.19947  eV     2   -->   2 G_2            
     e( 63 - 64) =      7.67409  eV     2   -->   2 G_2            
     e( 65 - 66) =      7.76615  eV     2   -->   2 G_2            
     e( 67 - 68) =      8.06608  eV     2   -->   2 G_2            
     e( 69 - 70) =      8.16035  eV     2   -->   2 G_2            
     e( 71 - 72) =      8.59904  eV     2   -->   2 G_2            
     e( 73 - 73) =      9.10174  eV     1   --> G_2            
     e( 74 - 74) =      9.10184  eV     1   --> G_2            
     e( 75 - 75) =      9.35607  eV     1   --> G_2            
     e( 76 - 76) =      9.35666  eV     1   --> G_2            
     e( 77 - 77) =      9.46178  eV     1   --> G_2            
     e( 78 - 78) =      9.46241  eV     1   --> G_2            
     e( 79 - 79) =      9.68461  eV     1   --> G_2            
     e( 80 - 80) =      9.68498  eV     1   --> G_2            
     e( 81 - 81) =      9.77879  eV     1   --> G_2            
     e( 82 - 82) =      9.77912  eV     1   --> G_2            
     e( 83 - 84) =     10.86411  eV     2   -->   2 G_2            
     e( 85 - 86) =     10.89610  eV     2   -->   2 G_2            
     e( 87 - 88) =     11.89578  eV     2   -->   2 G_2            
     e( 89 - 89) =     12.13718  eV     1   --> G_2            
     e( 90 - 90) =     12.13732  eV     1   --> G_2            
     e( 91 - 91) =     12.25131  eV     1   --> G_2            
     e( 92 - 92) =     12.25170  eV     1   --> G_2            
     e( 93 - 93) =     12.36460  eV     1   --> G_2            
     e( 94 - 94) =     12.36486  eV     1   --> G_2            
     e( 95 - 96) =     12.47175  eV     2   -->   2 G_2            
     e( 97 - 98) =     13.12429  eV     2   -->   2 G_2            
     e( 99 -100) =     13.71848  eV     2   -->   2 G_2            

 **************************************************************************

 **************************************************************************

                    xk=(   0.02143,   0.01237,   0.00000  )

     Band symmetry, C_1 (1)     double point group:

     e(  1 -  2) =    -12.58429  eV     2   -->   2 G_2            
     e(  3 -  4) =    -12.05759  eV     2   -->   2 G_2            
     e(  5 -  6) =    -10.97091  eV     2   -->   2 G_2            
     e(  7 -  8) =     -8.23036  eV     2   -->   2 G_2            
     e(  9 - 10) =     -6.84306  eV     2   -->   2 G_2            
     e( 11 - 11) =     -2.46760  eV     1   --> G_2            
     e( 12 - 12) =     -2.46748  eV     1   --> G_2            
     e( 13 - 13) =     -2.04287  eV     1   --> G_2            
     e( 14 - 14) =     -2.04199  eV     1   --> G_2            
     e( 15 - 15) =     -1.71473  eV     1   --> G_2            
     e( 16 - 16) =     -1.71368  eV     1   --> G_2            
     e( 17 - 17) =     -1.50646  eV     1   --> G_2            
     e( 18 - 18) =     -1.50489  eV     1   --> G_2            
     e( 19 - 19) =     -1.45059  eV     1   --> G_2            
     e( 20 - 20) =     -1.44952  eV     1   --> G_2            
     e( 21 - 21) =     -1.23520  eV     1   --> G_2            
     e( 22 - 22) =     -1.23328  eV     1   --> G_2            
     e( 23 - 23) =     -1.00495  eV     1   --> G_2            
     e( 24 - 24) =     -1.00421  eV     1   --> G_2            
     e( 25 - 25) =     -0.71668  eV     1   --> G_2            
     e( 26 - 26) =     -0.71614  eV     1   --> G_2            
     e( 27 - 27) =     -0.51209  eV     1   --> G_2            
     e( 28 - 28) =     -0.51176  eV     1   --> G_2            
     e( 29 - 29) =      0.19753  eV     1   --> G_2            
     e( 30 - 30) =      0.19798  eV     1   --> G_2            
     e( 31 - 31) =      0.77163  eV     1   --> G_2            
     e( 32 - 32) =      0.77202  eV     1   --> G_2            
     e( 33 - 33) =      1.07654  eV     1   --> G_2            
     e( 34 - 34) =      1.07717  eV     1   --> G_2            
     e( 35 - 35) =      1.38891  eV     1   --> G_2            
     e( 36 - 36) =      1.38982  eV     1   --> G_2            
     e( 37 - 37) =      2.10391  eV     1   --> G_2            
     e( 38 - 38) =      2.10422  eV     1   --> G_2            
     e( 39 - 39) =      2.22928  eV     1   --> G_2            
     e( 40 - 40) =      2.22953  eV     1   --> G_2            
     e( 41 - 42) =      4.23184  eV     2   -->   2 G_2            
     e( 43 - 44) =      4.42328  eV     2   -->   2 G_2            
     e( 45 - 46) =      5.01524  eV     2   -->   2 G_2            
     e( 47 - 48) =      5.55428  eV     2   -->   2 G_2            
     e( 49 - 50) =      5.61715  eV     2   -->   2 G_2            
     e( 51 - 52) =      5.88107  eV     2   -->   2 G_2            
     e( 53 - 54) =      6.46051  eV     2   -->   2 G_2            
     e( 55 - 55) =      6.65175  eV     1   --> G_2            
     e( 56 - 56) =      6.65262  eV     1   --> G_2            
     e( 57 - 57) =      6.77823  eV     1   --> G_2            
     e( 58 - 58) =      6.77953  eV     1   --> G_2            
     e( 59 - 59) =      6.92350  eV     1   --> G_2            
     e( 60 - 60) =      6.92396  eV     1   --> G_2            
     e( 61 - 62) =      7.19460  eV     2   -->   2 G_2            
     e( 63 - 64) =      7.69904  eV     2   -->   2 G_2            
     e( 65 - 66) =      7.77729  eV     2   -->   2 G_2            
     e( 67 - 68) =      8.06079  eV     2   -->   2 G_2            
     e( 69 - 70) =      8.17312  eV     2   -->   2 G_2            
     e( 71 - 72) =      8.61072  eV     2   -->   2 G_2            
     e( 73 - 73) =      9.09610  eV     1   --> G_2            
     e( 74 - 74) =      9.09625  eV     1   --> G_2            
     e( 75 - 75) =      9.32860  eV     1   --> G_2            
     e( 76 - 76) =      9.32928  eV     1   --> G_2            
     e( 77 - 77) =      9.42320  eV     1   --> G_2            
     e( 78 - 78) =      9.42383  eV     1   --> G_2            
     e( 79 - 79) =      9.74160  eV     1   --> G_2            
     e( 80 - 80) =      9.74217  eV     1   --> G_2            
     e( 81 - 81) =      9.81348  eV     1   --> G_2            
     e( 82 - 82) =      9.81402  eV     1   --> G_2            
     e( 83 - 84) =     10.86022  eV     2   -->   2 G_2            
     e( 85 - 86) =     10.90320  eV     2   -->   2 G_2            
     e( 87 - 88) =     11.84741  eV     2   -->   2 G_2            
     e( 89 - 90) =     12.09528  eV     2   -->   2 G_2            
     e( 91 - 91) =     12.27754  eV     1   --> G_2            
     e( 92 - 92) =     12.27788  eV     1   --> G_2            
     e( 93 - 93) =     12.39880  eV     1   --> G_2            
     e( 94 - 94) =     12.39908  eV     1   --> G_2            
     e( 95 - 95) =     12.49834  eV     1   --> G_2            
     e( 96 - 96) =     12.49845  eV     1   --> G_2            
     e( 97 - 98) =     13.13233  eV     2   -->   2 G_2            
     e( 99 -100) =     13.65469  eV     2   -->   2 G_2            

 **************************************************************************

 **************************************************************************

                    xk=(   0.02857,   0.01650,   0.00000  )

     Band symmetry, C_1 (1)     double point group:

     e(  1 -  2) =    -12.58128  eV     2   -->   2 G_2            
     e(  3 -  4) =    -12.05484  eV     2   -->   2 G_2            
     e(  5 -  6) =    -10.96925  eV     2   -->   2 G_2            
     e(  7 -  8) =     -8.23085  eV     2   -->   2 G_2            
     e(  9 - 10) =     -6.84849  eV     2   -->   2 G_2            
     e( 11 - 11) =     -2.47283  eV     1   --> G_2            
     e( 12 - 12) =     -2.47269  eV     1   --> G_2            
     e( 13 - 13) =     -2.07849  eV     1   --> G_2            
     e( 14 - 14) =     -2.07744  eV     1   --> G_2            
     e( 15 - 15) =     -1.71528  eV     1   --> G_2            
     e( 16 - 16) =     -1.71406  eV     1   --> G_2            
     e( 17 - 17) =     -1.55046  eV     1   --> G_2            
     e( 18 - 18) =     -1.54864  eV     1   --> G_2            
     e( 19 - 19) =     -1.46253  eV     1   --> G_2            
     e( 20 - 20) =     -1.46161  eV     1   --> G_2            
     e( 21 - 21) =     -1.22330  eV     1   --> G_2            
     e( 22 - 22) =     -1.22131  eV     1   --> G_2            
     e( 23 - 23) =     -0.98817  eV     1   --> G_2            
     e( 24 - 24) =     -0.98724  eV     1   --> G_2            
     e( 25 - 25) =     -0.73307  eV     1   --> G_2            
     e( 26 - 26) =     -0.73236  eV     1   --> G_2            
     e( 27 - 27) =     -0.48831  eV     1   --> G_2            
     e( 28 - 28) =     -0.48789  eV     1   --> G_2            
     e( 29 - 29) =      0.23195  eV     1   --> G_2            
     e( 30 - 30) =      0.23253  eV     1   --> G_2            
     e( 31 - 31) =      0.76889  eV     1   --> G_2            
     e( 32 - 32) =      0.76935  eV     1   --> G_2            
     e( 33 - 33) =      1.05807  eV     1   --> G_2            
     e( 34 - 34) =      1.05873  eV     1   --> G_2            
     e( 35 - 35) =      1.41597  eV     1   --> G_2            
     e( 36 - 36) =      1.41703  eV     1   --> G_2            
     e( 37 - 37) =      2.11837  eV     1   --> G_2            
     e( 38 - 38) =      2.11878  eV     1   --> G_2            
     e( 39 - 39) =      2.22837  eV     1   --> G_2            
     e( 40 - 40) =      2.22869  eV     1   --> G_2            
     e( 41 - 42) =      4.23730  eV     2   -->   2 G_2            
     e( 43 - 44) =      4.42440  eV     2   -->   2 G_2            
     e( 45 - 46) =      5.01660  eV     2   -->   2 G_2            
     e( 47 - 48) =      5.53569  eV     2   -->   2 G_2            
     e( 49 - 50) =      5.61609  eV     2   -->   2 G_2            
     e( 51 - 52) =      5.88485  eV     2   -->   2 G_2            
     e( 53 - 54) =      6.47750  eV     2   -->   2 G_2            
     e( 55 - 55) =      6.64138  eV     1   --> G_2            
     e( 56 - 56) =      6.64244  eV     1   --> G_2            
     e( 57 - 57) =      6.76675  eV     1   --> G_2            
     e( 58 - 58) =      6.76823  eV     1   --> G_2            
     e( 59 - 59) =      6.93146  eV     1   --> G_2            
     e( 60 - 60) =      6.93191  eV     1   --> G_2            
     e( 61 - 62) =      7.18891  eV     2   -->   2 G_2            
     e( 63 - 64) =      7.72854  eV     2   -->   2 G_2            
     e( 65 - 66) =      7.79228  eV     2   -->   2 G_2            
     e( 67 - 68) =      8.05570  eV     2   -->   2 G_2            
     e( 69 - 69) =      8.19094  eV     1   --> G_2            
     e( 70 - 70) =      8.19105  eV     1   --> G_2            
     e( 71 - 72) =      8.62743  eV     2   -->   2 G_2            
     e( 73 - 73) =      9.08504  eV     1   --> G_2            
     e( 74 - 74) =      9.08524  eV     1   --> G_2            
     e( 75 - 75) =      9.29813  eV     1   --> G_2            
     e( 76 - 76) =      9.29875  eV     1   --> G_2            
     e( 77 - 77) =      9.39198  eV     1   --> G_2            
     e( 78 - 78) =      9.39250  eV     1   --> G_2            
     e( 79 - 79) =      9.79677  eV     1   --> G_2            
     e( 80 - 80) =      9.79752  eV     1   --> G_2            
     e( 81 - 81) =      9.85859  eV     1   --> G_2            
     e( 82 - 82) =      9.85930  eV     1   --> G_2            
     e( 83 - 84) =     10.85583  eV     2   -->   2 G_2            
     e( 85 - 86) =     10.91206  eV     2   -->   2 G_2            
     e( 87 - 88) =     11.79357  eV     2   -->   2 G_2            
     e( 89 - 90) =     12.05157  eV     2   -->   2 G_2            
     e( 91 - 91) =     12.29642  eV     1   --> G_2            
     e( 92 - 92) =     12.29669  eV     1   --> G_2            
     e( 93 - 93) =     12.43699  eV     1   --> G_2            
     e( 94 - 94) =     12.43723  eV     1   --> G_2            
     e( 95 - 95) =     12.53612  eV     1   --> G_2            
     e( 96 - 96) =     12.53626  eV     1   --> G_2            
     e( 97 - 98) =     13.13149  eV     2   -->   2 G_2            
     e( 99 -100) =     13.59861  eV     2   -->   2 G_2            

 **************************************************************************

 **************************************************************************

                    xk=(   0.03571,   0.02062,   0.00000  )

     Band symmetry, C_1 (1)     double point group:

     e(  1 -  2) =    -12.57742  eV     2   -->   2 G_2            
     e(  3 -  4) =    -12.05132  eV     2   -->   2 G_2            
     e(  5 -  6) =    -10.96712  eV     2   -->   2 G_2            
     e(  7 -  8) =     -8.23148  eV     2   -->   2 G_2            
     e(  9 - 10) =     -6.85547  eV     2   -->   2 G_2            
     e( 11 - 11) =     -2.47971  eV     1   --> G_2            
     e( 12 - 12) =     -2.47955  eV     1   --> G_2            
     e( 13 - 13) =     -2.12057  eV     1   --> G_2            
     e( 14 - 14) =     -2.11937  eV     1   --> G_2            
     e( 15 - 15) =     -1.71926  eV     1   --> G_2            
     e( 16 - 16) =     -1.71799  eV     1   --> G_2            
     e( 17 - 17) =     -1.59900  eV     1   --> G_2            
     e( 18 - 18) =     -1.59706  eV     1   --> G_2            
     e( 19 - 19) =     -1.47299  eV     1   --> G_2            
     e( 20 - 20) =     -1.47217  eV     1   --> G_2            
     e( 21 - 21) =     -1.21819  eV     1   --> G_2            
     e( 22 - 22) =     -1.21621  eV     1   --> G_2            
     e( 23 - 23) =     -0.97203  eV     1   --> G_2            
     e( 24 - 24) =     -0.97095  eV     1   --> G_2            
     e( 25 - 25) =     -0.74645  eV     1   --> G_2            
     e( 26 - 26) =     -0.74559  eV     1   --> G_2            
     e( 27 - 27) =     -0.45896  eV     1   --> G_2            
     e( 28 - 28) =     -0.45848  eV     1   --> G_2            
     e( 29 - 29) =      0.27007  eV     1   --> G_2            
     e( 30 - 30) =      0.27078  eV     1   --> G_2            
     e( 31 - 31) =      0.76576  eV     1   --> G_2            
     e( 32 - 32) =      0.76623  eV     1   --> G_2            
     e( 33 - 33) =      1.04363  eV     1   --> G_2            
     e( 34 - 34) =      1.04427  eV     1   --> G_2            
     e( 35 - 35) =      1.44365  eV     1   --> G_2            
     e( 36 - 36) =      1.44481  eV     1   --> G_2            
     e( 37 - 37) =      2.13462  eV     1   --> G_2            
     e( 38 - 38) =      2.13512  eV     1   --> G_2            
     e( 39 - 39) =      2.22947  eV     1   --> G_2            
     e( 40 - 40) =      2.22987  eV     1   --> G_2            
     e( 41 - 42) =      4.24425  eV     2   -->   2 G_2            
     e( 43 - 44) =      4.42581  eV     2   -->   2 G_2            
     e( 45 - 46) =      5.01803  eV     2   -->   2 G_2            
     e( 47 - 48) =      5.51217  eV     2   -->   2 G_2            
     e( 49 - 50) =      5.61589  eV     2   -->   2 G_2            
     e( 51 - 52) =      5.89043  eV     2   -->   2 G_2            
     e( 53 - 54) =      6.49691  eV     2   -->   2 G_2            
     e( 55 - 55) =      6.62586  eV     1   --> G_2            
     e( 56 - 56) =      6.62699  eV     1   --> G_2            
     e( 57 - 57) =      6.75583  eV     1   --> G_2            
     e( 58 - 58) =      6.75732  eV     1   --> G_2            
     e( 59 - 59) =      6.94431  eV     1   --> G_2            
     e( 60 - 60) =      6.94472  eV     1   --> G_2            
     e( 61 - 62) =      7.18304  eV     2   -->   2 G_2            
     e( 63 - 64) =      7.75801  eV     2   -->   2 G_2            
     e( 65 - 65) =      7.81057  eV     1   --> G_2            
     e( 66 - 66) =      7.81069  eV     1   --> G_2            
     e( 67 - 68) =      8.05355  eV     2   -->   2 G_2            
     e( 69 - 69) =      8.21381  eV     1   --> G_2            
     e( 70 - 70) =      8.21391  eV     1   --> G_2            
     e( 71 - 72) =      8.64942  eV     2   -->   2 G_2            
     e( 73 - 73) =      9.06640  eV     1   --> G_2            
     e( 74 - 74) =      9.06663  eV     1   --> G_2            
     e( 75 - 75) =      9.26963  eV     1   --> G_2            
     e( 76 - 76) =      9.27011  eV     1   --> G_2            
     e( 77 - 77) =      9.36803  eV     1   --> G_2            
     e( 78 - 78) =      9.36839  eV     1   --> G_2            
     e( 79 - 79) =      9.84940  eV     1   --> G_2            
     e( 80 - 80) =      9.85021  eV     1   --> G_2            
     e( 81 - 81) =      9.91155  eV     1   --> G_2            
     e( 82 - 82) =      9.91232  eV     1   --> G_2            
     e( 83 - 84) =     10.85100  eV     2   -->   2 G_2            
     e( 85 - 86) =     10.92264  eV     2   -->   2 G_2            
     e( 87 - 87) =     11.73792  eV     1   --> G_2            
     e( 88 - 88) =     11.73802  eV     1   --> G_2            
     e( 89 - 90) =     12.00780  eV     2   -->   2 G_2            
     e( 91 - 91) =     12.30741  eV     1   --> G_2            
     e( 92 - 92) =     12.30762  eV     1   --> G_2            
     e( 93 - 93) =     12.47990  eV     1   --> G_2            
     e( 94 - 94) =     12.48010  eV     1   --> G_2            
     e( 95 - 95) =     12.58029  eV     1   --> G_2            
     e( 96 - 96) =     12.58044  eV     1   --> G_2            
     e( 97 - 98) =     13.11119  eV     2   -->   2 G_2            
     e( 99 -100) =     13.56465  eV     2   -->   2 G_2            

 **************************************************************************

 **************************************************************************

                    xk=(   0.04286,   0.02474,   0.00000  )

     Band symmetry, C_1 (1)     double point group:

     e(  1 -  2) =    -12.57269  eV     2   -->   2 G_2            
     e(  3 -  4) =    -12.04701  eV     2   -->   2 G_2            
     e(  5 -  6) =    -10.96452  eV     2   -->   2 G_2            
     e(  7 -  8) =     -8.23227  eV     2   -->   2 G_2            
     e(  9 - 10) =     -6.86401  eV     2   -->   2 G_2            
     e( 11 - 11) =     -2.48836  eV     1   --> G_2            
     e( 12 - 12) =     -2.48820  eV     1   --> G_2            
     e( 13 - 13) =     -2.16778  eV     1   --> G_2            
     e( 14 - 14) =     -2.16645  eV     1   --> G_2            
     e( 15 - 15) =     -1.72782  eV     1   --> G_2            
     e( 16 - 16) =     -1.72660  eV     1   --> G_2            
     e( 17 - 17) =     -1.64839  eV     1   --> G_2            
     e( 18 - 18) =     -1.64635  eV     1   --> G_2            
     e( 19 - 19) =     -1.48396  eV     1   --> G_2            
     e( 20 - 20) =     -1.48326  eV     1   --> G_2            
     e( 21 - 21) =     -1.22010  eV     1   --> G_2            
     e( 22 - 22) =     -1.21818  eV     1   --> G_2            
     e( 23 - 23) =     -0.96018  eV     1   --> G_2            
     e( 24 - 24) =     -0.95902  eV     1   --> G_2            
     e( 25 - 25) =     -0.75151  eV     1   --> G_2            
     e( 26 - 26) =     -0.75058  eV     1   --> G_2            
     e( 27 - 27) =     -0.42590  eV     1   --> G_2            
     e( 28 - 28) =     -0.42538  eV     1   --> G_2            
     e( 29 - 29) =      0.30858  eV     1   --> G_2            
     e( 30 - 30) =      0.30942  eV     1   --> G_2            
     e( 31 - 31) =      0.76359  eV     1   --> G_2            
     e( 32 - 32) =      0.76398  eV     1   --> G_2            
     e( 33 - 33) =      1.03534  eV     1   --> G_2            
     e( 34 - 34) =      1.03591  eV     1   --> G_2            
     e( 35 - 35) =      1.47067  eV     1   --> G_2            
     e( 36 - 36) =      1.47191  eV     1   --> G_2            
     e( 37 - 37) =      2.14974  eV     1   --> G_2            
     e( 38 - 38) =      2.15032  eV     1   --> G_2            
     e( 39 - 39) =      2.23541  eV     1   --> G_2            
     e( 40 - 40) =      2.23586  eV     1   --> G_2            
     e( 41 - 42) =      4.25266  eV     2   -->   2 G_2            
     e( 43 - 44) =      4.42747  eV     2   -->   2 G_2            
     e( 45 - 46) =      5.01926  eV     2   -->   2 G_2            
     e( 47 - 48) =      5.48501  eV     2   -->   2 G_2            
     e( 49 - 50) =      5.61632  eV     2   -->   2 G_2            
     e( 51 - 52) =      5.89800  eV     2   -->   2 G_2            
     e( 53 - 54) =      6.51683  eV     2   -->   2 G_2            
     e( 55 - 55) =      6.60550  eV     1   --> G_2            
     e( 56 - 56) =      6.60658  eV     1   --> G_2            
     e( 57 - 57) =      6.74814  eV     1   --> G_2            
     e( 58 - 58) =      6.74948  eV     1   --> G_2            
     e( 59 - 59) =      6.96146  eV     1   --> G_2            
     e( 60 - 60) =      6.96179  eV     1   --> G_2            
     e( 61 - 62) =      7.17756  eV     2   -->   2 G_2            
     e( 63 - 64) =      7.78213  eV     2   -->   2 G_2            
     e( 65 - 65) =      7.83163  eV     1   --> G_2            
     e( 66 - 66) =      7.83177  eV     1   --> G_2            
     e( 67 - 67) =      8.05818  eV     1   --> G_2            
     e( 68 - 68) =      8.05830  eV     1   --> G_2            
     e( 69 - 70) =      8.24163  eV     2   -->   2 G_2            
     e( 71 - 72) =      8.67691  eV     2   -->   2 G_2            
     e( 73 - 73) =      9.03958  eV     1   --> G_2            
     e( 74 - 74) =      9.03984  eV     1   --> G_2            
     e( 75 - 75) =      9.24525  eV     1   --> G_2            
     e( 76 - 76) =      9.24558  eV     1   --> G_2            
     e( 77 - 77) =      9.35144  eV     1   --> G_2            
     e( 78 - 78) =      9.35166  eV     1   --> G_2            
     e( 79 - 79) =      9.90057  eV     1   --> G_2            
     e( 80 - 80) =      9.90136  eV     1   --> G_2            
     e( 81 - 81) =      9.96884  eV     1   --> G_2            
     e( 82 - 82) =      9.96957  eV     1   --> G_2            
     e( 83 - 84) =     10.84570  eV     2   -->   2 G_2            
     e( 85 - 86) =     10.93495  eV     2   -->   2 G_2            
     e( 87 - 87) =     11.68278  eV     1   --> G_2            
     e( 88 - 88) =     11.68288  eV     1   --> G_2            
     e( 89 - 90) =     11.96478  eV     2   -->   2 G_2            
     e( 91 - 91) =     12.31431  eV     1   --> G_2            
     e( 92 - 92) =     12.31447  eV     1   --> G_2            
     e( 93 - 93) =     12.52515  eV     1   --> G_2            
     e( 94 - 94) =     12.52531  eV     1   --> G_2            
     e( 95 - 95) =     12.62601  eV     1   --> G_2            
     e( 96 - 96) =     12.62618  eV     1   --> G_2            
     e( 97 - 97) =     13.06720  eV     1   --> G_2            
     e( 98 - 98) =     13.06730  eV     1   --> G_2            
     e( 99 -100) =     13.55838  eV     2   -->   2 G_2            

 **************************************************************************

 **************************************************************************

                    xk=(   0.05000,   0.02887,   0.00000  )

     Band symmetry, C_1 (1)     double point group:

     e(  1 -  2) =    -12.56711  eV     2   -->   2 G_2            
     e(  3 -  4) =    -12.04192  eV     2   -->   2 G_2            
     e(  5 -  6) =    -10.96145  eV     2   -->   2 G_2            
     e(  7 -  8) =     -8.23323  eV     2   -->   2 G_2            
     e(  9 - 10) =     -6.87409  eV     2   -->   2 G_2            
     e( 11 - 11) =     -2.49900  eV     1   --> G_2            
     e( 12 - 12) =     -2.49887  eV     1   --> G_2            
     e( 13 - 13) =     -2.21902  eV     1   --> G_2            
     e( 14 - 14) =     -2.21756  eV     1   --> G_2            
     e( 15 - 15) =     -1.74310  eV     1   --> G_2            
     e( 16 - 16) =     -1.74211  eV     1   --> G_2            
     e( 17 - 17) =     -1.69527  eV     1   --> G_2            
     e( 18 - 18) =     -1.69320  eV     1   --> G_2            
     e( 19 - 19) =     -1.49623  eV     1   --> G_2            
     e( 20 - 20) =     -1.49566  eV     1   --> G_2            
     e( 21 - 21) =     -1.22913  eV     1   --> G_2            
     e( 22 - 22) =     -1.22733  eV     1   --> G_2            
     e( 23 - 23) =     -0.95440  eV     1   --> G_2            
     e( 24 - 24) =     -0.95327  eV     1   --> G_2            
     e( 25 - 25) =     -0.74493  eV     1   --> G_2            
     e( 26 - 26) =     -0.74403  eV     1   --> G_2            
     e( 27 - 27) =     -0.39118  eV     1   --> G_2            
     e( 28 - 28) =     -0.39066  eV     1   --> G_2            
     e( 29 - 29) =      0.34420  eV     1   --> G_2            
     e( 30 - 30) =      0.34516  eV     1   --> G_2            
     e( 31 - 31) =      0.76477  eV     1   --> G_2            
     e( 32 - 32) =      0.76503  eV     1   --> G_2            
     e( 33 - 33) =      1.03418  eV     1   --> G_2            
     e( 34 - 34) =      1.03463  eV     1   --> G_2            
     e( 35 - 35) =      1.49636  eV     1   --> G_2            
     e( 36 - 36) =      1.49767  eV     1   --> G_2            
     e( 37 - 37) =      2.16014  eV     1   --> G_2            
     e( 38 - 38) =      2.16075  eV     1   --> G_2            
     e( 39 - 39) =      2.24967  eV     1   --> G_2            
     e( 40 - 40) =      2.25012  eV     1   --> G_2            
     e( 41 - 41) =      4.26247  eV     1   --> G_2            
     e( 42 - 42) =      4.26257  eV     1   --> G_2            
     e( 43 - 44) =      4.42937  eV     2   -->   2 G_2            
     e( 45 - 46) =      5.01991  eV     2   -->   2 G_2            
     e( 47 - 48) =      5.45564  eV     2   -->   2 G_2            
     e( 49 - 50) =      5.61715  eV     2   -->   2 G_2            
     e( 51 - 52) =      5.90759  eV     2   -->   2 G_2            
     e( 53 - 54) =      6.53208  eV     2   -->   2 G_2            
     e( 55 - 55) =      6.58561  eV     1   --> G_2            
     e( 56 - 56) =      6.58649  eV     1   --> G_2            
     e( 57 - 57) =      6.74448  eV     1   --> G_2            
     e( 58 - 58) =      6.74562  eV     1   --> G_2            
     e( 59 - 59) =      6.98209  eV     1   --> G_2            
     e( 60 - 60) =      6.98235  eV     1   --> G_2            
     e( 61 - 62) =      7.17296  eV     2   -->   2 G_2            
     e( 63 - 64) =      7.79586  eV     2   -->   2 G_2            
     e( 65 - 65) =      7.85521  eV     1   --> G_2            
     e( 66 - 66) =      7.85532  eV     1   --> G_2            
     e( 67 - 67) =      8.07345  eV     1   --> G_2            
     e( 68 - 68) =      8.07362  eV     1   --> G_2            
     e( 69 - 70) =      8.27408  eV     2   -->   2 G_2            
     e( 71 - 72) =      8.71000  eV     2   -->   2 G_2            
     e( 73 - 73) =      9.00636  eV     1   --> G_2            
     e( 74 - 74) =      9.00665  eV     1   --> G_2            
     e( 75 - 75) =      9.22443  eV     1   --> G_2            
     e( 76 - 76) =      9.22467  eV     1   --> G_2            
     e( 77 - 77) =      9.34222  eV     1   --> G_2            
     e( 78 - 78) =      9.34236  eV     1   --> G_2            
     e( 79 - 79) =      9.95142  eV     1   --> G_2            
     e( 80 - 80) =      9.95215  eV     1   --> G_2            
     e( 81 - 81) =     10.02734  eV     1   --> G_2            
     e( 82 - 82) =     10.02801  eV     1   --> G_2            
     e( 83 - 84) =     10.83996  eV     2   -->   2 G_2            
     e( 85 - 86) =     10.94895  eV     2   -->   2 G_2            
     e( 87 - 87) =     11.62987  eV     1   --> G_2            
     e( 88 - 88) =     11.62998  eV     1   --> G_2            
     e( 89 - 90) =     11.92299  eV     2   -->   2 G_2            
     e( 91 - 91) =     12.32062  eV     1   --> G_2            
     e( 92 - 92) =     12.32075  eV     1   --> G_2            
     e( 93 - 93) =     12.56947  eV     1   --> G_2            
     e( 94 - 94) =     12.56962  eV     1   --> G_2            
     e( 95 - 95) =     12.66772  eV     1   --> G_2            
     e( 96 - 96) =     12.66791  eV     1   --> G_2            
     e( 97 - 97) =     13.00818  eV     1   --> G_2            
     e( 98 - 98) =     13.00830  eV     1   --> G_2            
     e( 99 -100) =     13.57235  eV     2   -->   2 G_2            

 **************************************************************************

 **************************************************************************

                    xk=(   0.05714,   0.03299,   0.00000  )

     Band symmetry, C_1 (1)     double point group:

     e(  1 -  2) =    -12.56068  eV     2   -->   2 G_2            
     e(  3 -  4) =    -12.03606  eV     2   -->   2 G_2            
     e(  5 -  6) =    -10.95794  eV     2   -->   2 G_2            
     e(  7 -  8) =     -8.23438  eV     2   -->   2 G_2            
     e(  9 - 10) =     -6.88572  eV     2   -->   2 G_2            
     e( 11 - 12) =     -2.51200  eV     2   -->   2 G_2            
     e( 13 - 13) =     -2.27319  eV     1   --> G_2            
     e( 14 - 14) =     -2.27158  eV     1   --> G_2            
     e( 15 - 15) =     -1.77211  eV     1   --> G_2            
     e( 16 - 16) =     -1.77131  eV     1   --> G_2            
     e( 17 - 17) =     -1.73168  eV     1   --> G_2            
     e( 18 - 18) =     -1.72996  eV     1   --> G_2            
     e( 19 - 19) =     -1.51037  eV     1   --> G_2            
     e( 20 - 20) =     -1.50991  eV     1   --> G_2            
     e( 21 - 21) =     -1.24512  eV     1   --> G_2            
     e( 22 - 22) =     -1.24348  eV     1   --> G_2            
     e( 23 - 23) =     -0.95304  eV     1   --> G_2            
     e( 24 - 24) =     -0.95202  eV     1   --> G_2            
     e( 25 - 25) =     -0.72728  eV     1   --> G_2            
     e( 26 - 26) =     -0.72647  eV     1   --> G_2            
     e( 27 - 27) =     -0.35703  eV     1   --> G_2            
     e( 28 - 28) =     -0.35650  eV     1   --> G_2            
     e( 29 - 29) =      0.37417  eV     1   --> G_2            
     e( 30 - 30) =      0.37524  eV     1   --> G_2            
     e( 31 - 31) =      0.77215  eV     1   --> G_2            
     e( 32 - 32) =      0.77238  eV     1   --> G_2            
     e( 33 - 33) =      1.04026  eV     1   --> G_2            
     e( 34 - 34) =      1.04057  eV     1   --> G_2            
     e( 35 - 35) =      1.52049  eV     1   --> G_2            
     e( 36 - 36) =      1.52184  eV     1   --> G_2            
     e( 37 - 37) =      2.16474  eV     1   --> G_2            
     e( 38 - 38) =      2.16537  eV     1   --> G_2            
     e( 39 - 39) =      2.27313  eV     1   --> G_2            
     e( 40 - 40) =      2.27357  eV     1   --> G_2            
     e( 41 - 41) =      4.27362  eV     1   --> G_2            
     e( 42 - 42) =      4.27374  eV     1   --> G_2            
     e( 43 - 43) =      4.43144  eV     1   --> G_2            
     e( 44 - 44) =      4.43155  eV     1   --> G_2            
     e( 45 - 46) =      5.01945  eV     2   -->   2 G_2            
     e( 47 - 48) =      5.42555  eV     2   -->   2 G_2            
     e( 49 - 50) =      5.61825  eV     2   -->   2 G_2            
     e( 51 - 52) =      5.91921  eV     2   -->   2 G_2            
     e( 53 - 53) =      6.52604  eV     1   --> G_2            
     e( 54 - 54) =      6.52642  eV     1   --> G_2            
     e( 55 - 55) =      6.58407  eV     1   --> G_2            
     e( 56 - 56) =      6.58450  eV     1   --> G_2            
     e( 57 - 57) =      6.74415  eV     1   --> G_2            
     e( 58 - 58) =      6.74508  eV     1   --> G_2            
     e( 59 - 59) =      7.00551  eV     1   --> G_2            
     e( 60 - 60) =      7.00572  eV     1   --> G_2            
     e( 61 - 62) =      7.16977  eV     2   -->   2 G_2            
     e( 63 - 64) =      7.79723  eV     2   -->   2 G_2            
     e( 65 - 66) =      7.88087  eV     2   -->   2 G_2            
     e( 67 - 67) =      8.10090  eV     1   --> G_2            
     e( 68 - 68) =      8.10110  eV     1   --> G_2            
     e( 69 - 70) =      8.31054  eV     2   -->   2 G_2            
     e( 71 - 71) =      8.74865  eV     1   --> G_2            
     e( 72 - 72) =      8.74878  eV     1   --> G_2            
     e( 73 - 73) =      8.96980  eV     1   --> G_2            
     e( 74 - 74) =      8.97013  eV     1   --> G_2            
     e( 75 - 75) =      9.20607  eV     1   --> G_2            
     e( 76 - 76) =      9.20628  eV     1   --> G_2            
     e( 77 - 77) =      9.33949  eV     1   --> G_2            
     e( 78 - 78) =      9.33963  eV     1   --> G_2            
     e( 79 - 79) =     10.00237  eV     1   --> G_2            
     e( 80 - 80) =     10.00304  eV     1   --> G_2            
     e( 81 - 81) =     10.08498  eV     1   --> G_2            
     e( 82 - 82) =     10.08559  eV     1   --> G_2            
     e( 83 - 84) =     10.83387  eV     2   -->   2 G_2            
     e( 85 - 86) =     10.96450  eV     2   -->   2 G_2            
     e( 87 - 87) =     11.58072  eV     1   --> G_2            
     e( 88 - 88) =     11.58082  eV     1   --> G_2            
     e( 89 - 90) =     11.88283  eV     2   -->   2 G_2            
     e( 91 - 91) =     12.32822  eV     1   --> G_2            
     e( 92 - 92) =     12.32834  eV     1   --> G_2            
     e( 93 - 93) =     12.60896  eV     1   --> G_2            
     e( 94 - 94) =     12.60913  eV     1   --> G_2            
     e( 95 - 95) =     12.69482  eV     1   --> G_2            
     e( 96 - 96) =     12.69504  eV     1   --> G_2            
     e( 97 - 97) =     12.95425  eV     1   --> G_2            
     e( 98 - 98) =     12.95438  eV     1   --> G_2            
     e( 99 -100) =     13.59093  eV     2   -->   2 G_2            

 **************************************************************************

 **************************************************************************

                    xk=(   0.06429,   0.03712,   0.00000  )

     Band symmetry, C_1 (1)     double point group:

     e(  1 -  2) =    -12.55339  eV     2   -->   2 G_2            
     e(  3 -  4) =    -12.02942  eV     2   -->   2 G_2            
     e(  5 -  6) =    -10.95396  eV     2   -->   2 G_2            
     e(  7 -  8) =     -8.23573  eV     2   -->   2 G_2            
     e(  9 - 10) =     -6.89888  eV     2   -->   2 G_2            
     e( 11 - 12) =     -2.52805  eV     2   -->   2 G_2            
     e( 13 - 13) =     -2.32902  eV     1   --> G_2            
     e( 14 - 14) =     -2.32722  eV     1   --> G_2            
     e( 15 - 15) =     -1.81627  eV     1   --> G_2            
     e( 16 - 16) =     -1.81498  eV     1   --> G_2            
     e( 17 - 17) =     -1.75593  eV     1   --> G_2            
     e( 18 - 18) =     -1.75455  eV     1   --> G_2            
     e( 19 - 19) =     -1.52700  eV     1   --> G_2            
     e( 20 - 20) =     -1.52655  eV     1   --> G_2            
     e( 21 - 21) =     -1.26719  eV     1   --> G_2            
     e( 22 - 22) =     -1.26574  eV     1   --> G_2            
     e( 23 - 23) =     -0.95290  eV     1   --> G_2            
     e( 24 - 24) =     -0.95200  eV     1   --> G_2            
     e( 25 - 25) =     -0.70172  eV     1   --> G_2            
     e( 26 - 26) =     -0.70099  eV     1   --> G_2            
     e( 27 - 27) =     -0.32571  eV     1   --> G_2            
     e( 28 - 28) =     -0.32519  eV     1   --> G_2            
     e( 29 - 29) =      0.39719  eV     1   --> G_2            
     e( 30 - 30) =      0.39835  eV     1   --> G_2            
     e( 31 - 31) =      0.78786  eV     1   --> G_2            
     e( 32 - 32) =      0.78829  eV     1   --> G_2            
     e( 33 - 33) =      1.05317  eV     1   --> G_2            
     e( 34 - 34) =      1.05338  eV     1   --> G_2            
     e( 35 - 35) =      1.54308  eV     1   --> G_2            
     e( 36 - 36) =      1.54447  eV     1   --> G_2            
     e( 37 - 37) =      2.16565  eV     1   --> G_2            
     e( 38 - 38) =      2.16633  eV     1   --> G_2            
     e( 39 - 39) =      2.30347  eV     1   --> G_2            
     e( 40 - 40) =      2.30390  eV     1   --> G_2            
     e( 41 - 41) =      4.28603  eV     1   --> G_2            
     e( 42 - 42) =      4.28617  eV     1   --> G_2            
     e( 43 - 43) =      4.43361  eV     1   --> G_2            
     e( 44 - 44) =      4.43374  eV     1   --> G_2            
     e( 45 - 46) =      5.01723  eV     2   -->   2 G_2            
     e( 47 - 48) =      5.39626  eV     2   -->   2 G_2            
     e( 49 - 50) =      5.61949  eV     2   -->   2 G_2            
     e( 51 - 52) =      5.93279  eV     2   -->   2 G_2            
     e( 53 - 53) =      6.50043  eV     1   --> G_2            
     e( 54 - 54) =      6.50091  eV     1   --> G_2            
     e( 55 - 55) =      6.60062  eV     1   --> G_2            
     e( 56 - 56) =      6.60084  eV     1   --> G_2            
     e( 57 - 57) =      6.74594  eV     1   --> G_2            
     e( 58 - 58) =      6.74671  eV     1   --> G_2            
     e( 59 - 59) =      7.03112  eV     1   --> G_2            
     e( 60 - 60) =      7.03130  eV     1   --> G_2            
     e( 61 - 62) =      7.16855  eV     2   -->   2 G_2            
     e( 63 - 64) =      7.78820  eV     2   -->   2 G_2            
     e( 65 - 66) =      7.90791  eV     2   -->   2 G_2            
     e( 67 - 67) =      8.13886  eV     1   --> G_2            
     e( 68 - 68) =      8.13909  eV     1   --> G_2            
     e( 69 - 70) =      8.35000  eV     2   -->   2 G_2            
     e( 71 - 71) =      8.79227  eV     1   --> G_2            
     e( 72 - 72) =      8.79248  eV     1   --> G_2            
     e( 73 - 73) =      8.93329  eV     1   --> G_2            
     e( 74 - 74) =      8.93369  eV     1   --> G_2            
     e( 75 - 75) =      9.18998  eV     1   --> G_2            
     e( 76 - 76) =      9.19017  eV     1   --> G_2            
     e( 77 - 77) =      9.34169  eV     1   --> G_2            
     e( 78 - 78) =      9.34182  eV     1   --> G_2            
     e( 79 - 79) =     10.05335  eV     1   --> G_2            
     e( 80 - 80) =     10.05398  eV     1   --> G_2            
     e( 81 - 81) =     10.14032  eV     1   --> G_2            
     e( 82 - 82) =     10.14087  eV     1   --> G_2            
     e( 83 - 84) =     10.82766  eV     2   -->   2 G_2            
     e( 85 - 86) =     10.98131  eV     2   -->   2 G_2            
     e( 87 - 87) =     11.53682  eV     1   --> G_2            
     e( 88 - 88) =     11.53693  eV     1   --> G_2            
     e( 89 - 90) =     11.84463  eV     2   -->   2 G_2            
     e( 91 - 91) =     12.33740  eV     1   --> G_2            
     e( 92 - 92) =     12.33752  eV     1   --> G_2            
     e( 93 - 93) =     12.63209  eV     1   --> G_2            
     e( 94 - 94) =     12.63236  eV     1   --> G_2            
     e( 95 - 95) =     12.69558  eV     1   --> G_2            
     e( 96 - 96) =     12.69585  eV     1   --> G_2            
     e( 97 - 98) =     12.93395  eV     2   -->   2 G_2            
     e( 99 -100) =     13.59378  eV     2   -->   2 G_2            

 **************************************************************************

 **************************************************************************

                    xk=(   0.07143,   0.04124,   0.00000  )

     Band symmetry, C_1 (1)     double point group:

     e(  1 -  2) =    -12.54525  eV     2   -->   2 G_2            
     e(  3 -  4) =    -12.02201  eV     2   -->   2 G_2            
     e(  5 -  6) =    -10.94955  eV     2   -->   2 G_2            
     e(  7 -  8) =     -8.23730  eV     2   -->   2 G_2            
     e(  9 - 10) =     -6.91359  eV     2   -->   2 G_2            
     e( 11 - 11) =     -2.54847  eV     1   --> G_2            
     e( 12 - 12) =     -2.54822  eV     1   --> G_2            
     e( 13 - 13) =     -2.38471  eV     1   --> G_2            
     e( 14 - 14) =     -2.38268  eV     1   --> G_2            
     e( 15 - 15) =     -1.86530  eV     1   --> G_2            
     e( 16 - 16) =     -1.86378  eV     1   --> G_2            
     e( 17 - 17) =     -1.77726  eV     1   --> G_2            
     e( 18 - 18) =     -1.77606  eV     1   --> G_2            
     e( 19 - 19) =     -1.54667  eV     1   --> G_2            
     e( 20 - 20) =     -1.54610  eV     1   --> G_2            
     e( 21 - 21) =     -1.29367  eV     1   --> G_2            
     e( 22 - 22) =     -1.29243  eV     1   --> G_2            
     e( 23 - 23) =     -0.95172  eV     1   --> G_2            
     e( 24 - 24) =     -0.95095  eV     1   --> G_2            
     e( 25 - 25) =     -0.67136  eV     1   --> G_2            
     e( 26 - 26) =     -0.67067  eV     1   --> G_2            
     e( 27 - 27) =     -0.29953  eV     1   --> G_2            
     e( 28 - 28) =     -0.29902  eV     1   --> G_2            
     e( 29 - 29) =      0.41429  eV     1   --> G_2            
     e( 30 - 30) =      0.41547  eV     1   --> G_2            
     e( 31 - 31) =      0.81222  eV     1   --> G_2            
     e( 32 - 32) =      0.81288  eV     1   --> G_2            
     e( 33 - 33) =      1.07228  eV     1   --> G_2            
     e( 34 - 34) =      1.07256  eV     1   --> G_2            
     e( 35 - 35) =      1.56439  eV     1   --> G_2            
     e( 36 - 36) =      1.56581  eV     1   --> G_2            
     e( 37 - 37) =      2.16533  eV     1   --> G_2            
     e( 38 - 38) =      2.16605  eV     1   --> G_2            
     e( 39 - 39) =      2.33808  eV     1   --> G_2            
     e( 40 - 40) =      2.33851  eV     1   --> G_2            
     e( 41 - 41) =      4.29964  eV     1   --> G_2            
     e( 42 - 42) =      4.29980  eV     1   --> G_2            
     e( 43 - 43) =      4.43581  eV     1   --> G_2            
     e( 44 - 44) =      4.43596  eV     1   --> G_2            
     e( 45 - 46) =      5.01247  eV     2   -->   2 G_2            
     e( 47 - 48) =      5.36929  eV     2   -->   2 G_2            
     e( 49 - 50) =      5.62085  eV     2   -->   2 G_2            
     e( 51 - 52) =      5.94825  eV     2   -->   2 G_2            
     e( 53 - 53) =      6.47074  eV     1   --> G_2            
     e( 54 - 54) =      6.47119  eV     1   --> G_2            
     e( 55 - 55) =      6.62103  eV     1   --> G_2            
     e( 56 - 56) =      6.62118  eV     1   --> G_2            
     e( 57 - 57) =      6.74862  eV     1   --> G_2            
     e( 58 - 58) =      6.74927  eV     1   --> G_2            
     e( 59 - 59) =      7.05825  eV     1   --> G_2            
     e( 60 - 60) =      7.05841  eV     1   --> G_2            
     e( 61 - 62) =      7.17008  eV     2   -->   2 G_2            
     e( 63 - 64) =      7.77231  eV     2   -->   2 G_2            
     e( 65 - 66) =      7.93562  eV     2   -->   2 G_2            
     e( 67 - 67) =      8.18440  eV     1   --> G_2            
     e( 68 - 68) =      8.18465  eV     1   --> G_2            
     e( 69 - 70) =      8.39109  eV     2   -->   2 G_2            
     e( 71 - 71) =      8.83705  eV     1   --> G_2            
     e( 72 - 72) =      8.83746  eV     1   --> G_2            
     e( 73 - 73) =      8.90278  eV     1   --> G_2            
     e( 74 - 74) =      8.90337  eV     1   --> G_2            
     e( 75 - 75) =      9.17670  eV     1   --> G_2            
     e( 76 - 76) =      9.17687  eV     1   --> G_2            
     e( 77 - 77) =      9.34714  eV     1   --> G_2            
     e( 78 - 78) =      9.34727  eV     1   --> G_2            
     e( 79 - 79) =     10.10403  eV     1   --> G_2            
     e( 80 - 80) =     10.10462  eV     1   --> G_2            
     e( 81 - 81) =     10.19218  eV     1   --> G_2            
     e( 82 - 82) =     10.19269  eV     1   --> G_2            
     e( 83 - 84) =     10.82169  eV     2   -->   2 G_2            
     e( 85 - 86) =     10.99885  eV     2   -->   2 G_2            
     e( 87 - 87) =     11.49974  eV     1   --> G_2            
     e( 88 - 88) =     11.49986  eV     1   --> G_2            
     e( 89 - 90) =     11.80877  eV     2   -->   2 G_2            
     e( 91 - 91) =     12.34585  eV     1   --> G_2            
     e( 92 - 92) =     12.34598  eV     1   --> G_2            
     e( 93 - 93) =     12.60263  eV     1   --> G_2            
     e( 94 - 94) =     12.60284  eV     1   --> G_2            
     e( 95 - 95) =     12.70318  eV     1   --> G_2            
     e( 96 - 96) =     12.70335  eV     1   --> G_2            
     e( 97 - 98) =     12.95558  eV     2   -->   2 G_2            
     e( 99 - 99) =     13.56302  eV     1   --> G_2            
     e(100 -100) =     13.56317  eV     1   --> G_2            

 **************************************************************************

 **************************************************************************

                    xk=(   0.07857,   0.04536,   0.00000  )

     Band symmetry, C_1 (1)     double point group:

     e(  1 -  2) =    -12.53627  eV     2   -->   2 G_2            
     e(  3 -  4) =    -12.01384  eV     2   -->   2 G_2            
     e(  5 -  6) =    -10.94470  eV     2   -->   2 G_2            
     e(  7 -  8) =     -8.23910  eV     2   -->   2 G_2            
     e(  9 - 10) =     -6.92982  eV     2   -->   2 G_2            
     e( 11 - 11) =     -2.57549  eV     1   --> G_2            
     e( 12 - 12) =     -2.57502  eV     1   --> G_2            
     e( 13 - 13) =     -2.43743  eV     1   --> G_2            
     e( 14 - 14) =     -2.43514  eV     1   --> G_2            
     e( 15 - 15) =     -1.91553  eV     1   --> G_2            
     e( 16 - 16) =     -1.91392  eV     1   --> G_2            
     e( 17 - 17) =     -1.79881  eV     1   --> G_2            
     e( 18 - 18) =     -1.79774  eV     1   --> G_2            
     e( 19 - 19) =     -1.56981  eV     1   --> G_2            
     e( 20 - 20) =     -1.56906  eV     1   --> G_2            
     e( 21 - 21) =     -1.32250  eV     1   --> G_2            
     e( 22 - 22) =     -1.32147  eV     1   --> G_2            
     e( 23 - 23) =     -0.94879  eV     1   --> G_2            
     e( 24 - 24) =     -0.94812  eV     1   --> G_2            
     e( 25 - 25) =     -0.63839  eV     1   --> G_2            
     e( 26 - 26) =     -0.63771  eV     1   --> G_2            
     e( 27 - 27) =     -0.28062  eV     1   --> G_2            
     e( 28 - 28) =     -0.28008  eV     1   --> G_2            
     e( 29 - 29) =      0.42847  eV     1   --> G_2            
     e( 30 - 30) =      0.42963  eV     1   --> G_2            
     e( 31 - 31) =      0.84350  eV     1   --> G_2            
     e( 32 - 32) =      0.84436  eV     1   --> G_2            
     e( 33 - 33) =      1.09696  eV     1   --> G_2            
     e( 34 - 34) =      1.09738  eV     1   --> G_2            
     e( 35 - 35) =      1.58487  eV     1   --> G_2            
     e( 36 - 36) =      1.58631  eV     1   --> G_2            
     e( 37 - 37) =      2.16539  eV     1   --> G_2            
     e( 38 - 38) =      2.16616  eV     1   --> G_2            
     e( 39 - 39) =      2.37522  eV     1   --> G_2            
     e( 40 - 40) =      2.37564  eV     1   --> G_2            
     e( 41 - 41) =      4.31434  eV     1   --> G_2            
     e( 42 - 42) =      4.31453  eV     1   --> G_2            
     e( 43 - 43) =      4.43791  eV     1   --> G_2            
     e( 44 - 44) =      4.43809  eV     1   --> G_2            
     e( 45 - 46) =      5.00437  eV     2   -->   2 G_2            
     e( 47 - 48) =      5.34613  eV     2   -->   2 G_2            
     e( 49 - 50) =      5.62232  eV     2   -->   2 G_2            
     e( 51 - 52) =      5.96553  eV     2   -->   2 G_2            
     e( 53 - 53) =      6.44150  eV     1   --> G_2            
     e( 54 - 54) =      6.44191  eV     1   --> G_2            
     e( 55 - 55) =      6.64172  eV     1   --> G_2            
     e( 56 - 56) =      6.64185  eV     1   --> G_2            
     e( 57 - 57) =      6.75105  eV     1   --> G_2            
     e( 58 - 58) =      6.75161  eV     1   --> G_2            
     e( 59 - 59) =      7.08582  eV     1   --> G_2            
     e( 60 - 60) =      7.08597  eV     1   --> G_2            
     e( 61 - 61) =      7.17559  eV     1   --> G_2            
     e( 62 - 62) =      7.17570  eV     1   --> G_2            
     e( 63 - 64) =      7.75273  eV     2   -->   2 G_2            
     e( 65 - 66) =      7.96344  eV     2   -->   2 G_2            
     e( 67 - 67) =      8.23499  eV     1   --> G_2            
     e( 68 - 68) =      8.23526  eV     1   --> G_2            
     e( 69 - 70) =      8.43206  eV     2   -->   2 G_2            
     e( 71 - 71) =      8.84967  eV     1   --> G_2            
     e( 72 - 72) =      8.84992  eV     1   --> G_2            
     e( 73 - 73) =      8.91393  eV     1   --> G_2            
     e( 74 - 74) =      8.91435  eV     1   --> G_2            
     e( 75 - 75) =      9.16709  eV     1   --> G_2            
     e( 76 - 76) =      9.16724  eV     1   --> G_2            
     e( 77 - 77) =      9.35457  eV     1   --> G_2            
     e( 78 - 78) =      9.35469  eV     1   --> G_2            
     e( 79 - 79) =     10.15387  eV     1   --> G_2            
     e( 80 - 80) =     10.15443  eV     1   --> G_2            
     e( 81 - 81) =     10.23956  eV     1   --> G_2            
     e( 82 - 82) =     10.24003  eV     1   --> G_2            
     e( 83 - 84) =     10.81645  eV     2   -->   2 G_2            
     e( 85 - 86) =     11.01647  eV     2   -->   2 G_2            
     e( 87 - 87) =     11.47107  eV     1   --> G_2            
     e( 88 - 88) =     11.47120  eV     1   --> G_2            
     e( 89 - 90) =     11.77568  eV     2   -->   2 G_2            
     e( 91 - 91) =     12.34458  eV     1   --> G_2            
     e( 92 - 92) =     12.34473  eV     1   --> G_2            
     e( 93 - 93) =     12.54441  eV     1   --> G_2            
     e( 94 - 94) =     12.54456  eV     1   --> G_2            
     e( 95 - 96) =     12.72290  eV     2   -->   2 G_2            
     e( 97 - 98) =     12.99977  eV     2   -->   2 G_2            
     e( 99 - 99) =     13.49858  eV     1   --> G_2            
     e(100 -100) =     13.49872  eV     1   --> G_2            

 **************************************************************************

 **************************************************************************

                    xk=(   0.08571,   0.04949,   0.00000  )

     Band symmetry, C_1 (1)     double point group:

     e(  1 -  2) =    -12.52643  eV     2   -->   2 G_2            
     e(  3 -  4) =    -12.00490  eV     2   -->   2 G_2            
     e(  5 -  6) =    -10.93942  eV     2   -->   2 G_2            
     e(  7 -  8) =     -8.24116  eV     2   -->   2 G_2            
     e(  9 - 10) =     -6.94757  eV     2   -->   2 G_2            
     e( 11 - 11) =     -2.61228  eV     1   --> G_2            
     e( 12 - 12) =     -2.61167  eV     1   --> G_2            
     e( 13 - 13) =     -2.48341  eV     1   --> G_2            
     e( 14 - 14) =     -2.48095  eV     1   --> G_2            
     e( 15 - 15) =     -1.96624  eV     1   --> G_2            
     e( 16 - 16) =     -1.96459  eV     1   --> G_2            
     e( 17 - 17) =     -1.82101  eV     1   --> G_2            
     e( 18 - 18) =     -1.82006  eV     1   --> G_2            
     e( 19 - 19) =     -1.59664  eV     1   --> G_2            
     e( 20 - 20) =     -1.59568  eV     1   --> G_2            
     e( 21 - 21) =     -1.35176  eV     1   --> G_2            
     e( 22 - 22) =     -1.35091  eV     1   --> G_2            
     e( 23 - 23) =     -0.94431  eV     1   --> G_2            
     e( 24 - 24) =     -0.94374  eV     1   --> G_2            
     e( 25 - 25) =     -0.60427  eV     1   --> G_2            
     e( 26 - 26) =     -0.60358  eV     1   --> G_2            
     e( 27 - 27) =     -0.27058  eV     1   --> G_2            
     e( 28 - 28) =     -0.26998  eV     1   --> G_2            
     e( 29 - 29) =      0.44330  eV     1   --> G_2            
     e( 30 - 30) =      0.44440  eV     1   --> G_2            
     e( 31 - 31) =      0.87916  eV     1   --> G_2            
     e( 32 - 32) =      0.88017  eV     1   --> G_2            
     e( 33 - 33) =      1.12634  eV     1   --> G_2            
     e( 34 - 34) =      1.12692  eV     1   --> G_2            
     e( 35 - 35) =      1.60516  eV     1   --> G_2            
     e( 36 - 36) =      1.60661  eV     1   --> G_2            
     e( 37 - 37) =      2.16692  eV     1   --> G_2            
     e( 38 - 38) =      2.16773  eV     1   --> G_2            
     e( 39 - 39) =      2.41370  eV     1   --> G_2            
     e( 40 - 40) =      2.41411  eV     1   --> G_2            
     e( 41 - 41) =      4.33003  eV     1   --> G_2            
     e( 42 - 42) =      4.33024  eV     1   --> G_2            
     e( 43 - 43) =      4.43978  eV     1   --> G_2            
     e( 44 - 44) =      4.43998  eV     1   --> G_2            
     e( 45 - 46) =      4.99236  eV     2   -->   2 G_2            
     e( 47 - 48) =      5.32800  eV     2   -->   2 G_2            
     e( 49 - 50) =      5.62395  eV     2   -->   2 G_2            
     e( 51 - 52) =      5.98453  eV     2   -->   2 G_2            
     e( 53 - 53) =      6.41433  eV     1   --> G_2            
     e( 54 - 54) =      6.41471  eV     1   --> G_2            
     e( 55 - 55) =      6.66183  eV     1   --> G_2            
     e( 56 - 56) =      6.66195  eV     1   --> G_2            
     e( 57 - 57) =      6.75225  eV     1   --> G_2            
     e( 58 - 58) =      6.75274  eV     1   --> G_2            
     e( 59 - 59) =      7.11189  eV     1   --> G_2            
     e( 60 - 60) =      7.11204  eV     1   --> G_2            
     e( 61 - 61) =      7.18719  eV     1   --> G_2            
     e( 62 - 62) =      7.18733  eV     1   --> G_2            
     e( 63 - 64) =      7.73178  eV     2   -->   2 G_2            
     e( 65 - 66) =      7.99083  eV     2   -->   2 G_2            
     e( 67 - 67) =      8.28874  eV     1   --> G_2            
     e( 68 - 68) =      8.28903  eV     1   --> G_2            
     e( 69 - 70) =      8.47066  eV     2   -->   2 G_2            
     e( 71 - 72) =      8.82990  eV     2   -->   2 G_2            
     e( 73 - 73) =      8.96848  eV     1   --> G_2            
     e( 74 - 74) =      8.96865  eV     1   --> G_2            
     e( 75 - 75) =      9.16223  eV     1   --> G_2            
     e( 76 - 76) =      9.16235  eV     1   --> G_2            
     e( 77 - 77) =      9.36315  eV     1   --> G_2            
     e( 78 - 78) =      9.36326  eV     1   --> G_2            
     e( 79 - 79) =     10.20212  eV     1   --> G_2            
     e( 80 - 80) =     10.20266  eV     1   --> G_2            
     e( 81 - 81) =     10.28162  eV     1   --> G_2            
     e( 82 - 82) =     10.28207  eV     1   --> G_2            
     e( 83 - 84) =     10.81256  eV     2   -->   2 G_2            
     e( 85 - 86) =     11.03348  eV     2   -->   2 G_2            
     e( 87 - 87) =     11.45223  eV     1   --> G_2            
     e( 88 - 88) =     11.45236  eV     1   --> G_2            
     e( 89 - 90) =     11.74584  eV     2   -->   2 G_2            
     e( 91 - 91) =     12.31199  eV     1   --> G_2            
     e( 92 - 92) =     12.31213  eV     1   --> G_2            
     e( 93 - 93) =     12.50911  eV     1   --> G_2            
     e( 94 - 94) =     12.50922  eV     1   --> G_2            
     e( 95 - 96) =     12.73848  eV     2   -->   2 G_2            
     e( 97 - 98) =     13.05249  eV     2   -->   2 G_2            
     e( 99 - 99) =     13.41240  eV     1   --> G_2            
     e(100 -100) =     13.41252  eV     1   --> G_2            

 **************************************************************************

 **************************************************************************

                    xk=(   0.09286,   0.05361,   0.00000  )

     Band symmetry, C_1 (1)     double point group:

     e(  1 -  2) =    -12.51576  eV     2   -->   2 G_2            
     e(  3 -  4) =    -11.99521  eV     2   -->   2 G_2            
     e(  5 -  6) =    -10.93372  eV     2   -->   2 G_2            
     e(  7 -  8) =     -8.24351  eV     2   -->   2 G_2            
     e(  9 - 10) =     -6.96683  eV     2   -->   2 G_2            
     e( 11 - 11) =     -2.66042  eV     1   --> G_2            
     e( 12 - 12) =     -2.65986  eV     1   --> G_2            
     e( 13 - 13) =     -2.52048  eV     1   --> G_2            
     e( 14 - 14) =     -2.51806  eV     1   --> G_2            
     e( 15 - 15) =     -2.01731  eV     1   --> G_2            
     e( 16 - 16) =     -2.01567  eV     1   --> G_2            
     e( 17 - 17) =     -1.84381  eV     1   --> G_2            
     e( 18 - 18) =     -1.84297  eV     1   --> G_2            
     e( 19 - 19) =     -1.62703  eV     1   --> G_2            
     e( 20 - 20) =     -1.62587  eV     1   --> G_2            
     e( 21 - 21) =     -1.38001  eV     1   --> G_2            
     e( 22 - 22) =     -1.37928  eV     1   --> G_2            
     e( 23 - 23) =     -0.93882  eV     1   --> G_2            
     e( 24 - 24) =     -0.93833  eV     1   --> G_2            
     e( 25 - 25) =     -0.57009  eV     1   --> G_2            
     e( 26 - 26) =     -0.56936  eV     1   --> G_2            
     e( 27 - 27) =     -0.27009  eV     1   --> G_2            
     e( 28 - 28) =     -0.26939  eV     1   --> G_2            
     e( 29 - 29) =      0.46150  eV     1   --> G_2            
     e( 30 - 30) =      0.46250  eV     1   --> G_2            
     e( 31 - 31) =      0.91700  eV     1   --> G_2            
     e( 32 - 32) =      0.91809  eV     1   --> G_2            
     e( 33 - 33) =      1.15920  eV     1   --> G_2            
     e( 34 - 34) =      1.15989  eV     1   --> G_2            
     e( 35 - 35) =      1.62610  eV     1   --> G_2            
     e( 36 - 36) =      1.62754  eV     1   --> G_2            
     e( 37 - 37) =      2.17070  eV     1   --> G_2            
     e( 38 - 38) =      2.17154  eV     1   --> G_2            
     e( 39 - 39) =      2.45265  eV     1   --> G_2            
     e( 40 - 40) =      2.45304  eV     1   --> G_2            
     e( 41 - 41) =      4.34655  eV     1   --> G_2            
     e( 42 - 42) =      4.34679  eV     1   --> G_2            
     e( 43 - 43) =      4.44123  eV     1   --> G_2            
     e( 44 - 44) =      4.44146  eV     1   --> G_2            
     e( 45 - 46) =      4.97634  eV     2   -->   2 G_2            
     e( 47 - 48) =      5.31562  eV     2   -->   2 G_2            
     e( 49 - 50) =      5.62584  eV     2   -->   2 G_2            
     e( 51 - 52) =      6.00521  eV     2   -->   2 G_2            
     e( 53 - 53) =      6.39010  eV     1   --> G_2            
     e( 54 - 54) =      6.39044  eV     1   --> G_2            
     e( 55 - 55) =      6.68095  eV     1   --> G_2            
     e( 56 - 56) =      6.68108  eV     1   --> G_2            
     e( 57 - 57) =      6.75152  eV     1   --> G_2            
     e( 58 - 58) =      6.75198  eV     1   --> G_2            
     e( 59 - 59) =      7.13401  eV     1   --> G_2            
     e( 60 - 60) =      7.13414  eV     1   --> G_2            
     e( 61 - 61) =      7.20743  eV     1   --> G_2            
     e( 62 - 62) =      7.20757  eV     1   --> G_2            
     e( 63 - 64) =      7.71117  eV     2   -->   2 G_2            
     e( 65 - 66) =      8.01729  eV     2   -->   2 G_2            
     e( 67 - 67) =      8.34399  eV     1   --> G_2            
     e( 68 - 68) =      8.34431  eV     1   --> G_2            
     e( 69 - 70) =      8.50407  eV     2   -->   2 G_2            
     e( 71 - 72) =      8.81510  eV     2   -->   2 G_2            
     e( 73 - 73) =      9.03046  eV     1   --> G_2            
     e( 74 - 74) =      9.03061  eV     1   --> G_2            
     e( 75 - 76) =      9.16384  eV     2   -->   2 G_2            
     e( 77 - 78) =      9.37257  eV     2   -->   2 G_2            
     e( 79 - 79) =     10.24761  eV     1   --> G_2            
     e( 80 - 80) =     10.24812  eV     1   --> G_2            
     e( 81 - 81) =     10.31798  eV     1   --> G_2            
     e( 82 - 82) =     10.31840  eV     1   --> G_2            
     e( 83 - 84) =     10.81065  eV     2   -->   2 G_2            
     e( 85 - 86) =     11.04952  eV     2   -->   2 G_2            
     e( 87 - 87) =     11.44405  eV     1   --> G_2            
     e( 88 - 88) =     11.44421  eV     1   --> G_2            
     e( 89 - 90) =     11.71984  eV     2   -->   2 G_2            
     e( 91 - 92) =     12.24039  eV     2   -->   2 G_2            
     e( 93 - 94) =     12.51344  eV     2   -->   2 G_2            
     e( 95 - 96) =     12.74659  eV     2   -->   2 G_2            
     e( 97 - 97) =     13.10575  eV     1   --> G_2            
     e( 98 - 98) =     13.10585  eV     1   --> G_2            
     e( 99 -100) =     13.31723  eV     2   -->   2 G_2            

 **************************************************************************

 **************************************************************************

                    xk=(   0.10000,   0.05774,   0.00000  )

     Band symmetry, C_1 (1)     double point group:

     e(  1 -  2) =    -12.50424  eV     2   -->   2 G_2            
     e(  3 -  4) =    -11.98476  eV     2   -->   2 G_2            
     e(  5 -  6) =    -10.92761  eV     2   -->   2 G_2            
     e(  7 -  8) =     -8.24616  eV     2   -->   2 G_2            
     e(  9 - 10) =     -6.98758  eV     2   -->   2 G_2            
     e( 11 - 11) =     -2.71776  eV     1   --> G_2            
     e( 12 - 12) =     -2.71737  eV     1   --> G_2            
     e( 13 - 13) =     -2.55041  eV     1   --> G_2            
     e( 14 - 14) =     -2.54815  eV     1   --> G_2            
     e( 15 - 15) =     -2.06880  eV     1   --> G_2            
     e( 16 - 16) =     -2.06718  eV     1   --> G_2            
     e( 17 - 17) =     -1.86714  eV     1   --> G_2            
     e( 18 - 18) =     -1.86641  eV     1   --> G_2            
     e( 19 - 19) =     -1.66045  eV     1   --> G_2            
     e( 20 - 20) =     -1.65913  eV     1   --> G_2            
     e( 21 - 21) =     -1.40643  eV     1   --> G_2            
     e( 22 - 22) =     -1.40578  eV     1   --> G_2            
     e( 23 - 23) =     -0.93290  eV     1   --> G_2            
     e( 24 - 24) =     -0.93247  eV     1   --> G_2            
     e( 25 - 25) =     -0.53691  eV     1   --> G_2            
     e( 26 - 26) =     -0.53611  eV     1   --> G_2            
     e( 27 - 27) =     -0.27862  eV     1   --> G_2            
     e( 28 - 28) =     -0.27777  eV     1   --> G_2            
     e( 29 - 29) =      0.48432  eV     1   --> G_2            
     e( 30 - 30) =      0.48523  eV     1   --> G_2            
     e( 31 - 31) =      0.95566  eV     1   --> G_2            
     e( 32 - 32) =      0.95676  eV     1   --> G_2            
     e( 33 - 33) =      1.19385  eV     1   --> G_2            
     e( 34 - 34) =      1.19464  eV     1   --> G_2            
     e( 35 - 35) =      1.64870  eV     1   --> G_2            
     e( 36 - 36) =      1.65010  eV     1   --> G_2            
     e( 37 - 37) =      2.17734  eV     1   --> G_2            
     e( 38 - 38) =      2.17819  eV     1   --> G_2            
     e( 39 - 39) =      2.49141  eV     1   --> G_2            
     e( 40 - 40) =      2.49178  eV     1   --> G_2            
     e( 41 - 41) =      4.36365  eV     1   --> G_2            
     e( 42 - 42) =      4.36394  eV     1   --> G_2            
     e( 43 - 43) =      4.44209  eV     1   --> G_2            
     e( 44 - 44) =      4.44237  eV     1   --> G_2            
     e( 45 - 46) =      4.95689  eV     2   -->   2 G_2            
     e( 47 - 48) =      5.30908  eV     2   -->   2 G_2            
     e( 49 - 50) =      5.62812  eV     2   -->   2 G_2            
     e( 51 - 52) =      6.02748  eV     2   -->   2 G_2            
     e( 53 - 53) =      6.36936  eV     1   --> G_2            
[...]
     e( 93 - 93) =     12.37881  eV     1   --> G_2            
     e( 94 - 94) =     12.37929  eV     1   --> G_2            
     e( 95 - 95) =     12.62048  eV     1   --> G_2            
     e( 96 - 96) =     12.62062  eV     1   --> G_2            
     e( 97 - 97) =     13.15886  eV     1   --> G_2            
     e( 98 - 98) =     13.15896  eV     1   --> G_2            
     e( 99 -100) =     13.59078  eV     2   -->   2 G_2            

 **************************************************************************

 **************************************************************************

                    xk=(   0.01429,   0.02507,   0.00000  )

     Band symmetry, C_1 (1)     double point group:

     e(  1 -  2) =    -12.58290  eV     2   -->   2 G_2            
     e(  3 -  4) =    -12.05631  eV     2   -->   2 G_2            
     e(  5 -  6) =    -10.97011  eV     2   -->   2 G_2            
     e(  7 -  8) =     -8.23043  eV     2   -->   2 G_2            
     e(  9 - 10) =     -6.84505  eV     2   -->   2 G_2            
     e( 11 - 11) =     -2.46920  eV     1   --> G_2            
     e( 12 - 12) =     -2.46908  eV     1   --> G_2            
     e( 13 - 13) =     -2.05237  eV     1   --> G_2            
     e( 14 - 14) =     -2.05155  eV     1   --> G_2            
     e( 15 - 15) =     -1.71513  eV     1   --> G_2            
     e( 16 - 16) =     -1.71406  eV     1   --> G_2            
     e( 17 - 17) =     -1.51926  eV     1   --> G_2            
     e( 18 - 18) =     -1.51740  eV     1   --> G_2            
     e( 19 - 19) =     -1.46675  eV     1   --> G_2            
     e( 20 - 20) =     -1.46570  eV     1   --> G_2            
     e( 21 - 21) =     -1.23721  eV     1   --> G_2            
     e( 22 - 22) =     -1.23552  eV     1   --> G_2            
     e( 23 - 23) =     -0.99559  eV     1   --> G_2            
     e( 24 - 24) =     -0.99495  eV     1   --> G_2            
     e( 25 - 25) =     -0.72542  eV     1   --> G_2            
     e( 26 - 26) =     -0.72491  eV     1   --> G_2            
     e( 27 - 27) =     -0.50044  eV     1   --> G_2            
     e( 28 - 28) =     -0.50026  eV     1   --> G_2            
     e( 29 - 29) =      0.20788  eV     1   --> G_2            
     e( 30 - 30) =      0.20814  eV     1   --> G_2            
     e( 31 - 31) =      0.78052  eV     1   --> G_2            
     e( 32 - 32) =      0.78101  eV     1   --> G_2            
     e( 33 - 33) =      1.06156  eV     1   --> G_2            
     e( 34 - 34) =      1.06208  eV     1   --> G_2            
     e( 35 - 35) =      1.39995  eV     1   --> G_2            
     e( 36 - 36) =      1.40116  eV     1   --> G_2            
     e( 37 - 37) =      2.11052  eV     1   --> G_2            
     e( 38 - 38) =      2.11100  eV     1   --> G_2            
     e( 39 - 39) =      2.23128  eV     1   --> G_2            
     e( 40 - 40) =      2.23148  eV     1   --> G_2            
     e( 41 - 42) =      4.23438  eV     2   -->   2 G_2            
     e( 43 - 44) =      4.42404  eV     2   -->   2 G_2            
     e( 45 - 46) =      5.01574  eV     2   -->   2 G_2            
     e( 47 - 48) =      5.56386  eV     2   -->   2 G_2            
     e( 49 - 50) =      5.61826  eV     2   -->   2 G_2            
     e( 51 - 52) =      5.85401  eV     2   -->   2 G_2            
     e( 53 - 54) =      6.47480  eV     2   -->   2 G_2            
     e( 55 - 55) =      6.65349  eV     1   --> G_2            
     e( 56 - 56) =      6.65445  eV     1   --> G_2            
     e( 57 - 57) =      6.77386  eV     1   --> G_2            
     e( 58 - 58) =      6.77516  eV     1   --> G_2            
     e( 59 - 59) =      6.91931  eV     1   --> G_2            
     e( 60 - 60) =      6.91968  eV     1   --> G_2            
     e( 61 - 62) =      7.19586  eV     2   -->   2 G_2            
     e( 63 - 64) =      7.69552  eV     2   -->   2 G_2            
     e( 65 - 66) =      7.78680  eV     2   -->   2 G_2            
     e( 67 - 68) =      8.06661  eV     2   -->   2 G_2            
     e( 69 - 69) =      8.18686  eV     1   --> G_2            
     e( 70 - 70) =      8.18697  eV     1   --> G_2            
     e( 71 - 72) =      8.62420  eV     2   -->   2 G_2            
     e( 73 - 73) =      9.07654  eV     1   --> G_2            
     e( 74 - 74) =      9.07672  eV     1   --> G_2            
     e( 75 - 75) =      9.29956  eV     1   --> G_2            
     e( 76 - 76) =      9.30007  eV     1   --> G_2            
     e( 77 - 77) =      9.45436  eV     1   --> G_2            
     e( 78 - 78) =      9.45484  eV     1   --> G_2            
     e( 79 - 79) =      9.71479  eV     1   --> G_2            
     e( 80 - 80) =      9.71511  eV     1   --> G_2            
     e( 81 - 81) =      9.86347  eV     1   --> G_2            
     e( 82 - 82) =      9.86375  eV     1   --> G_2            
     e( 83 - 84) =     10.86057  eV     2   -->   2 G_2            
     e( 85 - 86) =     10.91163  eV     2   -->   2 G_2            
     e( 87 - 88) =     11.83201  eV     2   -->   2 G_2            
     e( 89 - 89) =     12.07468  eV     1   --> G_2            
     e( 90 - 90) =     12.07483  eV     1   --> G_2            
     e( 91 - 91) =     12.27529  eV     1   --> G_2            
     e( 92 - 92) =     12.27584  eV     1   --> G_2            
     e( 93 - 93) =     12.35762  eV     1   --> G_2            
     e( 94 - 94) =     12.35800  eV     1   --> G_2            
     e( 95 - 95) =     12.55930  eV     1   --> G_2            
     e( 96 - 96) =     12.55941  eV     1   --> G_2            
     e( 97 - 98) =     13.15351  eV     2   -->   2 G_2            
     e( 99 -100) =     13.64834  eV     2   -->   2 G_2            

 **************************************************************************

 **************************************************************************

                    xk=(   0.00952,   0.01672,   0.00000  )

     Band symmetry, C_1 (1)     double point group:

     e(  1 -  2) =    -12.58582  eV     2   -->   2 G_2            
     e(  3 -  4) =    -12.05898  eV     2   -->   2 G_2            
     e(  5 -  6) =    -10.97174  eV     2   -->   2 G_2            
     e(  7 -  8) =     -8.23005  eV     2   -->   2 G_2            
     e(  9 - 10) =     -6.84006  eV     2   -->   2 G_2            
     e( 11 - 12) =     -2.46460  eV     2   -->   2 G_2            
     e( 13 - 13) =     -2.01985  eV     1   --> G_2            
     e( 14 - 14) =     -2.01925  eV     1   --> G_2            
     e( 15 - 15) =     -1.71583  eV     1   --> G_2            
     e( 16 - 16) =     -1.71501  eV     1   --> G_2            
     e( 17 - 17) =     -1.48033  eV     1   --> G_2            
     e( 18 - 18) =     -1.47921  eV     1   --> G_2            
     e( 19 - 19) =     -1.44190  eV     1   --> G_2            
     e( 20 - 20) =     -1.44099  eV     1   --> G_2            
     e( 21 - 21) =     -1.25146  eV     1   --> G_2            
     e( 22 - 22) =     -1.24989  eV     1   --> G_2            
     e( 23 - 23) =     -1.01455  eV     1   --> G_2            
     e( 24 - 24) =     -1.01405  eV     1   --> G_2            
     e( 25 - 25) =     -0.70604  eV     1   --> G_2            
     e( 26 - 26) =     -0.70569  eV     1   --> G_2            
     e( 27 - 27) =     -0.52414  eV     1   --> G_2            
     e( 28 - 28) =     -0.52401  eV     1   --> G_2            
     e( 29 - 29) =      0.17549  eV     1   --> G_2            
     e( 30 - 30) =      0.17566  eV     1   --> G_2            
     e( 31 - 31) =      0.77747  eV     1   --> G_2            
     e( 32 - 32) =      0.77781  eV     1   --> G_2            
     e( 33 - 33) =      1.08711  eV     1   --> G_2            
     e( 34 - 34) =      1.08762  eV     1   --> G_2            
     e( 35 - 35) =      1.37120  eV     1   --> G_2            
     e( 36 - 36) =      1.37217  eV     1   --> G_2            
     e( 37 - 37) =      2.09612  eV     1   --> G_2            
     e( 38 - 38) =      2.09644  eV     1   --> G_2            
     e( 39 - 39) =      2.23125  eV     1   --> G_2            
     e( 40 - 40) =      2.23138  eV     1   --> G_2            
     e( 41 - 42) =      4.22906  eV     2   -->   2 G_2            
     e( 43 - 44) =      4.42281  eV     2   -->   2 G_2            
     e( 45 - 46) =      5.01439  eV     2   -->   2 G_2            
     e( 47 - 48) =      5.57166  eV     2   -->   2 G_2            
     e( 49 - 50) =      5.61985  eV     2   -->   2 G_2            
     e( 51 - 52) =      5.86543  eV     2   -->   2 G_2            
     e( 53 - 54) =      6.45435  eV     2   -->   2 G_2            
     e( 55 - 55) =      6.65890  eV     1   --> G_2            
     e( 56 - 56) =      6.65954  eV     1   --> G_2            
     e( 57 - 57) =      6.78547  eV     1   --> G_2            
     e( 58 - 58) =      6.78638  eV     1   --> G_2            
     e( 59 - 59) =      6.91820  eV     1   --> G_2            
     e( 60 - 60) =      6.91848  eV     1   --> G_2            
     e( 61 - 62) =      7.19946  eV     2   -->   2 G_2            
     e( 63 - 64) =      7.67278  eV     2   -->   2 G_2            
     e( 65 - 66) =      7.77120  eV     2   -->   2 G_2            
     e( 67 - 68) =      8.06798  eV     2   -->   2 G_2            
     e( 69 - 70) =      8.16669  eV     2   -->   2 G_2            
     e( 71 - 72) =      8.60502  eV     2   -->   2 G_2            
     e( 73 - 73) =      9.09246  eV     1   --> G_2            
     e( 74 - 74) =      9.09258  eV     1   --> G_2            
     e( 75 - 75) =      9.34186  eV     1   --> G_2            
     e( 76 - 76) =      9.34236  eV     1   --> G_2            
     e( 77 - 77) =      9.47907  eV     1   --> G_2            
     e( 78 - 78) =      9.47962  eV     1   --> G_2            
     e( 79 - 79) =      9.66569  eV     1   --> G_2            
     e( 80 - 80) =      9.66597  eV     1   --> G_2            
     e( 81 - 81) =      9.80651  eV     1   --> G_2            
     e( 82 - 82) =      9.80675  eV     1   --> G_2            
     e( 83 - 84) =     10.86389  eV     2   -->   2 G_2            
     e( 85 - 86) =     10.90020  eV     2   -->   2 G_2            
     e( 87 - 88) =     11.88629  eV     2   -->   2 G_2            
     e( 89 - 89) =     12.13638  eV     1   --> G_2            
     e( 90 - 90) =     12.13667  eV     1   --> G_2            
     e( 91 - 91) =     12.24148  eV     1   --> G_2            
     e( 92 - 92) =     12.24204  eV     1   --> G_2            
     e( 93 - 93) =     12.34078  eV     1   --> G_2            
     e( 94 - 94) =     12.34102  eV     1   --> G_2            
     e( 95 - 96) =     12.50637  eV     2   -->   2 G_2            
     e( 97 - 98) =     13.13577  eV     2   -->   2 G_2            
     e( 99 -100) =     13.71362  eV     2   -->   2 G_2            

 **************************************************************************

 **************************************************************************

                    xk=(   0.00476,   0.00836,   0.00000  )

     Band symmetry, C_1 (1)     double point group:

     e(  1 -  2) =    -12.58758  eV     2   -->   2 G_2            
     e(  3 -  4) =    -12.06059  eV     2   -->   2 G_2            
     e(  5 -  6) =    -10.97273  eV     2   -->   2 G_2            
     e(  7 -  8) =     -8.22983  eV     2   -->   2 G_2            
     e(  9 - 10) =     -6.83706  eV     2   -->   2 G_2            
     e( 11 - 12) =     -2.46188  eV     2   -->   2 G_2            
     e( 13 - 13) =     -1.99877  eV     1   --> G_2            
     e( 14 - 14) =     -1.99844  eV     1   --> G_2            
     e( 15 - 15) =     -1.71795  eV     1   --> G_2            
     e( 16 - 16) =     -1.71751  eV     1   --> G_2            
     e( 17 - 17) =     -1.46418  eV     1   --> G_2            
     e( 18 - 18) =     -1.46385  eV     1   --> G_2            
     e( 19 - 19) =     -1.40707  eV     1   --> G_2            
     e( 20 - 20) =     -1.40616  eV     1   --> G_2            
     e( 21 - 21) =     -1.27118  eV     1   --> G_2            
     e( 22 - 22) =     -1.27002  eV     1   --> G_2            
     e( 23 - 23) =     -1.02677  eV     1   --> G_2            
     e( 24 - 24) =     -1.02649  eV     1   --> G_2            
     e( 25 - 25) =     -0.69342  eV     1   --> G_2            
     e( 26 - 26) =     -0.69324  eV     1   --> G_2            
     e( 27 - 28) =     -0.53757  eV     2   -->   2 G_2            
     e( 29 - 30) =      0.15369  eV     2   -->   2 G_2            
     e( 31 - 31) =      0.77558  eV     1   --> G_2            
     e( 32 - 32) =      0.77576  eV     1   --> G_2            
     e( 33 - 33) =      1.10823  eV     1   --> G_2            
     e( 34 - 34) =      1.10857  eV     1   --> G_2            
     e( 35 - 35) =      1.34921  eV     1   --> G_2            
     e( 36 - 36) =      1.34978  eV     1   --> G_2            
     e( 37 - 37) =      2.08683  eV     1   --> G_2            
     e( 38 - 38) =      2.08700  eV     1   --> G_2            
     e( 39 - 40) =      2.23187  eV     2   -->   2 G_2            
     e( 41 - 42) =      4.22584  eV     2   -->   2 G_2            
     e( 43 - 44) =      4.42207  eV     2   -->   2 G_2            
     e( 45 - 46) =      5.01351  eV     2   -->   2 G_2            
     e( 47 - 48) =      5.57539  eV     2   -->   2 G_2            
     e( 49 - 50) =      5.62123  eV     2   -->   2 G_2            
     e( 51 - 52) =      5.87409  eV     2   -->   2 G_2            
     e( 53 - 54) =      6.44075  eV     2   -->   2 G_2            
     e( 55 - 55) =      6.66180  eV     1   --> G_2            
     e( 56 - 56) =      6.66212  eV     1   --> G_2            
     e( 57 - 57) =      6.79223  eV     1   --> G_2            
     e( 58 - 58) =      6.79270  eV     1   --> G_2            
     e( 59 - 59) =      6.91932  eV     1   --> G_2            
     e( 60 - 60) =      6.91948  eV     1   --> G_2            
     e( 61 - 62) =      7.20270  eV     2   -->   2 G_2            
     e( 63 - 64) =      7.65714  eV     2   -->   2 G_2            
     e( 65 - 66) =      7.76066  eV     2   -->   2 G_2            
     e( 67 - 68) =      8.07028  eV     2   -->   2 G_2            
     e( 69 - 70) =      8.15426  eV     2   -->   2 G_2            
     e( 71 - 72) =      8.59365  eV     2   -->   2 G_2            
     e( 73 - 74) =      9.10176  eV     2   -->   2 G_2            
     e( 75 - 75) =      9.37157  eV     1   --> G_2            
     e( 76 - 76) =      9.37190  eV     1   --> G_2            
     e( 77 - 77) =      9.51271  eV     1   --> G_2            
     e( 78 - 78) =      9.51320  eV     1   --> G_2            
     e( 79 - 79) =      9.62097  eV     1   --> G_2            
     e( 80 - 80) =      9.62123  eV     1   --> G_2            
     e( 81 - 81) =      9.76460  eV     1   --> G_2            
     e( 82 - 82) =      9.76475  eV     1   --> G_2            
     e( 83 - 84) =     10.86696  eV     2   -->   2 G_2            
     e( 85 - 86) =     10.89229  eV     2   -->   2 G_2            
     e( 87 - 88) =     11.92887  eV     2   -->   2 G_2            
     e( 89 - 89) =     12.18170  eV     1   --> G_2            
     e( 90 - 90) =     12.18232  eV     1   --> G_2            
     e( 91 - 91) =     12.21435  eV     1   --> G_2            
     e( 92 - 92) =     12.21512  eV     1   --> G_2            
     e( 93 - 93) =     12.32732  eV     1   --> G_2            
     e( 94 - 94) =     12.32743  eV     1   --> G_2            
     e( 95 - 96) =     12.46817  eV     2   -->   2 G_2            
     e( 97 - 98) =     13.11937  eV     2   -->   2 G_2            
     e( 99 -100) =     13.76967  eV     2   -->   2 G_2            

 **************************************************************************

 **************************************************************************

                    xk=(   0.00000,   0.00000,   0.00000  )

     Band symmetry, C_1 (1)     double point group:

     e(  1 -  2) =    -12.58816  eV     2   -->   2 G_2            
     e(  3 -  4) =    -12.06112  eV     2   -->   2 G_2            
     e(  5 -  6) =    -10.97305  eV     2   -->   2 G_2            
     e(  7 -  8) =     -8.22975  eV     2   -->   2 G_2            
     e(  9 - 10) =     -6.83607  eV     2   -->   2 G_2            
     e( 11 - 12) =     -2.46096  eV     2   -->   2 G_2            
     e( 13 - 14) =     -1.99131  eV     2   -->   2 G_2            
     e( 15 - 16) =     -1.71884  eV     2   -->   2 G_2            
     e( 17 - 18) =     -1.46010  eV     2   -->   2 G_2            
     e( 19 - 20) =     -1.38845  eV     2   -->   2 G_2            
     e( 21 - 22) =     -1.28229  eV     2   -->   2 G_2            
     e( 23 - 24) =     -1.03087  eV     2   -->   2 G_2            
     e( 25 - 26) =     -0.68917  eV     2   -->   2 G_2            
     e( 27 - 28) =     -0.54167  eV     2   -->   2 G_2            
     e( 29 - 30) =      0.14599  eV     2   -->   2 G_2            
     e( 31 - 32) =      0.77500  eV     2   -->   2 G_2            
     e( 33 - 34) =      1.11686  eV     2   -->   2 G_2            
     e( 35 - 36) =      1.34079  eV     2   -->   2 G_2            
     e( 37 - 38) =      2.08370  eV     2   -->   2 G_2            
     e( 39 - 40) =      2.23219  eV     2   -->   2 G_2            
     e( 41 - 42) =      4.22478  eV     2   -->   2 G_2            
     e( 43 - 44) =      4.42183  eV     2   -->   2 G_2            
     e( 45 - 46) =      5.01320  eV     2   -->   2 G_2            
     e( 47 - 48) =      5.57645  eV     2   -->   2 G_2            
     e( 49 - 50) =      5.62178  eV     2   -->   2 G_2            
     e( 51 - 52) =      5.87733  eV     2   -->   2 G_2            
     e( 53 - 54) =      6.43597  eV     2   -->   2 G_2            
     e( 55 - 56) =      6.66279  eV     2   -->   2 G_2            
     e( 57 - 58) =      6.79455  eV     2   -->   2 G_2            
     e( 59 - 60) =      6.92012  eV     2   -->   2 G_2            
     e( 61 - 62) =      7.20400  eV     2   -->   2 G_2            
     e( 63 - 64) =      7.65155  eV     2   -->   2 G_2            
     e( 65 - 66) =      7.75697  eV     2   -->   2 G_2            
     e( 67 - 68) =      8.07131  eV     2   -->   2 G_2            
     e( 69 - 70) =      8.15006  eV     2   -->   2 G_2            
     e( 71 - 72) =      8.58988  eV     2   -->   2 G_2            
     e( 73 - 74) =      9.10485  eV     2   -->   2 G_2            
     e( 75 - 76) =      9.38210  eV     2   -->   2 G_2            
     e( 77 - 78) =      9.53870  eV     2   -->   2 G_2            
     e( 79 - 80) =      9.59302  eV     2   -->   2 G_2            
     e( 81 - 82) =      9.74881  eV     2   -->   2 G_2            
     e( 83 - 84) =     10.86843  eV     2   -->   2 G_2            
     e( 85 - 86) =     10.88922  eV     2   -->   2 G_2            
     e( 87 - 88) =     11.94621  eV     2   -->   2 G_2            
     e( 89 - 90) =     12.18909  eV     2   -->   2 G_2            
     e( 91 - 92) =     12.21500  eV     2   -->   2 G_2            
     e( 93 - 94) =     12.32070  eV     2   -->   2 G_2            
     e( 95 - 96) =     12.45367  eV     2   -->   2 G_2            
     e( 97 - 98) =     13.11295  eV     2   -->   2 G_2            
     e( 99 -100) =     13.79298  eV     2   -->   2 G_2            

 **************************************************************************

     BANDS        :  20m37.81s CPU  20m22.49s WALL


   This run was terminated on:  22:14:35  22Aug2025            

=------------------------------------------------------------------------------=
   JOB DONE.
=------------------------------------------------------------------------------=
