
     Program BANDS v.7.4.1 starts on 14Aug2025 at 17: 0:32 

     This program is part of the open-source Quantum ESPRESSO suite
     for quantum simulation of materials; please cite
         "P. Giannozzi et al., J. Phys.:Condens. Matter 21 395502 (2009);
         "P. Giannozzi et al., J. Phys.:Condens. Matter 29 465901 (2017);
         "P. Giannozzi et al., J. Chem. Phys. 152 154105 (2020);
          URL http://www.quantum-espresso.org", 
     in publications or presentations arising from this work. More details at
     http://www.quantum-espresso.org/quote

     Parallel version (MPI & OpenMP), running on      48 processor cores
     Number of MPI processes:                24
     Threads/MPI process:                     2

     MPI processes distributed on     2 nodes
     R & G space division:  proc/nbgrp/npool/nimage =      24
     79574 MiB available memory on the printing compute node when the environment starts


     Reading xml data from directory:

     tmp/Sb2Te3-uatsx-c2-soc-3.0.save/
Error reading attribute index: expected integer, found *
Error reading attribute index: expected integer, found *

     IMPORTANT: XC functional enforced from input :
     Exchange-correlation= PBE
                           (   1   4   3   4   0   0   0)
     Any further DFT definition will be discarded
     Please, verify this is what you really want


     Parallelization info
     --------------------
     sticks:   dense  smooth     PW     G-vecs:    dense   smooth      PW
     Min          97      39     11                19481     4929     747
     Max          98      40     12                19500     4946     765
     Sum        2349     941    267               467835   118417   18151

     Using Slab Decomposition

     Reading collected, re-writing distributed wavefunctions
     high-symmetry point:  0.0000 0.0000 0.0000   x coordinate   0.0000
     high-symmetry point:  0.5000 0.2887 0.0000   x coordinate   0.5774
     high-symmetry point:  0.3333 0.5889 0.0000   x coordinate   0.9207
     high-symmetry point:  0.0000 0.0000 0.0000   x coordinate   1.5974

     Plottable bands (eV) written to file ./bands/Sb2Te3-uatsx-c2-soc-3.0.bands.gnu
     Bands written to file ./bands/Sb2Te3-uatsx-c2-soc-3.0.bands

 **************************************************************************

                    xk=(   0.00000,   0.00000,   0.00000  )

     double point group C_1 (1)    
     there are  2 classes and  1 irreducible representations
     the character table:

       E     -E   
                  
G_2    1.00 -1.00

     the symmetry operations in each class and the name of the first element:

     E             1
                                                                 
     -E           -1
                                                                 

     Band symmetry, C_1 (1)     double point group:

     e(  1 -  2) =    -35.57443  eV     2   -->   2 G_2            
     e(  3 -  4) =    -35.56522  eV     2   -->   2 G_2            
     e(  5 -  6) =    -35.54325  eV     2   -->   2 G_2            
     e(  7 -  8) =    -35.53409  eV     2   -->   2 G_2            
     e(  9 - 10) =    -35.46641  eV     2   -->   2 G_2            
     e( 11 - 12) =    -35.43436  eV     2   -->   2 G_2            
     e( 13 - 14) =    -34.11560  eV     2   -->   2 G_2            
     e( 15 - 16) =    -34.10636  eV     2   -->   2 G_2            
     e( 17 - 18) =    -34.08930  eV     2   -->   2 G_2            
     e( 19 - 20) =    -34.08017  eV     2   -->   2 G_2            
     e( 21 - 22) =    -34.07510  eV     2   -->   2 G_2            
     e( 23 - 24) =    -34.06591  eV     2   -->   2 G_2            
     e( 25 - 26) =    -34.00438  eV     2   -->   2 G_2            
     e( 27 - 28) =    -33.98835  eV     2   -->   2 G_2            
     e( 29 - 30) =    -33.96247  eV     2   -->   2 G_2            
     e( 31 - 32) =    -28.21573  eV     2   -->   2 G_2            
     e( 33 - 34) =    -28.20970  eV     2   -->   2 G_2            
     e( 35 - 36) =    -28.20726  eV     2   -->   2 G_2            
     e( 37 - 38) =    -28.20130  eV     2   -->   2 G_2            
     e( 39 - 40) =    -26.97639  eV     2   -->   2 G_2            
     e( 41 - 42) =    -26.97035  eV     2   -->   2 G_2            
     e( 43 - 44) =    -26.96745  eV     2   -->   2 G_2            
     e( 45 - 46) =    -26.96499  eV     2   -->   2 G_2            
     e( 47 - 48) =    -26.96148  eV     2   -->   2 G_2            
     e( 49 - 50) =    -26.95903  eV     2   -->   2 G_2            
     e( 51 - 52) =    -10.67049  eV     2   -->   2 G_2            
     e( 53 - 54) =    -10.13436  eV     2   -->   2 G_2            
     e( 55 - 56) =     -9.05874  eV     2   -->   2 G_2            
     e( 57 - 58) =     -6.31384  eV     2   -->   2 G_2            
     e( 59 - 60) =     -4.94387  eV     2   -->   2 G_2            
     e( 61 - 62) =     -0.57311  eV     2   -->   2 G_2            
     e( 63 - 64) =     -0.12726  eV     2   -->   2 G_2            
     e( 65 - 66) =      0.15123  eV     2   -->   2 G_2            
     e( 67 - 68) =      0.40773  eV     2   -->   2 G_2            
     e( 69 - 70) =      0.47390  eV     2   -->   2 G_2            
     e( 71 - 72) =      0.58105  eV     2   -->   2 G_2            
     e( 73 - 74) =      0.85503  eV     2   -->   2 G_2            
     e( 75 - 76) =      1.15536  eV     2   -->   2 G_2            
     e( 77 - 78) =      1.32851  eV     2   -->   2 G_2            
     e( 79 - 80) =      1.97870  eV     2   -->   2 G_2            
     e( 81 - 82) =      2.63031  eV     2   -->   2 G_2            
     e( 83 - 84) =      2.99025  eV     2   -->   2 G_2            
     e( 85 - 86) =      3.18974  eV     2   -->   2 G_2            
     e( 87 - 88) =      3.91967  eV     2   -->   2 G_2            
     e( 89 - 90) =      4.11380  eV     2   -->   2 G_2            
     e( 91 - 92) =      6.15397  eV     2   -->   2 G_2            
     e( 93 - 94) =      6.34217  eV     2   -->   2 G_2            
     e( 95 - 96) =      6.95511  eV     2   -->   2 G_2            
     e( 97 - 98) =      7.38132  eV     2   -->   2 G_2            
     e( 99 -100) =      7.53518  eV     2   -->   2 G_2            

 **************************************************************************

 **************************************************************************

                    xk=(   0.00714,   0.00412,   0.00000  )

     Band symmetry, C_1 (1)     double point group:

     e(  1 -  2) =    -35.57443  eV     2   -->   2 G_2            
     e(  3 -  4) =    -35.56522  eV     2   -->   2 G_2            
     e(  5 -  6) =    -35.54325  eV     2   -->   2 G_2            
     e(  7 -  8) =    -35.53409  eV     2   -->   2 G_2            
     e(  9 - 10) =    -35.46641  eV     2   -->   2 G_2            
     e( 11 - 12) =    -35.43436  eV     2   -->   2 G_2            
     e( 13 - 14) =    -34.11560  eV     2   -->   2 G_2            
     e( 15 - 16) =    -34.10636  eV     2   -->   2 G_2            
     e( 17 - 18) =    -34.08930  eV     2   -->   2 G_2            
     e( 19 - 20) =    -34.08017  eV     2   -->   2 G_2            
     e( 21 - 22) =    -34.07510  eV     2   -->   2 G_2            
     e( 23 - 24) =    -34.06591  eV     2   -->   2 G_2            
     e( 25 - 26) =    -34.00438  eV     2   -->   2 G_2            
     e( 27 - 28) =    -33.98835  eV     2   -->   2 G_2            
     e( 29 - 30) =    -33.96247  eV     2   -->   2 G_2            
     e( 31 - 32) =    -28.21573  eV     2   -->   2 G_2            
     e( 33 - 34) =    -28.20970  eV     2   -->   2 G_2            
     e( 35 - 36) =    -28.20726  eV     2   -->   2 G_2            
     e( 37 - 38) =    -28.20130  eV     2   -->   2 G_2            
     e( 39 - 40) =    -26.97639  eV     2   -->   2 G_2            
     e( 41 - 42) =    -26.97035  eV     2   -->   2 G_2            
     e( 43 - 44) =    -26.96745  eV     2   -->   2 G_2            
     e( 45 - 46) =    -26.96499  eV     2   -->   2 G_2            
     e( 47 - 48) =    -26.96148  eV     2   -->   2 G_2            
     e( 49 - 50) =    -26.95903  eV     2   -->   2 G_2            
     e( 51 - 52) =    -10.67005  eV     2   -->   2 G_2            
     e( 53 - 54) =    -10.13396  eV     2   -->   2 G_2            
     e( 55 - 56) =     -9.05851  eV     2   -->   2 G_2            
     e( 57 - 58) =     -6.31390  eV     2   -->   2 G_2            
     e( 59 - 60) =     -4.94467  eV     2   -->   2 G_2            
     e( 61 - 62) =     -0.57391  eV     2   -->   2 G_2            
     e( 63 - 63) =     -0.13391  eV     1   --> G_2            
     e( 64 - 64) =     -0.13325  eV     1   --> G_2            
     e( 65 - 65) =      0.15208  eV     1   --> G_2            
     e( 66 - 66) =      0.15263  eV     1   --> G_2            
     e( 67 - 67) =      0.40262  eV     1   --> G_2            
     e( 68 - 68) =      0.40378  eV     1   --> G_2            
     e( 69 - 69) =      0.46254  eV     1   --> G_2            
     e( 70 - 70) =      0.46334  eV     1   --> G_2            
     e( 71 - 71) =      0.59048  eV     1   --> G_2            
     e( 72 - 72) =      0.59169  eV     1   --> G_2            
     e( 73 - 73) =      0.85743  eV     1   --> G_2            
     e( 74 - 74) =      0.85773  eV     1   --> G_2            
     e( 75 - 75) =      1.15261  eV     1   --> G_2            
     e( 76 - 76) =      1.15279  eV     1   --> G_2            
     e( 77 - 77) =      1.33070  eV     1   --> G_2            
     e( 78 - 78) =      1.33088  eV     1   --> G_2            
     e( 79 - 79) =      1.98508  eV     1   --> G_2            
     e( 80 - 80) =      1.98525  eV     1   --> G_2            
     e( 81 - 81) =      2.62935  eV     1   --> G_2            
     e( 82 - 82) =      2.62957  eV     1   --> G_2            
     e( 83 - 83) =      2.98398  eV     1   --> G_2            
     e( 84 - 84) =      2.98431  eV     1   --> G_2            
     e( 85 - 85) =      3.19688  eV     1   --> G_2            
     e( 86 - 86) =      3.19743  eV     1   --> G_2            
     e( 87 - 87) =      3.92163  eV     1   --> G_2            
     e( 88 - 88) =      3.92184  eV     1   --> G_2            
     e( 89 - 90) =      4.11347  eV     2   -->   2 G_2            
     e( 91 - 92) =      6.15473  eV     2   -->   2 G_2            
     e( 93 - 94) =      6.34228  eV     2   -->   2 G_2            
     e( 95 - 96) =      6.95527  eV     2   -->   2 G_2            
     e( 97 - 98) =      7.37887  eV     2   -->   2 G_2            
     e( 99 -100) =      7.53499  eV     2   -->   2 G_2            

 **************************************************************************

 **************************************************************************

                    xk=(   0.01429,   0.00825,   0.00000  )

     Band symmetry, C_1 (1)     double point group:

     e(  1 -  2) =    -35.57443  eV     2   -->   2 G_2            
     e(  3 -  4) =    -35.56522  eV     2   -->   2 G_2            
     e(  5 -  6) =    -35.54325  eV     2   -->   2 G_2            
     e(  7 -  8) =    -35.53409  eV     2   -->   2 G_2            
     e(  9 - 10) =    -35.46641  eV     2   -->   2 G_2            
     e( 11 - 12) =    -35.43436  eV     2   -->   2 G_2            
     e( 13 - 14) =    -34.11560  eV     2   -->   2 G_2            
     e( 15 - 16) =    -34.10636  eV     2   -->   2 G_2            
     e( 17 - 18) =    -34.08930  eV     2   -->   2 G_2            
     e( 19 - 20) =    -34.08017  eV     2   -->   2 G_2            
     e( 21 - 22) =    -34.07510  eV     2   -->   2 G_2            
     e( 23 - 24) =    -34.06591  eV     2   -->   2 G_2            
     e( 25 - 26) =    -34.00438  eV     2   -->   2 G_2            
     e( 27 - 28) =    -33.98835  eV     2   -->   2 G_2            
     e( 29 - 30) =    -33.96246  eV     2   -->   2 G_2            
     e( 31 - 32) =    -28.21573  eV     2   -->   2 G_2            
     e( 33 - 34) =    -28.20970  eV     2   -->   2 G_2            
     e( 35 - 36) =    -28.20726  eV     2   -->   2 G_2            
     e( 37 - 38) =    -28.20131  eV     2   -->   2 G_2            
     e( 39 - 40) =    -26.97639  eV     2   -->   2 G_2            
     e( 41 - 42) =    -26.97035  eV     2   -->   2 G_2            
     e( 43 - 44) =    -26.96746  eV     2   -->   2 G_2            
     e( 45 - 46) =    -26.96499  eV     2   -->   2 G_2            
     e( 47 - 48) =    -26.96149  eV     2   -->   2 G_2            
     e( 49 - 50) =    -26.95903  eV     2   -->   2 G_2            
     e( 51 - 52) =    -10.66881  eV     2   -->   2 G_2            
     e( 53 - 54) =    -10.13282  eV     2   -->   2 G_2            
     e( 55 - 56) =     -9.05783  eV     2   -->   2 G_2            
     e( 57 - 58) =     -6.31416  eV     2   -->   2 G_2            
     e( 59 - 60) =     -4.94714  eV     2   -->   2 G_2            
     e( 61 - 62) =     -0.57630  eV     2   -->   2 G_2            
     e( 63 - 63) =     -0.15241  eV     1   --> G_2            
     e( 64 - 64) =     -0.15119  eV     1   --> G_2            
     e( 65 - 65) =      0.15451  eV     1   --> G_2            
     e( 66 - 66) =      0.15549  eV     1   --> G_2            
     e( 67 - 67) =      0.38467  eV     1   --> G_2            
     e( 68 - 68) =      0.38724  eV     1   --> G_2            
     e( 69 - 69) =      0.44291  eV     1   --> G_2            
     e( 70 - 70) =      0.44445  eV     1   --> G_2            
     e( 71 - 71) =      0.61033  eV     1   --> G_2            
     e( 72 - 72) =      0.61207  eV     1   --> G_2            
     e( 73 - 73) =      0.86475  eV     1   --> G_2            
     e( 74 - 74) =      0.86533  eV     1   --> G_2            
     e( 75 - 75) =      1.14462  eV     1   --> G_2            
     e( 76 - 76) =      1.14497  eV     1   --> G_2            
     e( 77 - 77) =      1.33809  eV     1   --> G_2            
     e( 78 - 78) =      1.33846  eV     1   --> G_2            
     e( 79 - 79) =      2.00365  eV     1   --> G_2            
     e( 80 - 80) =      2.00400  eV     1   --> G_2            
     e( 81 - 81) =      2.62662  eV     1   --> G_2            
     e( 82 - 82) =      2.62705  eV     1   --> G_2            
     e( 83 - 83) =      2.96858  eV     1   --> G_2            
     e( 84 - 84) =      2.96913  eV     1   --> G_2            
     e( 85 - 85) =      3.21607  eV     1   --> G_2            
     e( 86 - 86) =      3.21705  eV     1   --> G_2            
     e( 87 - 87) =      3.92765  eV     1   --> G_2            
     e( 88 - 88) =      3.92807  eV     1   --> G_2            
     e( 89 - 90) =      4.11261  eV     2   -->   2 G_2            
     e( 91 - 92) =      6.15701  eV     2   -->   2 G_2            
     e( 93 - 94) =      6.34263  eV     2   -->   2 G_2            
     e( 95 - 96) =      6.95574  eV     2   -->   2 G_2            
     e( 97 - 98) =      7.37156  eV     2   -->   2 G_2            
     e( 99 -100) =      7.53453  eV     2   -->   2 G_2            

 **************************************************************************

 **************************************************************************

                    xk=(   0.02143,   0.01237,   0.00000  )

     Band symmetry, C_1 (1)     double point group:

     e(  1 -  2) =    -35.57443  eV     2   -->   2 G_2            
     e(  3 -  4) =    -35.56522  eV     2   -->   2 G_2            
     e(  5 -  6) =    -35.54325  eV     2   -->   2 G_2            
     e(  7 -  8) =    -35.53409  eV     2   -->   2 G_2            
     e(  9 - 10) =    -35.46641  eV     2   -->   2 G_2            
     e( 11 - 12) =    -35.43436  eV     2   -->   2 G_2            
     e( 13 - 14) =    -34.11559  eV     2   -->   2 G_2            
     e( 15 - 16) =    -34.10636  eV     2   -->   2 G_2            
     e( 17 - 18) =    -34.08930  eV     2   -->   2 G_2            
     e( 19 - 20) =    -34.08017  eV     2   -->   2 G_2            
     e( 21 - 22) =    -34.07510  eV     2   -->   2 G_2            
     e( 23 - 24) =    -34.06591  eV     2   -->   2 G_2            
     e( 25 - 26) =    -34.00438  eV     2   -->   2 G_2            
     e( 27 - 28) =    -33.98835  eV     2   -->   2 G_2            
     e( 29 - 30) =    -33.96246  eV     2   -->   2 G_2            
     e( 31 - 32) =    -28.21573  eV     2   -->   2 G_2            
     e( 33 - 34) =    -28.20970  eV     2   -->   2 G_2            
     e( 35 - 36) =    -28.20727  eV     2   -->   2 G_2            
     e( 37 - 38) =    -28.20131  eV     2   -->   2 G_2            
     e( 39 - 40) =    -26.97639  eV     2   -->   2 G_2            
     e( 41 - 42) =    -26.97035  eV     2   -->   2 G_2            
     e( 43 - 44) =    -26.96747  eV     2   -->   2 G_2            
     e( 45 - 46) =    -26.96499  eV     2   -->   2 G_2            
     e( 47 - 48) =    -26.96149  eV     2   -->   2 G_2            
     e( 49 - 50) =    -26.95904  eV     2   -->   2 G_2            
     e( 51 - 52) =    -10.66670  eV     2   -->   2 G_2            
     e( 53 - 54) =    -10.13090  eV     2   -->   2 G_2            
     e( 55 - 56) =     -9.05668  eV     2   -->   2 G_2            
     e( 57 - 58) =     -6.31458  eV     2   -->   2 G_2            
     e( 59 - 60) =     -4.95120  eV     2   -->   2 G_2            
     e( 61 - 61) =     -0.58028  eV     1   --> G_2            
     e( 62 - 62) =     -0.58018  eV     1   --> G_2            
     e( 63 - 63) =     -0.18103  eV     1   --> G_2            
     e( 64 - 64) =     -0.17934  eV     1   --> G_2            
     e( 65 - 65) =      0.15685  eV     1   --> G_2            
     e( 66 - 66) =      0.15810  eV     1   --> G_2            
     e( 67 - 67) =      0.35131  eV     1   --> G_2            
     e( 68 - 68) =      0.35454  eV     1   --> G_2            
     e( 69 - 69) =      0.42953  eV     1   --> G_2            
     e( 70 - 70) =      0.43143  eV     1   --> G_2            
     e( 71 - 71) =      0.62936  eV     1   --> G_2            
     e( 72 - 72) =      0.63127  eV     1   --> G_2            
     e( 73 - 73) =      0.87623  eV     1   --> G_2            
     e( 74 - 74) =      0.87705  eV     1   --> G_2            
     e( 75 - 75) =      1.13238  eV     1   --> G_2            
     e( 76 - 76) =      1.13290  eV     1   --> G_2            
     e( 77 - 77) =      1.35182  eV     1   --> G_2            
     e( 78 - 78) =      1.35240  eV     1   --> G_2            
     e( 79 - 79) =      2.03244  eV     1   --> G_2            
     e( 80 - 80) =      2.03294  eV     1   --> G_2            
     e( 81 - 81) =      2.62198  eV     1   --> G_2            
     e( 82 - 82) =      2.62259  eV     1   --> G_2            
     e( 83 - 83) =      2.94978  eV     1   --> G_2            
     e( 84 - 84) =      2.95045  eV     1   --> G_2            
     e( 85 - 85) =      3.24216  eV     1   --> G_2            
     e( 86 - 86) =      3.24344  eV     1   --> G_2            
     e( 87 - 87) =      3.93745  eV     1   --> G_2            
     e( 88 - 88) =      3.93809  eV     1   --> G_2            
     e( 89 - 89) =      4.11149  eV     1   --> G_2            
     e( 90 - 90) =      4.11160  eV     1   --> G_2            
     e( 91 - 92) =      6.16080  eV     2   -->   2 G_2            
     e( 93 - 94) =      6.34321  eV     2   -->   2 G_2            
     e( 95 - 96) =      6.95643  eV     2   -->   2 G_2            
     e( 97 - 98) =      7.35954  eV     2   -->   2 G_2            
     e( 99 -100) =      7.53397  eV     2   -->   2 G_2            

 **************************************************************************

 **************************************************************************

                    xk=(   0.02857,   0.01650,   0.00000  )

     Band symmetry, C_1 (1)     double point group:

     e(  1 -  2) =    -35.57442  eV     2   -->   2 G_2            
     e(  3 -  4) =    -35.56521  eV     2   -->   2 G_2            
     e(  5 -  6) =    -35.54325  eV     2   -->   2 G_2            
     e(  7 -  8) =    -35.53409  eV     2   -->   2 G_2            
     e(  9 - 10) =    -35.46641  eV     2   -->   2 G_2            
     e( 11 - 12) =    -35.43436  eV     2   -->   2 G_2            
     e( 13 - 14) =    -34.11559  eV     2   -->   2 G_2            
     e( 15 - 16) =    -34.10636  eV     2   -->   2 G_2            
     e( 17 - 18) =    -34.08930  eV     2   -->   2 G_2            
     e( 19 - 20) =    -34.08017  eV     2   -->   2 G_2            
     e( 21 - 22) =    -34.07510  eV     2   -->   2 G_2            
     e( 23 - 24) =    -34.06591  eV     2   -->   2 G_2            
     e( 25 - 26) =    -34.00438  eV     2   -->   2 G_2            
     e( 27 - 28) =    -33.98835  eV     2   -->   2 G_2            
     e( 29 - 30) =    -33.96246  eV     2   -->   2 G_2            
     e( 31 - 32) =    -28.21573  eV     2   -->   2 G_2            
     e( 33 - 34) =    -28.20970  eV     2   -->   2 G_2            
     e( 35 - 36) =    -28.20727  eV     2   -->   2 G_2            
     e( 37 - 38) =    -28.20131  eV     2   -->   2 G_2            
     e( 39 - 40) =    -26.97638  eV     2   -->   2 G_2            
     e( 41 - 42) =    -26.97034  eV     2   -->   2 G_2            
     e( 43 - 44) =    -26.96747  eV     2   -->   2 G_2            
     e( 45 - 46) =    -26.96499  eV     2   -->   2 G_2            
     e( 47 - 48) =    -26.96150  eV     2   -->   2 G_2            
     e( 49 - 50) =    -26.95904  eV     2   -->   2 G_2            
     e( 51 - 52) =    -10.66374  eV     2   -->   2 G_2            
     e( 53 - 54) =    -10.12822  eV     2   -->   2 G_2            
     e( 55 - 56) =     -9.05506  eV     2   -->   2 G_2            
     e( 57 - 58) =     -6.31516  eV     2   -->   2 G_2            
     e( 59 - 60) =     -4.95688  eV     2   -->   2 G_2            
     e( 61 - 61) =     -0.58591  eV     1   --> G_2            
     e( 62 - 62) =     -0.58579  eV     1   --> G_2            
     e( 63 - 63) =     -0.21780  eV     1   --> G_2            
     e( 64 - 64) =     -0.21574  eV     1   --> G_2            
     e( 65 - 65) =      0.15732  eV     1   --> G_2            
     e( 66 - 66) =      0.15865  eV     1   --> G_2            
     e( 67 - 67) =      0.30895  eV     1   --> G_2            
     e( 68 - 68) =      0.31227  eV     1   --> G_2            
     e( 69 - 69) =      0.42076  eV     1   --> G_2            
     e( 70 - 70) =      0.42262  eV     1   --> G_2            
     e( 71 - 71) =      0.64316  eV     1   --> G_2            
     e( 72 - 72) =      0.64509  eV     1   --> G_2            
     e( 73 - 73) =      0.88999  eV     1   --> G_2            
     e( 74 - 74) =      0.89099  eV     1   --> G_2            
     e( 75 - 75) =      1.11869  eV     1   --> G_2            
     e( 76 - 76) =      1.11938  eV     1   --> G_2            
     e( 77 - 77) =      1.37223  eV     1   --> G_2            
     e( 78 - 78) =      1.37300  eV     1   --> G_2            
     e( 79 - 79) =      2.06874  eV     1   --> G_2            
     e( 80 - 80) =      2.06939  eV     1   --> G_2            
     e( 81 - 81) =      2.61545  eV     1   --> G_2            
     e( 82 - 82) =      2.61619  eV     1   --> G_2            
     e( 83 - 83) =      2.93230  eV     1   --> G_2            
     e( 84 - 84) =      2.93301  eV     1   --> G_2            
     e( 85 - 85) =      3.27118  eV     1   --> G_2            
     e( 86 - 86) =      3.27269  eV     1   --> G_2            
     e( 87 - 87) =      3.95050  eV     1   --> G_2            
     e( 88 - 88) =      3.95138  eV     1   --> G_2            
     e( 89 - 89) =      4.11067  eV     1   --> G_2            
     e( 90 - 90) =      4.11083  eV     1   --> G_2            
     e( 91 - 91) =      6.16608  eV     1   --> G_2            
     e( 92 - 92) =      6.16619  eV     1   --> G_2            
     e( 93 - 93) =      6.34400  eV     1   --> G_2            
     e( 94 - 94) =      6.34410  eV     1   --> G_2            
     e( 95 - 96) =      6.95718  eV     2   -->   2 G_2            
     e( 97 - 98) =      7.34316  eV     2   -->   2 G_2            
     e( 99 -100) =      7.53352  eV     2   -->   2 G_2            

 **************************************************************************

 **************************************************************************

                    xk=(   0.03571,   0.02062,   0.00000  )

     Band symmetry, C_1 (1)     double point group:

     e(  1 -  2) =    -35.57442  eV     2   -->   2 G_2            
     e(  3 -  4) =    -35.56521  eV     2   -->   2 G_2            
     e(  5 -  6) =    -35.54325  eV     2   -->   2 G_2            
     e(  7 -  8) =    -35.53409  eV     2   -->   2 G_2            
     e(  9 - 10) =    -35.46641  eV     2   -->   2 G_2            
     e( 11 - 12) =    -35.43436  eV     2   -->   2 G_2            
     e( 13 - 14) =    -34.11559  eV     2   -->   2 G_2            
     e( 15 - 16) =    -34.10636  eV     2   -->   2 G_2            
     e( 17 - 18) =    -34.08930  eV     2   -->   2 G_2            
     e( 19 - 20) =    -34.08017  eV     2   -->   2 G_2            
     e( 21 - 22) =    -34.07510  eV     2   -->   2 G_2            
     e( 23 - 24) =    -34.06591  eV     2   -->   2 G_2            
     e( 25 - 26) =    -34.00438  eV     2   -->   2 G_2            
     e( 27 - 28) =    -33.98835  eV     2   -->   2 G_2            
     e( 29 - 30) =    -33.96246  eV     2   -->   2 G_2            
     e( 31 - 32) =    -28.21573  eV     2   -->   2 G_2            
     e( 33 - 34) =    -28.20970  eV     2   -->   2 G_2            
     e( 35 - 36) =    -28.20727  eV     2   -->   2 G_2            
     e( 37 - 38) =    -28.20132  eV     2   -->   2 G_2            
     e( 39 - 40) =    -26.97638  eV     2   -->   2 G_2            
     e( 41 - 42) =    -26.97034  eV     2   -->   2 G_2            
     e( 43 - 44) =    -26.96748  eV     2   -->   2 G_2            
     e( 45 - 46) =    -26.96499  eV     2   -->   2 G_2            
     e( 47 - 48) =    -26.96151  eV     2   -->   2 G_2            
     e( 49 - 50) =    -26.95904  eV     2   -->   2 G_2            
     e( 51 - 52) =    -10.65995  eV     2   -->   2 G_2            
     e( 53 - 54) =    -10.12477  eV     2   -->   2 G_2            
     e( 55 - 56) =     -9.05300  eV     2   -->   2 G_2            
     e( 57 - 58) =     -6.31595  eV     2   -->   2 G_2            
     e( 59 - 60) =     -4.96414  eV     2   -->   2 G_2            
     e( 61 - 61) =     -0.59325  eV     1   --> G_2            
     e( 62 - 62) =     -0.59313  eV     1   --> G_2            
     e( 63 - 63) =     -0.26105  eV     1   --> G_2            
     e( 64 - 64) =     -0.25868  eV     1   --> G_2            
     e( 65 - 65) =      0.15444  eV     1   --> G_2            
     e( 66 - 66) =      0.15563  eV     1   --> G_2            
     e( 67 - 67) =      0.26320  eV     1   --> G_2            
     e( 68 - 68) =      0.26642  eV     1   --> G_2            
     e( 69 - 69) =      0.41292  eV     1   --> G_2            
     e( 70 - 70) =      0.41465  eV     1   --> G_2            
     e( 71 - 71) =      0.65030  eV     1   --> G_2            
     e( 72 - 72) =      0.65218  eV     1   --> G_2            
     e( 73 - 73) =      0.90294  eV     1   --> G_2            
     e( 74 - 74) =      0.90404  eV     1   --> G_2            
     e( 75 - 75) =      1.10824  eV     1   --> G_2            
     e( 76 - 76) =      1.10906  eV     1   --> G_2            
     e( 77 - 77) =      1.39845  eV     1   --> G_2            
     e( 78 - 78) =      1.39939  eV     1   --> G_2            
     e( 79 - 79) =      2.10954  eV     1   --> G_2            
     e( 80 - 80) =      2.11033  eV     1   --> G_2            
     e( 81 - 81) =      2.60760  eV     1   --> G_2            
     e( 82 - 82) =      2.60838  eV     1   --> G_2            
     e( 83 - 83) =      2.91915  eV     1   --> G_2            
     e( 84 - 84) =      2.91986  eV     1   --> G_2            
     e( 85 - 85) =      3.30079  eV     1   --> G_2            
     e( 86 - 86) =      3.30248  eV     1   --> G_2            
     e( 87 - 87) =      3.96588  eV     1   --> G_2            
     e( 88 - 88) =      3.96701  eV     1   --> G_2            
     e( 89 - 89) =      4.11105  eV     1   --> G_2            
     e( 90 - 90) =      4.11129  eV     1   --> G_2            
     e( 91 - 91) =      6.17282  eV     1   --> G_2            
     e( 92 - 92) =      6.17296  eV     1   --> G_2            
     e( 93 - 93) =      6.34498  eV     1   --> G_2            
     e( 94 - 94) =      6.34511  eV     1   --> G_2            
     e( 95 - 96) =      6.95775  eV     2   -->   2 G_2            
     e( 97 - 98) =      7.32305  eV     2   -->   2 G_2            
     e( 99 -100) =      7.53335  eV     2   -->   2 G_2            

 **************************************************************************

 **************************************************************************

                    xk=(   0.04286,   0.02474,   0.00000  )

     Band symmetry, C_1 (1)     double point group:

     e(  1 -  2) =    -35.57442  eV     2   -->   2 G_2            
     e(  3 -  4) =    -35.56521  eV     2   -->   2 G_2            
     e(  5 -  6) =    -35.54325  eV     2   -->   2 G_2            
     e(  7 -  8) =    -35.53409  eV     2   -->   2 G_2            
     e(  9 - 10) =    -35.46641  eV     2   -->   2 G_2            
     e( 11 - 12) =    -35.43436  eV     2   -->   2 G_2            
     e( 13 - 14) =    -34.11559  eV     2   -->   2 G_2            
     e( 15 - 16) =    -34.10635  eV     2   -->   2 G_2            
     e( 17 - 18) =    -34.08930  eV     2   -->   2 G_2            
     e( 19 - 20) =    -34.08017  eV     2   -->   2 G_2            
     e( 21 - 22) =    -34.07510  eV     2   -->   2 G_2            
     e( 23 - 24) =    -34.06591  eV     2   -->   2 G_2            
     e( 25 - 26) =    -34.00437  eV     2   -->   2 G_2            
     e( 27 - 28) =    -33.98835  eV     2   -->   2 G_2            
     e( 29 - 30) =    -33.96245  eV     2   -->   2 G_2            
     e( 31 - 32) =    -28.21573  eV     2   -->   2 G_2            
     e( 33 - 34) =    -28.20970  eV     2   -->   2 G_2            
     e( 35 - 36) =    -28.20728  eV     2   -->   2 G_2            
     e( 37 - 38) =    -28.20132  eV     2   -->   2 G_2            
     e( 39 - 40) =    -26.97637  eV     2   -->   2 G_2            
     e( 41 - 42) =    -26.97033  eV     2   -->   2 G_2            
     e( 43 - 44) =    -26.96749  eV     2   -->   2 G_2            
     e( 45 - 46) =    -26.96500  eV     2   -->   2 G_2            
     e( 47 - 48) =    -26.96152  eV     2   -->   2 G_2            
     e( 49 - 50) =    -26.95904  eV     2   -->   2 G_2            
     e( 51 - 52) =    -10.65534  eV     2   -->   2 G_2            
     e( 53 - 54) =    -10.12056  eV     2   -->   2 G_2            
     e( 55 - 56) =     -9.05052  eV     2   -->   2 G_2            
     e( 57 - 58) =     -6.31695  eV     2   -->   2 G_2            
     e( 59 - 60) =     -4.97305  eV     2   -->   2 G_2            
     e( 61 - 61) =     -0.60244  eV     1   --> G_2            
     e( 62 - 62) =     -0.60230  eV     1   --> G_2            
     e( 63 - 63) =     -0.30939  eV     1   --> G_2            
     e( 64 - 64) =     -0.30673  eV     1   --> G_2            
     e( 65 - 65) =      0.14689  eV     1   --> G_2            
     e( 66 - 66) =      0.14763  eV     1   --> G_2            
     e( 67 - 67) =      0.21723  eV     1   --> G_2            
     e( 68 - 68) =      0.22018  eV     1   --> G_2            
     e( 69 - 69) =      0.40441  eV     1   --> G_2            
     e( 70 - 70) =      0.40602  eV     1   --> G_2            
     e( 71 - 71) =      0.65037  eV     1   --> G_2            
     e( 72 - 72) =      0.65216  eV     1   --> G_2            
     e( 73 - 73) =      0.91176  eV     1   --> G_2            
     e( 74 - 74) =      0.91284  eV     1   --> G_2            
     e( 75 - 75) =      1.10615  eV     1   --> G_2            
     e( 76 - 76) =      1.10698  eV     1   --> G_2            
     e( 77 - 77) =      1.42891  eV     1   --> G_2            
     e( 78 - 78) =      1.42996  eV     1   --> G_2            
     e( 79 - 79) =      2.15170  eV     1   --> G_2            
     e( 80 - 80) =      2.15263  eV     1   --> G_2            
     e( 81 - 81) =      2.59993  eV     1   --> G_2            
     e( 82 - 82) =      2.60066  eV     1   --> G_2            
     e( 83 - 83) =      2.91202  eV     1   --> G_2            
     e( 84 - 84) =      2.91267  eV     1   --> G_2            
     e( 85 - 85) =      3.32968  eV     1   --> G_2            
     e( 86 - 86) =      3.33153  eV     1   --> G_2            
     e( 87 - 87) =      3.98207  eV     1   --> G_2            
     e( 88 - 88) =      3.98347  eV     1   --> G_2            
     e( 89 - 89) =      4.11411  eV     1   --> G_2            
     e( 90 - 90) =      4.11448  eV     1   --> G_2            
     e( 91 - 91) =      6.18098  eV     1   --> G_2            
     e( 92 - 92) =      6.18115  eV     1   --> G_2            
     e( 93 - 93) =      6.34611  eV     1   --> G_2            
     e( 94 - 94) =      6.34627  eV     1   --> G_2            
     e( 95 - 96) =      6.95776  eV     2   -->   2 G_2            
     e( 97 - 98) =      7.30013  eV     2   -->   2 G_2            
     e( 99 - 99) =      7.53351  eV     1   --> G_2            
     e(100 -100) =      7.53361  eV     1   --> G_2            

 **************************************************************************

 **************************************************************************

                    xk=(   0.05000,   0.02887,   0.00000  )

     Band symmetry, C_1 (1)     double point group:

     e(  1 -  2) =    -35.57442  eV     2   -->   2 G_2            
     e(  3 -  4) =    -35.56521  eV     2   -->   2 G_2            
     e(  5 -  6) =    -35.54325  eV     2   -->   2 G_2            
     e(  7 -  8) =    -35.53409  eV     2   -->   2 G_2            
     e(  9 - 10) =    -35.46641  eV     2   -->   2 G_2            
     e( 11 - 12) =    -35.43436  eV     2   -->   2 G_2            
     e( 13 - 14) =    -34.11558  eV     2   -->   2 G_2            
     e( 15 - 16) =    -34.10635  eV     2   -->   2 G_2            
     e( 17 - 18) =    -34.08930  eV     2   -->   2 G_2            
     e( 19 - 20) =    -34.08017  eV     2   -->   2 G_2            
     e( 21 - 22) =    -34.07510  eV     2   -->   2 G_2            
     e( 23 - 24) =    -34.06591  eV     2   -->   2 G_2            
     e( 25 - 26) =    -34.00437  eV     2   -->   2 G_2            
     e( 27 - 28) =    -33.98835  eV     2   -->   2 G_2            
     e( 29 - 30) =    -33.96245  eV     2   -->   2 G_2            
     e( 31 - 32) =    -28.21573  eV     2   -->   2 G_2            
     e( 33 - 34) =    -28.20969  eV     2   -->   2 G_2            
     e( 35 - 36) =    -28.20728  eV     2   -->   2 G_2            
     e( 37 - 38) =    -28.20132  eV     2   -->   2 G_2            
     e( 39 - 40) =    -26.97636  eV     2   -->   2 G_2            
     e( 41 - 42) =    -26.97032  eV     2   -->   2 G_2            
     e( 43 - 44) =    -26.96750  eV     2   -->   2 G_2            
     e( 45 - 46) =    -26.96500  eV     2   -->   2 G_2            
     e( 47 - 48) =    -26.96152  eV     2   -->   2 G_2            
     e( 49 - 50) =    -26.95904  eV     2   -->   2 G_2            
     e( 51 - 52) =    -10.64987  eV     2   -->   2 G_2            
     e( 53 - 54) =    -10.11559  eV     2   -->   2 G_2            
     e( 55 - 56) =     -9.04759  eV     2   -->   2 G_2            
     e( 57 - 58) =     -6.31816  eV     2   -->   2 G_2            
     e( 59 - 60) =     -4.98356  eV     2   -->   2 G_2            
     e( 61 - 61) =     -0.61370  eV     1   --> G_2            
     e( 62 - 62) =     -0.61347  eV     1   --> G_2            
     e( 63 - 63) =     -0.36166  eV     1   --> G_2            
     e( 64 - 64) =     -0.35869  eV     1   --> G_2            
     e( 65 - 65) =      0.13099  eV     1   --> G_2            
     e( 66 - 66) =      0.13198  eV     1   --> G_2            
     e( 67 - 67) =      0.17525  eV     1   --> G_2            
     e( 68 - 68) =      0.17762  eV     1   --> G_2            
     e( 69 - 69) =      0.39432  eV     1   --> G_2            
     e( 70 - 70) =      0.39587  eV     1   --> G_2            
     e( 71 - 71) =      0.64329  eV     1   --> G_2            
     e( 72 - 72) =      0.64494  eV     1   --> G_2            
     e( 73 - 73) =      0.91527  eV     1   --> G_2            
     e( 74 - 74) =      0.91619  eV     1   --> G_2            
     e( 75 - 75) =      1.11521  eV     1   --> G_2            
     e( 76 - 76) =      1.11596  eV     1   --> G_2            
     e( 77 - 77) =      1.46168  eV     1   --> G_2            
     e( 78 - 78) =      1.46280  eV     1   --> G_2            
     e( 79 - 79) =      2.19196  eV     1   --> G_2            
     e( 80 - 80) =      2.19303  eV     1   --> G_2            
     e( 81 - 81) =      2.59516  eV     1   --> G_2            
     e( 82 - 82) =      2.59573  eV     1   --> G_2            
     e( 83 - 83) =      2.91149  eV     1   --> G_2            
     e( 84 - 84) =      2.91205  eV     1   --> G_2            
     e( 85 - 85) =      3.35719  eV     1   --> G_2            
     e( 86 - 86) =      3.35917  eV     1   --> G_2            
     e( 87 - 87) =      3.99697  eV     1   --> G_2            
     e( 88 - 88) =      3.99863  eV     1   --> G_2            
     e( 89 - 89) =      4.12190  eV     1   --> G_2            
     e( 90 - 90) =      4.12242  eV     1   --> G_2            
     e( 91 - 91) =      6.19050  eV     1   --> G_2            
     e( 92 - 92) =      6.19070  eV     1   --> G_2            
     e( 93 - 93) =      6.34734  eV     1   --> G_2            
     e( 94 - 94) =      6.34753  eV     1   --> G_2            
     e( 95 - 95) =      6.95669  eV     1   --> G_2            
     e( 96 - 96) =      6.95679  eV     1   --> G_2            
     e( 97 - 97) =      7.27562  eV     1   --> G_2            
     e( 98 - 98) =      7.27574  eV     1   --> G_2            
     e( 99 - 99) =      7.53403  eV     1   --> G_2            
     e(100 -100) =      7.53413  eV     1   --> G_2            

 **************************************************************************

 **************************************************************************

                    xk=(   0.05714,   0.03299,   0.00000  )

     Band symmetry, C_1 (1)     double point group:

     e(  1 -  2) =    -35.57441  eV     2   -->   2 G_2            
     e(  3 -  4) =    -35.56520  eV     2   -->   2 G_2            
     e(  5 -  6) =    -35.54325  eV     2   -->   2 G_2            
     e(  7 -  8) =    -35.53409  eV     2   -->   2 G_2            
     e(  9 - 10) =    -35.46641  eV     2   -->   2 G_2            
     e( 11 - 12) =    -35.43435  eV     2   -->   2 G_2            
     e( 13 - 14) =    -34.11558  eV     2   -->   2 G_2            
     e( 15 - 16) =    -34.10634  eV     2   -->   2 G_2            
     e( 17 - 18) =    -34.08930  eV     2   -->   2 G_2            
     e( 19 - 20) =    -34.08017  eV     2   -->   2 G_2            
     e( 21 - 22) =    -34.07510  eV     2   -->   2 G_2            
     e( 23 - 24) =    -34.06591  eV     2   -->   2 G_2            
     e( 25 - 26) =    -34.00437  eV     2   -->   2 G_2            
     e( 27 - 28) =    -33.98835  eV     2   -->   2 G_2            
     e( 29 - 30) =    -33.96245  eV     2   -->   2 G_2            
     e( 31 - 32) =    -28.21572  eV     2   -->   2 G_2            
     e( 33 - 34) =    -28.20969  eV     2   -->   2 G_2            
     e( 35 - 36) =    -28.20728  eV     2   -->   2 G_2            
     e( 37 - 38) =    -28.20133  eV     2   -->   2 G_2            
     e( 39 - 40) =    -26.97635  eV     2   -->   2 G_2            
     e( 41 - 42) =    -26.97031  eV     2   -->   2 G_2            
     e( 43 - 44) =    -26.96751  eV     2   -->   2 G_2            
     e( 45 - 46) =    -26.96500  eV     2   -->   2 G_2            
     e( 47 - 48) =    -26.96153  eV     2   -->   2 G_2            
     e( 49 - 50) =    -26.95904  eV     2   -->   2 G_2            
     e( 51 - 52) =    -10.64358  eV     2   -->   2 G_2            
     e( 53 - 54) =    -10.10987  eV     2   -->   2 G_2            
     e( 55 - 56) =     -9.04420  eV     2   -->   2 G_2            
     e( 57 - 58) =     -6.31959  eV     2   -->   2 G_2            
     e( 59 - 60) =     -4.99568  eV     2   -->   2 G_2            
     e( 61 - 61) =     -0.62741  eV     1   --> G_2            
     e( 62 - 62) =     -0.62699  eV     1   --> G_2            
     e( 63 - 63) =     -0.41669  eV     1   --> G_2            
     e( 64 - 64) =     -0.41337  eV     1   --> G_2            
     e( 65 - 65) =      0.09903  eV     1   --> G_2            
     e( 66 - 66) =      0.10182  eV     1   --> G_2            
     e( 67 - 67) =      0.14501  eV     1   --> G_2            
     e( 68 - 68) =      0.14719  eV     1   --> G_2            
     e( 69 - 69) =      0.38189  eV     1   --> G_2            
     e( 70 - 70) =      0.38350  eV     1   --> G_2            
     e( 71 - 71) =      0.62940  eV     1   --> G_2            
     e( 72 - 72) =      0.63090  eV     1   --> G_2            
     e( 73 - 73) =      0.91549  eV     1   --> G_2            
     e( 74 - 74) =      0.91624  eV     1   --> G_2            
     e( 75 - 75) =      1.13433  eV     1   --> G_2            
     e( 76 - 76) =      1.13499  eV     1   --> G_2            
     e( 77 - 77) =      1.49465  eV     1   --> G_2            
     e( 78 - 78) =      1.49581  eV     1   --> G_2            
     e( 79 - 79) =      2.22712  eV     1   --> G_2            
     e( 80 - 80) =      2.22835  eV     1   --> G_2            
     e( 81 - 81) =      2.59678  eV     1   --> G_2            
     e( 82 - 82) =      2.59714  eV     1   --> G_2            
     e( 83 - 83) =      2.91746  eV     1   --> G_2            
     e( 84 - 84) =      2.91787  eV     1   --> G_2            
     e( 85 - 85) =      3.38301  eV     1   --> G_2            
     e( 86 - 86) =      3.38511  eV     1   --> G_2            
     e( 87 - 87) =      4.00850  eV     1   --> G_2            
     e( 88 - 88) =      4.01036  eV     1   --> G_2            
     e( 89 - 89) =      4.13644  eV     1   --> G_2            
     e( 90 - 90) =      4.13708  eV     1   --> G_2            
     e( 91 - 91) =      6.20133  eV     1   --> G_2            
     e( 92 - 92) =      6.20157  eV     1   --> G_2            
     e( 93 - 93) =      6.34861  eV     1   --> G_2            
     e( 94 - 94) =      6.34883  eV     1   --> G_2            
     e( 95 - 95) =      6.95383  eV     1   --> G_2            
     e( 96 - 96) =      6.95395  eV     1   --> G_2            
     e( 97 - 97) =      7.25096  eV     1   --> G_2            
     e( 98 - 98) =      7.25110  eV     1   --> G_2            
     e( 99 - 99) =      7.53487  eV     1   --> G_2            
     e(100 -100) =      7.53498  eV     1   --> G_2            

 **************************************************************************

 **************************************************************************

                    xk=(   0.06429,   0.03712,   0.00000  )

     Band symmetry, C_1 (1)     double point group:

     e(  1 -  2) =    -35.57441  eV     2   -->   2 G_2            
     e(  3 -  4) =    -35.56520  eV     2   -->   2 G_2            
     e(  5 -  6) =    -35.54325  eV     2   -->   2 G_2            
     e(  7 -  8) =    -35.53409  eV     2   -->   2 G_2            
     e(  9 - 10) =    -35.46641  eV     2   -->   2 G_2            
     e( 11 - 12) =    -35.43435  eV     2   -->   2 G_2            
     e( 13 - 14) =    -34.11557  eV     2   -->   2 G_2            
     e( 15 - 16) =    -34.10634  eV     2   -->   2 G_2            
     e( 17 - 18) =    -34.08930  eV     2   -->   2 G_2            
     e( 19 - 20) =    -34.08017  eV     2   -->   2 G_2            
     e( 21 - 22) =    -34.07509  eV     2   -->   2 G_2            
     e( 23 - 24) =    -34.06591  eV     2   -->   2 G_2            
     e( 25 - 26) =    -34.00437  eV     2   -->   2 G_2            
     e( 27 - 28) =    -33.98835  eV     2   -->   2 G_2            
     e( 29 - 30) =    -33.96244  eV     2   -->   2 G_2            
     e( 31 - 32) =    -28.21572  eV     2   -->   2 G_2            
     e( 33 - 34) =    -28.20969  eV     2   -->   2 G_2            
     e( 35 - 36) =    -28.20729  eV     2   -->   2 G_2            
     e( 37 - 38) =    -28.20133  eV     2   -->   2 G_2            
     e( 39 - 40) =    -26.97634  eV     2   -->   2 G_2            
     e( 41 - 42) =    -26.97030  eV     2   -->   2 G_2            
     e( 43 - 44) =    -26.96752  eV     2   -->   2 G_2            
     e( 45 - 46) =    -26.96500  eV     2   -->   2 G_2            
     e( 47 - 48) =    -26.96154  eV     2   -->   2 G_2            
     e( 49 - 50) =    -26.95904  eV     2   -->   2 G_2            
     e( 51 - 52) =    -10.63646  eV     2   -->   2 G_2            
     e( 53 - 54) =    -10.10341  eV     2   -->   2 G_2            
     e( 55 - 56) =     -9.04040  eV     2   -->   2 G_2            
     e( 57 - 58) =     -6.32125  eV     2   -->   2 G_2            
     e( 59 - 60) =     -5.00940  eV     2   -->   2 G_2            
     e( 61 - 61) =     -0.64432  eV     1   --> G_2            
     e( 62 - 62) =     -0.64355  eV     1   --> G_2            
     e( 63 - 63) =     -0.47310  eV     1   --> G_2            
     e( 64 - 64) =     -0.46933  eV     1   --> G_2            
     e( 65 - 65) =      0.05545  eV     1   --> G_2            
     e( 66 - 66) =      0.05874  eV     1   --> G_2            
     e( 67 - 67) =      0.12435  eV     1   --> G_2            
     e( 68 - 68) =      0.12638  eV     1   --> G_2            
     e( 69 - 69) =      0.36640  eV     1   --> G_2            
     e( 70 - 70) =      0.36823  eV     1   --> G_2            
     e( 71 - 71) =      0.60976  eV     1   --> G_2            
     e( 72 - 72) =      0.61114  eV     1   --> G_2            
     e( 73 - 73) =      0.91552  eV     1   --> G_2            
     e( 74 - 74) =      0.91617  eV     1   --> G_2            
     e( 75 - 75) =      1.16041  eV     1   --> G_2            
     e( 76 - 76) =      1.16105  eV     1   --> G_2            
     e( 77 - 77) =      1.52562  eV     1   --> G_2            
     e( 78 - 78) =      1.52680  eV     1   --> G_2            
     e( 79 - 79) =      2.25490  eV     1   --> G_2            
     e( 80 - 80) =      2.25627  eV     1   --> G_2            
     e( 81 - 81) =      2.60789  eV     1   --> G_2            
     e( 82 - 82) =      2.60822  eV     1   --> G_2            
     e( 83 - 83) =      2.92945  eV     1   --> G_2            
     e( 84 - 84) =      2.92970  eV     1   --> G_2            
     e( 85 - 85) =      3.40712  eV     1   --> G_2            
     e( 86 - 86) =      3.40932  eV     1   --> G_2            
     e( 87 - 87) =      4.01597  eV     1   --> G_2            
     e( 88 - 88) =      4.01793  eV     1   --> G_2            
     e( 89 - 89) =      4.15834  eV     1   --> G_2            
     e( 90 - 90) =      4.15903  eV     1   --> G_2            
     e( 91 - 91) =      6.21340  eV     1   --> G_2            
     e( 92 - 92) =      6.21368  eV     1   --> G_2            
     e( 93 - 93) =      6.34982  eV     1   --> G_2            
     e( 94 - 94) =      6.35009  eV     1   --> G_2            
     e( 95 - 95) =      6.94832  eV     1   --> G_2            
     e( 96 - 96) =      6.94845  eV     1   --> G_2            
     e( 97 - 97) =      7.22775  eV     1   --> G_2            
     e( 98 - 98) =      7.22792  eV     1   --> G_2            
     e( 99 - 99) =      7.53602  eV     1   --> G_2            
     e(100 -100) =      7.53612  eV     1   --> G_2            

 **************************************************************************

 **************************************************************************

                    xk=(   0.07143,   0.04124,   0.00000  )

     Band symmetry, C_1 (1)     double point group:

     e(  1 -  2) =    -35.57441  eV     2   -->   2 G_2            
     e(  3 -  4) =    -35.56520  eV     2   -->   2 G_2            
     e(  5 -  6) =    -35.54325  eV     2   -->   2 G_2            
     e(  7 -  8) =    -35.53409  eV     2   -->   2 G_2            
     e(  9 - 10) =    -35.46641  eV     2   -->   2 G_2            
     e( 11 - 12) =    -35.43435  eV     2   -->   2 G_2            
     e( 13 - 14) =    -34.11557  eV     2   -->   2 G_2            
     e( 15 - 16) =    -34.10633  eV     2   -->   2 G_2            
     e( 17 - 18) =    -34.08930  eV     2   -->   2 G_2            
     e( 19 - 20) =    -34.08017  eV     2   -->   2 G_2            
     e( 21 - 22) =    -34.07509  eV     2   -->   2 G_2            
     e( 23 - 24) =    -34.06590  eV     2   -->   2 G_2            
     e( 25 - 26) =    -34.00437  eV     2   -->   2 G_2            
     e( 27 - 28) =    -33.98835  eV     2   -->   2 G_2            
     e( 29 - 30) =    -33.96244  eV     2   -->   2 G_2            
     e( 31 - 32) =    -28.21571  eV     2   -->   2 G_2            
     e( 33 - 34) =    -28.20968  eV     2   -->   2 G_2            
     e( 35 - 36) =    -28.20729  eV     2   -->   2 G_2            
     e( 37 - 38) =    -28.20133  eV     2   -->   2 G_2            
     e( 39 - 40) =    -26.97633  eV     2   -->   2 G_2            
     e( 41 - 42) =    -26.97029  eV     2   -->   2 G_2            
     e( 43 - 44) =    -26.96753  eV     2   -->   2 G_2            
     e( 45 - 46) =    -26.96500  eV     2   -->   2 G_2            
     e( 47 - 48) =    -26.96155  eV     2   -->   2 G_2            
     e( 49 - 50) =    -26.95904  eV     2   -->   2 G_2            
     e( 51 - 52) =    -10.62852  eV     2   -->   2 G_2            
     e( 53 - 54) =    -10.09617  eV     2   -->   2 G_2            
     e( 55 - 56) =     -9.03614  eV     2   -->   2 G_2            
     e( 57 - 58) =     -6.32317  eV     2   -->   2 G_2            
     e( 59 - 60) =     -5.02471  eV     2   -->   2 G_2            
     e( 61 - 61) =     -0.66597  eV     1   --> G_2            
     e( 62 - 62) =     -0.66469  eV     1   --> G_2            
     e( 63 - 63) =     -0.52878  eV     1   --> G_2            
     e( 64 - 64) =     -0.52443  eV     1   --> G_2            
     e( 65 - 65) =      0.00837  eV     1   --> G_2            
     e( 66 - 66) =      0.01166  eV     1   --> G_2            
     e( 67 - 67) =      0.10539  eV     1   --> G_2            
     e( 68 - 68) =      0.10716  eV     1   --> G_2            
     e( 69 - 69) =      0.34727  eV     1   --> G_2            
     e( 70 - 70) =      0.34946  eV     1   --> G_2            
     e( 71 - 71) =      0.58619  eV     1   --> G_2            
     e( 72 - 72) =      0.58749  eV     1   --> G_2            
     e( 73 - 73) =      0.91726  eV     1   --> G_2            
     e( 74 - 74) =      0.91786  eV     1   --> G_2            
     e( 75 - 75) =      1.19063  eV     1   --> G_2            
     e( 76 - 76) =      1.19134  eV     1   --> G_2            
     e( 77 - 77) =      1.55236  eV     1   --> G_2            
     e( 78 - 78) =      1.55356  eV     1   --> G_2            
     e( 79 - 79) =      2.27526  eV     1   --> G_2            
     e( 80 - 80) =      2.27674  eV     1   --> G_2            
     e( 81 - 81) =      2.62971  eV     1   --> G_2            
     e( 82 - 82) =      2.63029  eV     1   --> G_2            
     e( 83 - 83) =      2.94689  eV     1   --> G_2            
     e( 84 - 84) =      2.94700  eV     1   --> G_2            
     e( 85 - 85) =      3.42971  eV     1   --> G_2            
     e( 86 - 86) =      3.43198  eV     1   --> G_2            
     e( 87 - 87) =      4.02040  eV     1   --> G_2            
     e( 88 - 88) =      4.02239  eV     1   --> G_2            
     e( 89 - 89) =      4.18643  eV     1   --> G_2            
     e( 90 - 90) =      4.18711  eV     1   --> G_2            
     e( 91 - 91) =      6.22665  eV     1   --> G_2            
     e( 92 - 92) =      6.22698  eV     1   --> G_2            
     e( 93 - 93) =      6.35088  eV     1   --> G_2            
     e( 94 - 94) =      6.35118  eV     1   --> G_2            
     e( 95 - 95) =      6.93921  eV     1   --> G_2            
     e( 96 - 96) =      6.93935  eV     1   --> G_2            
     e( 97 - 97) =      7.20764  eV     1   --> G_2            
     e( 98 - 98) =      7.20783  eV     1   --> G_2            
     e( 99 - 99) =      7.53745  eV     1   --> G_2            
     e(100 -100) =      7.53755  eV     1   --> G_2            

 **************************************************************************

 **************************************************************************

                    xk=(   0.07857,   0.04536,   0.00000  )

     Band symmetry, C_1 (1)     double point group:

     e(  1 -  2) =    -35.57440  eV     2   -->   2 G_2            
     e(  3 -  4) =    -35.56519  eV     2   -->   2 G_2            
     e(  5 -  6) =    -35.54325  eV     2   -->   2 G_2            
     e(  7 -  8) =    -35.53409  eV     2   -->   2 G_2            
     e(  9 - 10) =    -35.46640  eV     2   -->   2 G_2            
     e( 11 - 12) =    -35.43434  eV     2   -->   2 G_2            
     e( 13 - 14) =    -34.11556  eV     2   -->   2 G_2            
     e( 15 - 16) =    -34.10633  eV     2   -->   2 G_2            
     e( 17 - 18) =    -34.08930  eV     2   -->   2 G_2            
     e( 19 - 20) =    -34.08017  eV     2   -->   2 G_2            
     e( 21 - 22) =    -34.07509  eV     2   -->   2 G_2            
     e( 23 - 24) =    -34.06590  eV     2   -->   2 G_2            
     e( 25 - 26) =    -34.00436  eV     2   -->   2 G_2            
     e( 27 - 28) =    -33.98835  eV     2   -->   2 G_2            
     e( 29 - 30) =    -33.96243  eV     2   -->   2 G_2            
     e( 31 - 32) =    -28.21571  eV     2   -->   2 G_2            
     e( 33 - 34) =    -28.20968  eV     2   -->   2 G_2            
     e( 35 - 36) =    -28.20729  eV     2   -->   2 G_2            
     e( 37 - 38) =    -28.20134  eV     2   -->   2 G_2            
     e( 39 - 40) =    -26.97631  eV     2   -->   2 G_2            
     e( 41 - 42) =    -26.97027  eV     2   -->   2 G_2            
     e( 43 - 43) =    -26.96754  eV     1   --> G_2            
     e( 44 - 44) =    -26.96743  eV     1   --> G_2            
     e( 45 - 46) =    -26.96500  eV     2   -->   2 G_2            
     e( 47 - 47) =    -26.96156  eV     1   --> G_2            
     e( 48 - 48) =    -26.96146  eV     1   --> G_2            
     e( 49 - 50) =    -26.95904  eV     2   -->   2 G_2            
     e( 51 - 52) =    -10.61972  eV     2   -->   2 G_2            
     e( 53 - 54) =    -10.08818  eV     2   -->   2 G_2            
     e( 55 - 56) =     -9.03145  eV     2   -->   2 G_2            
     e( 57 - 58) =     -6.32535  eV     2   -->   2 G_2            
     e( 59 - 60) =     -5.04157  eV     2   -->   2 G_2            
     e( 61 - 61) =     -0.69529  eV     1   --> G_2            
     e( 62 - 62) =     -0.69351  eV     1   --> G_2            
     e( 63 - 63) =     -0.58005  eV     1   --> G_2            
     e( 64 - 64) =     -0.57516  eV     1   --> G_2            
     e( 65 - 65) =     -0.03985  eV     1   --> G_2            
     e( 66 - 66) =     -0.03668  eV     1   --> G_2            
     e( 67 - 67) =      0.08591  eV     1   --> G_2            
     e( 68 - 68) =      0.08743  eV     1   --> G_2            
     e( 69 - 69) =      0.32414  eV     1   --> G_2            
     e( 70 - 70) =      0.32674  eV     1   --> G_2            
     e( 71 - 71) =      0.56075  eV     1   --> G_2            
     e( 72 - 72) =      0.56208  eV     1   --> G_2            
     e( 73 - 73) =      0.92112  eV     1   --> G_2            
     e( 74 - 74) =      0.92171  eV     1   --> G_2            
     e( 75 - 75) =      1.22310  eV     1   --> G_2            
     e( 76 - 76) =      1.22391  eV     1   --> G_2            
     e( 77 - 77) =      1.57278  eV     1   --> G_2            
     e( 78 - 78) =      1.57400  eV     1   --> G_2            
     e( 79 - 79) =      2.29085  eV     1   --> G_2            
     e( 80 - 80) =      2.29237  eV     1   --> G_2            
     e( 81 - 81) =      2.66098  eV     1   --> G_2            
     e( 82 - 82) =      2.66183  eV     1   --> G_2            
     e( 83 - 83) =      2.96910  eV     1   --> G_2            
     e( 84 - 84) =      2.96928  eV     1   --> G_2            
     e( 85 - 85) =      3.45113  eV     1   --> G_2            
     e( 86 - 86) =      3.45346  eV     1   --> G_2            
     e( 87 - 87) =      4.02351  eV     1   --> G_2            
     e( 88 - 88) =      4.02549  eV     1   --> G_2            
     e( 89 - 89) =      4.21884  eV     1   --> G_2            
     e( 90 - 90) =      4.21950  eV     1   --> G_2            
     e( 91 - 91) =      6.24100  eV     1   --> G_2            
     e( 92 - 92) =      6.24138  eV     1   --> G_2            
     e( 93 - 93) =      6.35163  eV     1   --> G_2            
     e( 94 - 94) =      6.35199  eV     1   --> G_2            
     e( 95 - 95) =      6.92580  eV     1   --> G_2            
     e( 96 - 96) =      6.92595  eV     1   --> G_2            
     e( 97 - 97) =      7.19204  eV     1   --> G_2            
     e( 98 - 98) =      7.19223  eV     1   --> G_2            
     e( 99 -100) =      7.53919  eV     2   -->   2 G_2            

 **************************************************************************

 **************************************************************************

                    xk=(   0.08571,   0.04949,   0.00000  )

     Band symmetry, C_1 (1)     double point group:

     e(  1 -  2) =    -35.57440  eV     2   -->   2 G_2            
     e(  3 -  4) =    -35.56519  eV     2   -->   2 G_2            
     e(  5 -  6) =    -35.54325  eV     2   -->   2 G_2            
     e(  7 -  8) =    -35.53409  eV     2   -->   2 G_2            
     e(  9 - 10) =    -35.46640  eV     2   -->   2 G_2            
     e( 11 - 12) =    -35.43434  eV     2   -->   2 G_2            
     e( 13 - 14) =    -34.11555  eV     2   -->   2 G_2            
     e( 15 - 16) =    -34.10632  eV     2   -->   2 G_2            
     e( 17 - 18) =    -34.08930  eV     2   -->   2 G_2            
     e( 19 - 20) =    -34.08017  eV     2   -->   2 G_2            
     e( 21 - 22) =    -34.07509  eV     2   -->   2 G_2            
     e( 23 - 24) =    -34.06590  eV     2   -->   2 G_2            
     e( 25 - 26) =    -34.00436  eV     2   -->   2 G_2            
     e( 27 - 28) =    -33.98835  eV     2   -->   2 G_2            
     e( 29 - 30) =    -33.96242  eV     2   -->   2 G_2            
     e( 31 - 32) =    -28.21571  eV     2   -->   2 G_2            
     e( 33 - 34) =    -28.20968  eV     2   -->   2 G_2            
     e( 35 - 36) =    -28.20730  eV     2   -->   2 G_2            
     e( 37 - 38) =    -28.20134  eV     2   -->   2 G_2            
     e( 39 - 40) =    -26.97630  eV     2   -->   2 G_2            
     e( 41 - 42) =    -26.97026  eV     2   -->   2 G_2            
     e( 43 - 43) =    -26.96755  eV     1   --> G_2            
     e( 44 - 44) =    -26.96743  eV     1   --> G_2            
     e( 45 - 46) =    -26.96500  eV     2   -->   2 G_2            
     e( 47 - 47) =    -26.96157  eV     1   --> G_2            
     e( 48 - 48) =    -26.96146  eV     1   --> G_2            
     e( 49 - 50) =    -26.95904  eV     2   -->   2 G_2            
     e( 51 - 52) =    -10.61012  eV     2   -->   2 G_2            
     e( 53 - 54) =    -10.07943  eV     2   -->   2 G_2            
     e( 55 - 56) =     -9.02637  eV     2   -->   2 G_2            
     e( 57 - 58) =     -6.32784  eV     2   -->   2 G_2            
     e( 59 - 60) =     -5.06000  eV     2   -->   2 G_2            
     e( 61 - 61) =     -0.73590  eV     1   --> G_2            
     e( 62 - 62) =     -0.73404  eV     1   --> G_2            
     e( 63 - 63) =     -0.62238  eV     1   --> G_2            
     e( 64 - 64) =     -0.61739  eV     1   --> G_2            
     e( 65 - 65) =     -0.08870  eV     1   --> G_2            
     e( 66 - 66) =     -0.08567  eV     1   --> G_2            
     e( 67 - 67) =      0.06559  eV     1   --> G_2            
     e( 68 - 68) =      0.06689  eV     1   --> G_2            
     e( 69 - 69) =      0.29697  eV     1   --> G_2            
     e( 70 - 70) =      0.29998  eV     1   --> G_2            
     e( 71 - 71) =      0.53530  eV     1   --> G_2            
     e( 72 - 72) =      0.53672  eV     1   --> G_2            
     e( 73 - 73) =      0.92675  eV     1   --> G_2            
     e( 74 - 74) =      0.92733  eV     1   --> G_2            
     e( 75 - 75) =      1.25652  eV     1   --> G_2            
     e( 76 - 76) =      1.25745  eV     1   --> G_2            
     e( 77 - 77) =      1.58518  eV     1   --> G_2            
     e( 78 - 78) =      1.58646  eV     1   --> G_2            
     e( 79 - 79) =      2.30560  eV     1   --> G_2            
     e( 80 - 80) =      2.30710  eV     1   --> G_2            
     e( 81 - 81) =      2.69877  eV     1   --> G_2            
     e( 82 - 82) =      2.69984  eV     1   --> G_2            
     e( 83 - 83) =      2.99548  eV     1   --> G_2            
     e( 84 - 84) =      2.99581  eV     1   --> G_2            
     e( 85 - 85) =      3.47190  eV     1   --> G_2            
     e( 86 - 86) =      3.47426  eV     1   --> G_2            
     e( 87 - 87) =      4.02679  eV     1   --> G_2            
     e( 88 - 88) =      4.02877  eV     1   --> G_2            
     e( 89 - 89) =      4.25394  eV     1   --> G_2            
     e( 90 - 90) =      4.25458  eV     1   --> G_2            
     e( 91 - 91) =      6.25632  eV     1   --> G_2            
     e( 92 - 92) =      6.25677  eV     1   --> G_2            
     e( 93 - 93) =      6.35189  eV     1   --> G_2            
     e( 94 - 94) =      6.35232  eV     1   --> G_2            
     e( 95 - 95) =      6.90797  eV     1   --> G_2            
     e( 96 - 96) =      6.90812  eV     1   --> G_2            
     e( 97 - 97) =      7.18171  eV     1   --> G_2            
     e( 98 - 98) =      7.18190  eV     1   --> G_2            
     e( 99 -100) =      7.54128  eV     2   -->   2 G_2            

 **************************************************************************

 **************************************************************************

                    xk=(   0.09286,   0.05361,   0.00000  )

     Band symmetry, C_1 (1)     double point group:

     e(  1 -  2) =    -35.57440  eV     2   -->   2 G_2            
     e(  3 -  4) =    -35.56519  eV     2   -->   2 G_2            
     e(  5 -  6) =    -35.54325  eV     2   -->   2 G_2            
     e(  7 -  8) =    -35.53409  eV     2   -->   2 G_2            
     e(  9 - 10) =    -35.46640  eV     2   -->   2 G_2            
     e( 11 - 12) =    -35.43434  eV     2   -->   2 G_2            
     e( 13 - 14) =    -34.11555  eV     2   -->   2 G_2            
     e( 15 - 16) =    -34.10631  eV     2   -->   2 G_2            
     e( 17 - 18) =    -34.08930  eV     2   -->   2 G_2            
     e( 19 - 20) =    -34.08017  eV     2   -->   2 G_2            
     e( 21 - 22) =    -34.07509  eV     2   -->   2 G_2            
     e( 23 - 24) =    -34.06590  eV     2   -->   2 G_2            
     e( 25 - 26) =    -34.00436  eV     2   -->   2 G_2            
     e( 27 - 28) =    -33.98835  eV     2   -->   2 G_2            
     e( 29 - 30) =    -33.96242  eV     2   -->   2 G_2            
     e( 31 - 32) =    -28.21570  eV     2   -->   2 G_2            
     e( 33 - 34) =    -28.20967  eV     2   -->   2 G_2            
     e( 35 - 36) =    -28.20730  eV     2   -->   2 G_2            
     e( 37 - 38) =    -28.20134  eV     2   -->   2 G_2            
     e( 39 - 40) =    -26.97628  eV     2   -->   2 G_2            
     e( 41 - 42) =    -26.97024  eV     2   -->   2 G_2            
     e( 43 - 43) =    -26.96756  eV     1   --> G_2            
     e( 44 - 44) =    -26.96743  eV     1   --> G_2            
     e( 45 - 46) =    -26.96500  eV     2   -->   2 G_2            
     e( 47 - 47) =    -26.96158  eV     1   --> G_2            
     e( 48 - 48) =    -26.96146  eV     1   --> G_2            
     e( 49 - 50) =    -26.95904  eV     2   -->   2 G_2            
     e( 51 - 52) =    -10.59969  eV     2   -->   2 G_2            
     e( 53 - 54) =    -10.06996  eV     2   -->   2 G_2            
     e( 55 - 56) =     -9.02090  eV     2   -->   2 G_2            
     e( 57 - 58) =     -6.33064  eV     2   -->   2 G_2            
     e( 59 - 60) =     -5.07992  eV     2   -->   2 G_2            
     e( 61 - 61) =     -0.78808  eV     1   --> G_2            
     e( 62 - 62) =     -0.78665  eV     1   --> G_2            
     e( 63 - 63) =     -0.65490  eV     1   --> G_2            
     e( 64 - 64) =     -0.65035  eV     1   --> G_2            
     e( 65 - 65) =     -0.13810  eV     1   --> G_2            
     e( 66 - 66) =     -0.13522  eV     1   --> G_2            
     e( 67 - 67) =      0.04445  eV     1   --> G_2            
     e( 68 - 68) =      0.04555  eV     1   --> G_2            
     e( 69 - 69) =      0.26617  eV     1   --> G_2            
     e( 70 - 70) =      0.26955  eV     1   --> G_2            
     e( 71 - 71) =      0.51108  eV     1   --> G_2            
     e( 72 - 72) =      0.51259  eV     1   --> G_2            
     e( 73 - 73) =      0.93352  eV     1   --> G_2            
     e( 74 - 74) =      0.93409  eV     1   --> G_2            
     e( 75 - 75) =      1.28988  eV     1   --> G_2            
     e( 76 - 76) =      1.29094  eV     1   --> G_2            
     e( 77 - 77) =      1.58872  eV     1   --> G_2            
     e( 78 - 78) =      1.59009  eV     1   --> G_2            
     e( 79 - 79) =      2.32287  eV     1   --> G_2            
     e( 80 - 80) =      2.32431  eV     1   --> G_2            
     e( 81 - 81) =      2.74015  eV     1   --> G_2            
     e( 82 - 82) =      2.74136  eV     1   --> G_2            
     e( 83 - 83) =      3.02523  eV     1   --> G_2            
     e( 84 - 84) =      3.02571  eV     1   --> G_2            
     e( 85 - 85) =      3.49273  eV     1   --> G_2            
     e( 86 - 86) =      3.49508  eV     1   --> G_2            
     e( 87 - 87) =      4.03142  eV     1   --> G_2            
     e( 88 - 88) =      4.03337  eV     1   --> G_2            
     e( 89 - 89) =      4.29051  eV     1   --> G_2            
     e( 90 - 90) =      4.29112  eV     1   --> G_2            
     e( 91 - 91) =      6.27248  eV     1   --> G_2            
     e( 92 - 92) =      6.27303  eV     1   --> G_2            
     e( 93 - 93) =      6.35146  eV     1   --> G_2            
     e( 94 - 94) =      6.35199  eV     1   --> G_2            
     e( 95 - 95) =      6.88638  eV     1   --> G_2            
     e( 96 - 96) =      6.88653  eV     1   --> G_2            
     e( 97 - 97) =      7.17668  eV     1   --> G_2            
     e( 98 - 98) =      7.17687  eV     1   --> G_2            
     e( 99 -100) =      7.54383  eV     2   -->   2 G_2            

 **************************************************************************

 **************************************************************************

                    xk=(   0.10000,   0.05774,   0.00000  )

     Band symmetry, C_1 (1)     double point group:

     e(  1 -  2) =    -35.57439  eV     2   -->   2 G_2            
     e(  3 -  4) =    -35.56518  eV     2   -->   2 G_2            
     e(  5 -  6) =    -35.54325  eV     2   -->   2 G_2            
     e(  7 -  8) =    -35.53409  eV     2   -->   2 G_2            
     e(  9 - 10) =    -35.46640  eV     2   -->   2 G_2            
     e( 11 - 12) =    -35.43433  eV     2   -->   2 G_2            
     e( 13 - 14) =    -34.11554  eV     2   -->   2 G_2            
     e( 15 - 16) =    -34.10630  eV     2   -->   2 G_2            
     e( 17 - 18) =    -34.08930  eV     2   -->   2 G_2            
     e( 19 - 20) =    -34.08017  eV     2   -->   2 G_2            
     e( 21 - 22) =    -34.07508  eV     2   -->   2 G_2            
     e( 23 - 24) =    -34.06589  eV     2   -->   2 G_2            
     e( 25 - 26) =    -34.00435  eV     2   -->   2 G_2            
     e( 27 - 28) =    -33.98835  eV     2   -->   2 G_2            
     e( 29 - 30) =    -33.96241  eV     2   -->   2 G_2            
     e( 31 - 32) =    -28.21569  eV     2   -->   2 G_2            
     e( 33 - 34) =    -28.20966  eV     2   -->   2 G_2            
     e( 35 - 36) =    -28.20730  eV     2   -->   2 G_2            
     e( 37 - 38) =    -28.20135  eV     2   -->   2 G_2            
     e( 39 - 40) =    -26.97626  eV     2   -->   2 G_2            
     e( 41 - 42) =    -26.97023  eV     2   -->   2 G_2            
     e( 43 - 43) =    -26.96757  eV     1   --> G_2            
     e( 44 - 44) =    -26.96744  eV     1   --> G_2            
     e( 45 - 46) =    -26.96500  eV     2   -->   2 G_2            
     e( 47 - 47) =    -26.96159  eV     1   --> G_2            
     e( 48 - 48) =    -26.96147  eV     1   --> G_2            
     e( 49 - 50) =    -26.95904  eV     2   -->   2 G_2            
     e( 51 - 52) =    -10.58840  eV     2   -->   2 G_2            
     e( 53 - 54) =    -10.05976  eV     2   -->   2 G_2            
     e( 55 - 56) =     -9.01500  eV     2   -->   2 G_2            
     e( 57 - 58) =     -6.33376  eV     2   -->   2 G_2            
     e( 59 - 60) =     -5.10138  eV     2   -->   2 G_2            
     e( 61 - 61) =     -0.84814  eV     1   --> G_2            
     e( 62 - 62) =     -0.84722  eV     1   --> G_2            
     e( 63 - 63) =     -0.68127  eV     1   --> G_2            
     e( 64 - 64) =     -0.67727  eV     1   --> G_2            
     e( 65 - 65) =     -0.18810  eV     1   --> G_2            
     e( 66 - 66) =     -0.18538  eV     1   --> G_2            
     e( 67 - 67) =      0.02250  eV     1   --> G_2            
     e( 68 - 68) =      0.02343  eV     1   --> G_2            
     e( 69 - 69) =      0.23255  eV     1   --> G_2            
     e( 70 - 70) =      0.23623  eV     1   --> G_2            
     e( 71 - 71) =      0.48865  eV     1   --> G_2            
     e( 72 - 72) =      0.49023  eV     1   --> G_2            
     e( 73 - 73) =      0.94079  eV     1   --> G_2            
     e( 74 - 74) =      0.94134  eV     1   --> G_2            
     e( 75 - 75) =      1.32217  eV     1   --> G_2            
     e( 76 - 76) =      1.32338  eV     1   --> G_2            
     e( 77 - 77) =      1.58370  eV     1   --> G_2            
     e( 78 - 78) =      1.58521  eV     1   --> G_2            
     e( 79 - 79) =      2.34458  eV     1   --> G_2            
     e( 80 - 80) =      2.34593  eV     1   --> G_2            
     e( 81 - 81) =      2.78300  eV     1   --> G_2            
     e( 82 - 82) =      2.78431  eV     1   --> G_2            
     e( 83 - 83) =      3.05723  eV     1   --> G_2            
     e( 84 - 84) =      3.05783  eV     1   --> G_2            
     e( 85 - 85) =      3.51447  eV     1   --> G_2            
     e( 86 - 86) =      3.51678  eV     1   --> G_2            
     e( 87 - 87) =      4.03823  eV     1   --> G_2            
     e( 88 - 88) =      4.04014  eV     1   --> G_2            
     e( 89 - 89) =      4.32765  eV     1   --> G_2            
     e( 90 - 90) =      4.32822  eV     1   --> G_2            
     e( 91 - 91) =      6.28920  eV     1   --> G_2            
     e( 92 - 92) =      6.28990  eV     1   --> G_2            
     e( 93 - 93) =      6.35016  eV     1   --> G_2            
     e( 94 - 94) =      6.35083  eV     1   --> G_2            
     e( 95 - 95) =      6.86231  eV     1   --> G_2            
     e( 96 - 96) =      6.86245  eV     1   --> G_2            
     e( 97 - 97) =      7.17638  eV     1   --> G_2            
     e( 98 - 98) =      7.17655  eV     1   --> G_2            
     e( 99 -100) =      7.54696  eV     2   -->   2 G_2            

 **************************************************************************

 **************************************************************************

                    xk=(   0.10714,   0.06186,   0.00000  )

     Band symmetry, C_1 (1)     double point group:

     e(  1 -  2) =    -35.57438  eV     2   -->   2 G_2            
     e(  3 -  4) =    -35.56517  eV     2   -->   2 G_2            
     e(  5 -  6) =    -35.54325  eV     2   -->   2 G_2            
     e(  7 -  8) =    -35.53409  eV     2   -->   2 G_2            
     e(  9 - 10) =    -35.46640  eV     2   -->   2 G_2            
     e( 11 - 12) =    -35.43433  eV     2   -->   2 G_2            
     e( 13 - 14) =    -34.11553  eV     2   -->   2 G_2            
     e( 15 - 16) =    -34.10629  eV     2   -->   2 G_2            
     e( 17 - 18) =    -34.08930  eV     2   -->   2 G_2            
     e( 19 - 20) =    -34.08017  eV     2   -->   2 G_2            
     e( 21 - 22) =    -34.07508  eV     2   -->   2 G_2            
     e( 23 - 24) =    -34.06589  eV     2   -->   2 G_2            
     e( 25 - 26) =    -34.00435  eV     2   -->   2 G_2            
     e( 27 - 28) =    -33.98835  eV     2   -->   2 G_2            
     e( 29 - 30) =    -33.96240  eV     2   -->   2 G_2            
     e( 31 - 32) =    -28.21569  eV     2   -->   2 G_2            
     e( 33 - 34) =    -28.20966  eV     2   -->   2 G_2            
     e( 35 - 36) =    -28.20731  eV     2   -->   2 G_2            
     e( 37 - 38) =    -28.20135  eV     2   -->   2 G_2            
     e( 39 - 40) =    -26.97625  eV     2   -->   2 G_2            
     e( 41 - 42) =    -26.97021  eV     2   -->   2 G_2            
     e( 43 - 43) =    -26.96758  eV     1   --> G_2            
     e( 44 - 44) =    -26.96744  eV     1   --> G_2            
     e( 45 - 46) =    -26.96500  eV     2   -->   2 G_2            
     e( 47 - 47) =    -26.96160  eV     1   --> G_2            
     e( 48 - 48) =    -26.96147  eV     1   --> G_2            
     e( 49 - 50) =    -26.95903  eV     2   -->   2 G_2            
     e( 51 - 52) =    -10.57632  eV     2   -->   2 G_2            
     e( 53 - 54) =    -10.04885  eV     2   -->   2 G_2            
     e( 55 - 56) =     -9.00875  eV     2   -->   2 G_2            
     e( 57 - 58) =     -6.33726  eV     2   -->   2 G_2            
     e( 59 - 60) =     -5.12437  eV     2   -->   2 G_2            
     e( 61 - 61) =     -0.91257  eV     1   --> G_2            
     e( 62 - 62) =     -0.91203  eV     1   --> G_2            
     e( 63 - 63) =     -0.70480  eV     1   --> G_2            
     e( 64 - 64) =     -0.70123  eV     1   --> G_2            
     e( 65 - 65) =     -0.23878  eV     1   --> G_2            
     e( 66 - 66) =     -0.23622  eV     1   --> G_2            
     e( 67 - 67) =     -0.00034  eV     1   --> G_2            
     e( 68 - 68) =      0.00046  eV     1   --> G_2            
     e( 69 - 69) =      0.19719  eV     1   --> G_2            
     e( 70 - 70) =      0.20109  eV     1   --> G_2            
     e( 71 - 71) =      0.46811  eV     1   --> G_2            
     e( 72 - 72) =      0.46972  eV     1   --> G_2            
     e( 73 - 73) =      0.94800  eV     1   --> G_2            
     e( 74 - 74) =      0.94854  eV     1   --> G_2            
     e( 75 - 75) =      1.35195  eV     1   --> G_2            
     e( 76 - 76) =      1.35336  eV     1   --> G_2            
     e( 77 - 77) =      1.57182  eV     1   --> G_2            
     e( 78 - 78) =      1.57353  eV     1   --> G_2            
     e( 79 - 79) =      2.37107  eV     1   --> G_2            
     e( 80 - 80) =      2.37232  eV     1   --> G_2            
     e( 81 - 81) =      2.82614  eV     1   --> G_2            
     e( 82 - 82) =      2.82747  eV     1   --> G_2            
     e( 83 - 83) =      3.09004  eV     1   --> G_2            
     e( 84 - 84) =      3.09073  eV     1   --> G_2            
     e( 85 - 85) =      3.53811  eV     1   --> G_2            
     e( 86 - 86) =      3.54033  eV     1   --> G_2            
     e( 87 - 87) =      4.04788  eV     1   --> G_2            
     e( 88 - 88) =      4.04974  eV     1   --> G_2            
     e( 89 - 89) =      4.36464  eV     1   --> G_2            
     e( 90 - 90) =      4.36518  eV     1   --> G_2            
     e( 91 - 91) =      6.30579  eV     1   --> G_2            
     e( 92 - 92) =      6.30676  eV     1   --> G_2            
     e( 93 - 93) =      6.34809  eV     1   --> G_2            
     e( 94 - 94) =      6.34901  eV     1   --> G_2            
     e( 95 - 95) =      6.83731  eV     1   --> G_2            
     e( 96 - 96) =      6.83744  eV     1   --> G_2            
     e( 97 - 97) =      7.17997  eV     1   --> G_2            
     e( 98 - 98) =      7.18013  eV     1   --> G_2            
     e( 99 -100) =      7.55083  eV     2   -->   2 G_2            

 **************************************************************************

 **************************************************************************

                    xk=(   0.11429,   0.06598,   0.00000  )

     Band symmetry, C_1 (1)     double point group:

     e(  1 -  2) =    -35.57438  eV     2   -->   2 G_2            
     e(  3 -  4) =    -35.56517  eV     2   -->   2 G_2            
     e(  5 -  6) =    -35.54325  eV     2   -->   2 G_2            
     e(  7 -  8) =    -35.53408  eV     2   -->   2 G_2            
     e(  9 - 10) =    -35.46640  eV     2   -->   2 G_2            
     e( 11 - 12) =    -35.43432  eV     2   -->   2 G_2            
     e( 13 - 14) =    -34.11552  eV     2   -->   2 G_2            
     e( 15 - 16) =    -34.10628  eV     2   -->   2 G_2            
     e( 17 - 18) =    -34.08930  eV     2   -->   2 G_2            
     e( 19 - 20) =    -34.08017  eV     2   -->   2 G_2            
     e( 21 - 22) =    -34.07508  eV     2   -->   2 G_2            
     e( 23 - 24) =    -34.06589  eV     2   -->   2 G_2            
     e( 25 - 26) =    -34.00434  eV     2   -->   2 G_2            
     e( 27 - 28) =    -33.98835  eV     2   -->   2 G_2            
     e( 29 - 30) =    -33.96239  eV     2   -->   2 G_2            
     e( 31 - 32) =    -28.21568  eV     2   -->   2 G_2            
     e( 33 - 34) =    -28.20965  eV     2   -->   2 G_2            
     e( 35 - 36) =    -28.20731  eV     2   -->   2 G_2            
     e( 37 - 38) =    -28.20135  eV     2   -->   2 G_2            
     e( 39 - 40) =    -26.97623  eV     2   -->   2 G_2            
     e( 41 - 42) =    -26.97019  eV     2   -->   2 G_2            
     e( 43 - 43) =    -26.96759  eV     1   --> G_2            
     e( 44 - 44) =    -26.96745  eV     1   --> G_2            
     e( 45 - 46) =    -26.96499  eV     2   -->   2 G_2            
     e( 47 - 47) =    -26.96161  eV     1   --> G_2            
[...]
     e( 59 - 60) =     -4.96031  eV     2   -->   2 G_2            
     e( 61 - 61) =     -0.58880  eV     1   --> G_2            
     e( 62 - 62) =     -0.58869  eV     1   --> G_2            
     e( 63 - 63) =     -0.23127  eV     1   --> G_2            
     e( 64 - 64) =     -0.22887  eV     1   --> G_2            
     e( 65 - 65) =      0.15556  eV     1   --> G_2            
     e( 66 - 66) =      0.15692  eV     1   --> G_2            
     e( 67 - 67) =      0.29023  eV     1   --> G_2            
     e( 68 - 68) =      0.29301  eV     1   --> G_2            
     e( 69 - 69) =      0.39659  eV     1   --> G_2            
     e( 70 - 70) =      0.39879  eV     1   --> G_2            
     e( 71 - 71) =      0.63141  eV     1   --> G_2            
     e( 72 - 72) =      0.63411  eV     1   --> G_2            
     e( 73 - 73) =      0.90332  eV     1   --> G_2            
     e( 74 - 74) =      0.90428  eV     1   --> G_2            
     e( 75 - 75) =      1.10590  eV     1   --> G_2            
     e( 76 - 76) =      1.10668  eV     1   --> G_2            
     e( 77 - 77) =      1.39097  eV     1   --> G_2            
     e( 78 - 78) =      1.39233  eV     1   --> G_2            
     e( 79 - 79) =      2.08054  eV     1   --> G_2            
     e( 80 - 80) =      2.08166  eV     1   --> G_2            
     e( 81 - 81) =      2.63551  eV     1   --> G_2            
     e( 82 - 82) =      2.63606  eV     1   --> G_2            
     e( 83 - 83) =      2.90891  eV     1   --> G_2            
     e( 84 - 84) =      2.90986  eV     1   --> G_2            
     e( 85 - 85) =      3.28653  eV     1   --> G_2            
     e( 86 - 86) =      3.28750  eV     1   --> G_2            
     e( 87 - 87) =      3.96226  eV     1   --> G_2            
     e( 88 - 88) =      3.96284  eV     1   --> G_2            
     e( 89 - 89) =      4.11591  eV     1   --> G_2            
     e( 90 - 90) =      4.11603  eV     1   --> G_2            
     e( 91 - 91) =      6.17060  eV     1   --> G_2            
     e( 92 - 92) =      6.17073  eV     1   --> G_2            
     e( 93 - 93) =      6.34539  eV     1   --> G_2            
     e( 94 - 94) =      6.34551  eV     1   --> G_2            
     e( 95 - 96) =      6.95747  eV     2   -->   2 G_2            
     e( 97 - 98) =      7.35919  eV     2   -->   2 G_2            
     e( 99 -100) =      7.53452  eV     2   -->   2 G_2            

 **************************************************************************

 **************************************************************************

                    xk=(   0.01429,   0.02524,   0.00000  )

     Band symmetry, C_1 (1)     double point group:

     e(  1 -  2) =    -35.57442  eV     2   -->   2 G_2            
     e(  3 -  4) =    -35.56521  eV     2   -->   2 G_2            
     e(  5 -  6) =    -35.54325  eV     2   -->   2 G_2            
     e(  7 -  8) =    -35.53409  eV     2   -->   2 G_2            
     e(  9 - 10) =    -35.46641  eV     2   -->   2 G_2            
     e( 11 - 12) =    -35.43436  eV     2   -->   2 G_2            
     e( 13 - 14) =    -34.11559  eV     2   -->   2 G_2            
     e( 15 - 16) =    -34.10636  eV     2   -->   2 G_2            
     e( 17 - 18) =    -34.08930  eV     2   -->   2 G_2            
     e( 19 - 20) =    -34.08017  eV     2   -->   2 G_2            
     e( 21 - 22) =    -34.07510  eV     2   -->   2 G_2            
     e( 23 - 24) =    -34.06591  eV     2   -->   2 G_2            
     e( 25 - 26) =    -34.00438  eV     2   -->   2 G_2            
     e( 27 - 28) =    -33.98835  eV     2   -->   2 G_2            
     e( 29 - 30) =    -33.96246  eV     2   -->   2 G_2            
     e( 31 - 32) =    -28.21573  eV     2   -->   2 G_2            
     e( 33 - 34) =    -28.20970  eV     2   -->   2 G_2            
     e( 35 - 36) =    -28.20727  eV     2   -->   2 G_2            
     e( 37 - 38) =    -28.20132  eV     2   -->   2 G_2            
     e( 39 - 40) =    -26.97638  eV     2   -->   2 G_2            
     e( 41 - 42) =    -26.97034  eV     2   -->   2 G_2            
     e( 43 - 44) =    -26.96746  eV     2   -->   2 G_2            
     e( 45 - 46) =    -26.96501  eV     2   -->   2 G_2            
     e( 47 - 48) =    -26.96149  eV     2   -->   2 G_2            
     e( 49 - 50) =    -26.95905  eV     2   -->   2 G_2            
     e( 51 - 52) =    -10.66528  eV     2   -->   2 G_2            
     e( 53 - 54) =    -10.12957  eV     2   -->   2 G_2            
     e( 55 - 56) =     -9.05584  eV     2   -->   2 G_2            
     e( 57 - 58) =     -6.31463  eV     2   -->   2 G_2            
     e( 59 - 60) =     -4.95310  eV     2   -->   2 G_2            
     e( 61 - 62) =     -0.58186  eV     2   -->   2 G_2            
     e( 63 - 63) =     -0.18941  eV     1   --> G_2            
     e( 64 - 64) =     -0.18745  eV     1   --> G_2            
     e( 65 - 65) =      0.15808  eV     1   --> G_2            
     e( 66 - 66) =      0.15943  eV     1   --> G_2            
     e( 67 - 67) =      0.33845  eV     1   --> G_2            
     e( 68 - 68) =      0.34139  eV     1   --> G_2            
     e( 69 - 69) =      0.41260  eV     1   --> G_2            
     e( 70 - 70) =      0.41488  eV     1   --> G_2            
     e( 71 - 71) =      0.62565  eV     1   --> G_2            
     e( 72 - 72) =      0.62825  eV     1   --> G_2            
     e( 73 - 73) =      0.88424  eV     1   --> G_2            
     e( 74 - 74) =      0.88498  eV     1   --> G_2            
     e( 75 - 75) =      1.12479  eV     1   --> G_2            
     e( 76 - 76) =      1.12538  eV     1   --> G_2            
     e( 77 - 77) =      1.36176  eV     1   --> G_2            
     e( 78 - 78) =      1.36287  eV     1   --> G_2            
     e( 79 - 79) =      2.04133  eV     1   --> G_2            
     e( 80 - 80) =      2.04219  eV     1   --> G_2            
     e( 81 - 81) =      2.63340  eV     1   --> G_2            
     e( 82 - 82) =      2.63384  eV     1   --> G_2            
     e( 83 - 83) =      2.93227  eV     1   --> G_2            
     e( 84 - 84) =      2.93309  eV     1   --> G_2            
     e( 85 - 85) =      3.25416  eV     1   --> G_2            
     e( 86 - 86) =      3.25491  eV     1   --> G_2            
     e( 87 - 87) =      3.94505  eV     1   --> G_2            
     e( 88 - 88) =      3.94545  eV     1   --> G_2            
     e( 89 - 89) =      4.11360  eV     1   --> G_2            
     e( 90 - 90) =      4.11373  eV     1   --> G_2            
     e( 91 - 91) =      6.16337  eV     1   --> G_2            
     e( 92 - 92) =      6.16347  eV     1   --> G_2            
     e( 93 - 94) =      6.34399  eV     2   -->   2 G_2            
     e( 95 - 96) =      6.95667  eV     2   -->   2 G_2            
     e( 97 - 98) =      7.36966  eV     2   -->   2 G_2            
     e( 99 -100) =      7.53462  eV     2   -->   2 G_2            

 **************************************************************************

 **************************************************************************

                    xk=(   0.00952,   0.01683,   0.00000  )

     Band symmetry, C_1 (1)     double point group:

     e(  1 -  2) =    -35.57442  eV     2   -->   2 G_2            
     e(  3 -  4) =    -35.56522  eV     2   -->   2 G_2            
     e(  5 -  6) =    -35.54325  eV     2   -->   2 G_2            
     e(  7 -  8) =    -35.53409  eV     2   -->   2 G_2            
     e(  9 - 10) =    -35.46641  eV     2   -->   2 G_2            
     e( 11 - 12) =    -35.43436  eV     2   -->   2 G_2            
     e( 13 - 14) =    -34.11559  eV     2   -->   2 G_2            
     e( 15 - 16) =    -34.10636  eV     2   -->   2 G_2            
     e( 17 - 18) =    -34.08930  eV     2   -->   2 G_2            
     e( 19 - 20) =    -34.08017  eV     2   -->   2 G_2            
     e( 21 - 22) =    -34.07510  eV     2   -->   2 G_2            
     e( 23 - 24) =    -34.06591  eV     2   -->   2 G_2            
     e( 25 - 26) =    -34.00438  eV     2   -->   2 G_2            
     e( 27 - 28) =    -33.98835  eV     2   -->   2 G_2            
     e( 29 - 30) =    -33.96246  eV     2   -->   2 G_2            
     e( 31 - 32) =    -28.21573  eV     2   -->   2 G_2            
     e( 33 - 34) =    -28.20970  eV     2   -->   2 G_2            
     e( 35 - 36) =    -28.20727  eV     2   -->   2 G_2            
     e( 37 - 38) =    -28.20131  eV     2   -->   2 G_2            
     e( 39 - 40) =    -26.97639  eV     2   -->   2 G_2            
     e( 41 - 42) =    -26.97035  eV     2   -->   2 G_2            
     e( 43 - 44) =    -26.96746  eV     2   -->   2 G_2            
     e( 45 - 46) =    -26.96500  eV     2   -->   2 G_2            
     e( 47 - 48) =    -26.96149  eV     2   -->   2 G_2            
     e( 49 - 50) =    -26.95904  eV     2   -->   2 G_2            
     e( 51 - 52) =    -10.66816  eV     2   -->   2 G_2            
     e( 53 - 54) =    -10.13223  eV     2   -->   2 G_2            
     e( 55 - 56) =     -9.05747  eV     2   -->   2 G_2            
     e( 57 - 58) =     -6.31417  eV     2   -->   2 G_2            
     e( 59 - 60) =     -4.94800  eV     2   -->   2 G_2            
     e( 61 - 62) =     -0.57698  eV     2   -->   2 G_2            
     e( 63 - 63) =     -0.15651  eV     1   --> G_2            
     e( 64 - 64) =     -0.15508  eV     1   --> G_2            
     e( 65 - 65) =      0.15565  eV     1   --> G_2            
     e( 66 - 66) =      0.15671  eV     1   --> G_2            
     e( 67 - 67) =      0.37944  eV     1   --> G_2            
     e( 68 - 68) =      0.38193  eV     1   --> G_2            
     e( 69 - 69) =      0.43191  eV     1   --> G_2            
     e( 70 - 70) =      0.43385  eV     1   --> G_2            
     e( 71 - 71) =      0.61080  eV     1   --> G_2            
     e( 72 - 72) =      0.61311  eV     1   --> G_2            
     e( 73 - 73) =      0.86843  eV     1   --> G_2            
     e( 74 - 74) =      0.86894  eV     1   --> G_2            
     e( 75 - 75) =      1.14152  eV     1   --> G_2            
     e( 76 - 76) =      1.14192  eV     1   --> G_2            
     e( 77 - 77) =      1.34173  eV     1   --> G_2            
     e( 78 - 78) =      1.34251  eV     1   --> G_2            
     e( 79 - 79) =      2.00849  eV     1   --> G_2            
     e( 80 - 80) =      2.00908  eV     1   --> G_2            
     e( 81 - 81) =      2.63169  eV     1   --> G_2            
     e( 82 - 82) =      2.63199  eV     1   --> G_2            
     e( 83 - 83) =      2.95854  eV     1   --> G_2            
     e( 84 - 84) =      2.95917  eV     1   --> G_2            
     e( 85 - 85) =      3.22344  eV     1   --> G_2            
     e( 86 - 86) =      3.22399  eV     1   --> G_2            
     e( 87 - 87) =      3.93132  eV     1   --> G_2            
     e( 88 - 88) =      3.93157  eV     1   --> G_2            
     e( 89 - 90) =      4.11330  eV     2   -->   2 G_2            
     e( 91 - 92) =      6.15815  eV     2   -->   2 G_2            
     e( 93 - 94) =      6.34297  eV     2   -->   2 G_2            
     e( 95 - 96) =      6.95587  eV     2   -->   2 G_2            
     e( 97 - 98) =      7.37643  eV     2   -->   2 G_2            
     e( 99 -100) =      7.53484  eV     2   -->   2 G_2            

 **************************************************************************

 **************************************************************************

                    xk=(   0.00476,   0.00841,   0.00000  )

     Band symmetry, C_1 (1)     double point group:

     e(  1 -  2) =    -35.57443  eV     2   -->   2 G_2            
     e(  3 -  4) =    -35.56522  eV     2   -->   2 G_2            
     e(  5 -  6) =    -35.54325  eV     2   -->   2 G_2            
     e(  7 -  8) =    -35.53409  eV     2   -->   2 G_2            
     e(  9 - 10) =    -35.46641  eV     2   -->   2 G_2            
     e( 11 - 12) =    -35.43436  eV     2   -->   2 G_2            
     e( 13 - 14) =    -34.11560  eV     2   -->   2 G_2            
     e( 15 - 16) =    -34.10636  eV     2   -->   2 G_2            
     e( 17 - 18) =    -34.08930  eV     2   -->   2 G_2            
     e( 19 - 20) =    -34.08017  eV     2   -->   2 G_2            
     e( 21 - 22) =    -34.07510  eV     2   -->   2 G_2            
     e( 23 - 24) =    -34.06591  eV     2   -->   2 G_2            
     e( 25 - 26) =    -34.00438  eV     2   -->   2 G_2            
     e( 27 - 28) =    -33.98835  eV     2   -->   2 G_2            
     e( 29 - 30) =    -33.96247  eV     2   -->   2 G_2            
     e( 31 - 32) =    -28.21573  eV     2   -->   2 G_2            
     e( 33 - 34) =    -28.20970  eV     2   -->   2 G_2            
     e( 35 - 36) =    -28.20726  eV     2   -->   2 G_2            
     e( 37 - 38) =    -28.20131  eV     2   -->   2 G_2            
     e( 39 - 40) =    -26.97639  eV     2   -->   2 G_2            
     e( 41 - 42) =    -26.97035  eV     2   -->   2 G_2            
     e( 43 - 44) =    -26.96745  eV     2   -->   2 G_2            
     e( 45 - 46) =    -26.96499  eV     2   -->   2 G_2            
     e( 47 - 48) =    -26.96148  eV     2   -->   2 G_2            
     e( 49 - 50) =    -26.95904  eV     2   -->   2 G_2            
     e( 51 - 52) =    -10.66988  eV     2   -->   2 G_2            
     e( 53 - 54) =    -10.13381  eV     2   -->   2 G_2            
     e( 55 - 56) =     -9.05844  eV     2   -->   2 G_2            
     e( 57 - 58) =     -6.31391  eV     2   -->   2 G_2            
     e( 59 - 60) =     -4.94489  eV     2   -->   2 G_2            
     e( 61 - 62) =     -0.57408  eV     2   -->   2 G_2            
     e( 63 - 63) =     -0.13502  eV     1   --> G_2            
     e( 64 - 64) =     -0.13426  eV     1   --> G_2            
     e( 65 - 65) =      0.15245  eV     1   --> G_2            
     e( 66 - 66) =      0.15304  eV     1   --> G_2            
     e( 67 - 67) =      0.40166  eV     1   --> G_2            
     e( 68 - 68) =      0.40272  eV     1   --> G_2            
     e( 69 - 69) =      0.45847  eV     1   --> G_2            
     e( 70 - 70) =      0.45944  eV     1   --> G_2            
     e( 71 - 71) =      0.59137  eV     1   --> G_2            
     e( 72 - 72) =      0.59297  eV     1   --> G_2            
     e( 73 - 73) =      0.85837  eV     1   --> G_2            
     e( 74 - 74) =      0.85863  eV     1   --> G_2            
     e( 75 - 75) =      1.15195  eV     1   --> G_2            
     e( 76 - 76) =      1.15215  eV     1   --> G_2            
     e( 77 - 77) =      1.33135  eV     1   --> G_2            
     e( 78 - 78) =      1.33174  eV     1   --> G_2            
     e( 79 - 79) =      1.98642  eV     1   --> G_2            
     e( 80 - 80) =      1.98672  eV     1   --> G_2            
     e( 81 - 81) =      2.63062  eV     1   --> G_2            
     e( 82 - 82) =      2.63078  eV     1   --> G_2            
     e( 83 - 83) =      2.98089  eV     1   --> G_2            
     e( 84 - 84) =      2.98125  eV     1   --> G_2            
     e( 85 - 85) =      3.19932  eV     1   --> G_2            
     e( 86 - 86) =      3.19962  eV     1   --> G_2            
     e( 87 - 87) =      3.92261  eV     1   --> G_2            
     e( 88 - 88) =      3.92273  eV     1   --> G_2            
     e( 89 - 90) =      4.11361  eV     2   -->   2 G_2            
     e( 91 - 92) =      6.15501  eV     2   -->   2 G_2            
     e( 93 - 94) =      6.34237  eV     2   -->   2 G_2            
     e( 95 - 96) =      6.95531  eV     2   -->   2 G_2            
     e( 97 - 98) =      7.38014  eV     2   -->   2 G_2            
     e( 99 -100) =      7.53508  eV     2   -->   2 G_2            

 **************************************************************************

 **************************************************************************

                    xk=(   0.00000,   0.00000,   0.00000  )

     Band symmetry, C_1 (1)     double point group:

     e(  1 -  2) =    -35.57443  eV     2   -->   2 G_2            
     e(  3 -  4) =    -35.56522  eV     2   -->   2 G_2            
     e(  5 -  6) =    -35.54325  eV     2   -->   2 G_2            
     e(  7 -  8) =    -35.53409  eV     2   -->   2 G_2            
     e(  9 - 10) =    -35.46641  eV     2   -->   2 G_2            
     e( 11 - 12) =    -35.43436  eV     2   -->   2 G_2            
     e( 13 - 14) =    -34.11560  eV     2   -->   2 G_2            
     e( 15 - 16) =    -34.10636  eV     2   -->   2 G_2            
     e( 17 - 18) =    -34.08930  eV     2   -->   2 G_2            
     e( 19 - 20) =    -34.08017  eV     2   -->   2 G_2            
     e( 21 - 22) =    -34.07510  eV     2   -->   2 G_2            
     e( 23 - 24) =    -34.06591  eV     2   -->   2 G_2            
     e( 25 - 26) =    -34.00438  eV     2   -->   2 G_2            
     e( 27 - 28) =    -33.98835  eV     2   -->   2 G_2            
     e( 29 - 30) =    -33.96247  eV     2   -->   2 G_2            
     e( 31 - 32) =    -28.21573  eV     2   -->   2 G_2            
     e( 33 - 34) =    -28.20970  eV     2   -->   2 G_2            
     e( 35 - 36) =    -28.20726  eV     2   -->   2 G_2            
     e( 37 - 38) =    -28.20130  eV     2   -->   2 G_2            
     e( 39 - 40) =    -26.97639  eV     2   -->   2 G_2            
     e( 41 - 42) =    -26.97035  eV     2   -->   2 G_2            
     e( 43 - 44) =    -26.96745  eV     2   -->   2 G_2            
     e( 45 - 46) =    -26.96499  eV     2   -->   2 G_2            
     e( 47 - 48) =    -26.96148  eV     2   -->   2 G_2            
     e( 49 - 50) =    -26.95903  eV     2   -->   2 G_2            
     e( 51 - 52) =    -10.67049  eV     2   -->   2 G_2            
     e( 53 - 54) =    -10.13436  eV     2   -->   2 G_2            
     e( 55 - 56) =     -9.05874  eV     2   -->   2 G_2            
     e( 57 - 58) =     -6.31384  eV     2   -->   2 G_2            
     e( 59 - 60) =     -4.94387  eV     2   -->   2 G_2            
     e( 61 - 62) =     -0.57311  eV     2   -->   2 G_2            
     e( 63 - 64) =     -0.12726  eV     2   -->   2 G_2            
     e( 65 - 66) =      0.15123  eV     2   -->   2 G_2            
     e( 67 - 68) =      0.40773  eV     2   -->   2 G_2            
     e( 69 - 70) =      0.47390  eV     2   -->   2 G_2            
     e( 71 - 72) =      0.58105  eV     2   -->   2 G_2            
     e( 73 - 74) =      0.85503  eV     2   -->   2 G_2            
     e( 75 - 76) =      1.15536  eV     2   -->   2 G_2            
     e( 77 - 78) =      1.32851  eV     2   -->   2 G_2            
     e( 79 - 80) =      1.97870  eV     2   -->   2 G_2            
     e( 81 - 82) =      2.63031  eV     2   -->   2 G_2            
     e( 83 - 84) =      2.99025  eV     2   -->   2 G_2            
     e( 85 - 86) =      3.18974  eV     2   -->   2 G_2            
     e( 87 - 88) =      3.91967  eV     2   -->   2 G_2            
     e( 89 - 90) =      4.11380  eV     2   -->   2 G_2            
     e( 91 - 92) =      6.15397  eV     2   -->   2 G_2            
     e( 93 - 94) =      6.34217  eV     2   -->   2 G_2            
     e( 95 - 96) =      6.95511  eV     2   -->   2 G_2            
     e( 97 - 98) =      7.38132  eV     2   -->   2 G_2            
     e( 99 -100) =      7.53518  eV     2   -->   2 G_2            

 **************************************************************************

     BANDS        :  20m40.55s CPU  19m47.99s WALL


   This run was terminated on:  17:20:20  14Aug2025            

=------------------------------------------------------------------------------=
   JOB DONE.
=------------------------------------------------------------------------------=
