
     Program BANDS v.7.4.1 starts on 22Aug2025 at 19:48:35 

     This program is part of the open-source Quantum ESPRESSO suite
     for quantum simulation of materials; please cite
         "P. Giannozzi et al., J. Phys.:Condens. Matter 21 395502 (2009);
         "P. Giannozzi et al., J. Phys.:Condens. Matter 29 465901 (2017);
         "P. Giannozzi et al., J. Chem. Phys. 152 154105 (2020);
          URL http://www.quantum-espresso.org", 
     in publications or presentations arising from this work. More details at
     http://www.quantum-espresso.org/quote

     Parallel version (MPI & OpenMP), running on      48 processor cores
     Number of MPI processes:                24
     Threads/MPI process:                     2

     MPI processes distributed on     2 nodes
     R & G space division:  proc/nbgrp/npool/nimage =      24
     109716 MiB available memory on the printing compute node when the environment starts


     Reading xml data from directory:

     tmp/Sb2Te3-uatsx-c6-soc-0.0.save/
     file Sb.rel-pbe-n-rrkjus_psl.1.0.0.UPF: wavefunction(s)  5S renormalized
     file Te.rel-pbe-n-rrkjus_psl.1.0.0.UPF: wavefunction(s)  5S renormalized

     IMPORTANT: XC functional enforced from input :
     Exchange-correlation= PBE
                           (   1   4   3   4   0   0   0)
     Any further DFT definition will be discarded
     Please, verify this is what you really want


     Parallelization info
     --------------------
     sticks:   dense  smooth     PW     G-vecs:    dense   smooth      PW
     Min          94      38     10                18908     4792     720
     Max          95      39     11                18933     4815     753
     Sum        2275     925    253               454177   115133   17665

     Using Slab Decomposition


     negative rho (up, down):  3.692E-06 0.000E+00
     Reading collected, re-writing distributed wavefunctions
     high-symmetry point:  0.0000 0.0000 0.0000   x coordinate   0.0000
     high-symmetry point:  0.5000 0.2886 0.0000   x coordinate   0.5773
     high-symmetry point:  0.3333 0.5771 0.0000   x coordinate   0.9105
     high-symmetry point:  0.0000 0.0000 0.0000   x coordinate   1.5770

     Plottable bands (eV) written to file ./bands/Sb2Te3-uatsx-c6-soc-0.0.bands.gnu
     Bands written to file ./bands/Sb2Te3-uatsx-c6-soc-0.0.bands

 **************************************************************************

                    xk=(   0.00000,   0.00000,   0.00000  )

     double point group C_1 (1)    
     there are  2 classes and  1 irreducible representations
     the character table:

       E     -E   
                  
G_2    1.00 -1.00

     the symmetry operations in each class and the name of the first element:

     E             1
                                                                 
     -E           -1
                                                                 

     Band symmetry, C_1 (1)     double point group:

     e(  1 -  2) =    -12.57157  eV     2   -->   2 G_2            
     e(  3 -  4) =    -12.03969  eV     2   -->   2 G_2            
     e(  5 -  6) =    -10.93706  eV     2   -->   2 G_2            
     e(  7 -  8) =     -8.16524  eV     2   -->   2 G_2            
     e(  9 - 10) =     -6.70867  eV     2   -->   2 G_2            
     e( 11 - 12) =     -2.38661  eV     2   -->   2 G_2            
     e( 13 - 14) =     -1.84254  eV     2   -->   2 G_2            
     e( 15 - 16) =     -1.60448  eV     2   -->   2 G_2            
     e( 17 - 18) =     -1.32496  eV     2   -->   2 G_2            
     e( 19 - 20) =     -1.23448  eV     2   -->   2 G_2            
     e( 21 - 22) =     -1.12548  eV     2   -->   2 G_2            
     e( 23 - 24) =     -0.91760  eV     2   -->   2 G_2            
     e( 25 - 26) =     -0.52172  eV     2   -->   2 G_2            
     e( 27 - 28) =     -0.37371  eV     2   -->   2 G_2            
     e( 29 - 30) =      0.34916  eV     2   -->   2 G_2            
     e( 31 - 32) =      0.95106  eV     2   -->   2 G_2            
     e( 33 - 34) =      1.26359  eV     2   -->   2 G_2            
     e( 35 - 36) =      1.51484  eV     2   -->   2 G_2            
     e( 37 - 38) =      2.29018  eV     2   -->   2 G_2            
     e( 39 - 40) =      2.36697  eV     2   -->   2 G_2            
     e( 41 - 42) =      4.29935  eV     2   -->   2 G_2            
     e( 43 - 44) =      4.50387  eV     2   -->   2 G_2            
     e( 45 - 46) =      5.06100  eV     2   -->   2 G_2            
     e( 47 - 48) =      5.71864  eV     2   -->   2 G_2            
     e( 49 - 50) =      5.86760  eV     2   -->   2 G_2            
     e( 51 - 52) =      5.89928  eV     2   -->   2 G_2            
     e( 53 - 54) =      6.52203  eV     2   -->   2 G_2            
     e( 55 - 56) =      6.81446  eV     2   -->   2 G_2            
     e( 57 - 58) =      6.95553  eV     2   -->   2 G_2            
     e( 59 - 60) =      7.19798  eV     2   -->   2 G_2            
     e( 61 - 62) =      7.20375  eV     2   -->   2 G_2            
     e( 63 - 64) =      7.83848  eV     2   -->   2 G_2            
     e( 65 - 66) =      7.86093  eV     2   -->   2 G_2            
     e( 67 - 68) =      8.16930  eV     2   -->   2 G_2            
     e( 69 - 70) =      8.25829  eV     2   -->   2 G_2            
     e( 71 - 72) =      8.68068  eV     2   -->   2 G_2            
     e( 73 - 74) =      9.34679  eV     2   -->   2 G_2            
     e( 75 - 76) =      9.41696  eV     2   -->   2 G_2            
     e( 77 - 78) =      9.68566  eV     2   -->   2 G_2            
     e( 79 - 80) =      9.77841  eV     2   -->   2 G_2            
     e( 81 - 82) =      9.85358  eV     2   -->   2 G_2            
     e( 83 - 84) =     10.92910  eV     2   -->   2 G_2            
     e( 85 - 86) =     10.97777  eV     2   -->   2 G_2            
     e( 87 - 88) =     12.21941  eV     2   -->   2 G_2            
     e( 89 - 90) =     12.25073  eV     2   -->   2 G_2            
     e( 91 - 92) =     12.40730  eV     2   -->   2 G_2            
     e( 93 - 94) =     12.48357  eV     2   -->   2 G_2            
     e( 95 - 96) =     12.53918  eV     2   -->   2 G_2            
     e( 97 - 98) =     13.27028  eV     2   -->   2 G_2            
     e( 99 -100) =     14.10372  eV     2   -->   2 G_2            

 **************************************************************************

 **************************************************************************

                    xk=(   0.00714,   0.00412,   0.00000  )

     Band symmetry, C_1 (1)     double point group:

     e(  1 -  2) =    -12.57112  eV     2   -->   2 G_2            
     e(  3 -  4) =    -12.03927  eV     2   -->   2 G_2            
     e(  5 -  6) =    -10.93680  eV     2   -->   2 G_2            
     e(  7 -  8) =     -8.16526  eV     2   -->   2 G_2            
     e(  9 - 10) =     -6.70940  eV     2   -->   2 G_2            
     e( 11 - 12) =     -2.38722  eV     2   -->   2 G_2            
     e( 13 - 13) =     -1.84856  eV     1   --> G_2            
     e( 14 - 14) =     -1.84809  eV     1   --> G_2            
     e( 15 - 15) =     -1.60423  eV     1   --> G_2            
     e( 16 - 16) =     -1.60327  eV     1   --> G_2            
     e( 17 - 17) =     -1.32798  eV     1   --> G_2            
     e( 18 - 18) =     -1.32683  eV     1   --> G_2            
     e( 19 - 19) =     -1.25331  eV     1   --> G_2            
     e( 20 - 20) =     -1.24624  eV     1   --> G_2            
     e( 21 - 21) =     -1.12077  eV     1   --> G_2            
     e( 22 - 22) =     -1.11261  eV     1   --> G_2            
     e( 23 - 23) =     -0.91436  eV     1   --> G_2            
     e( 24 - 24) =     -0.91266  eV     1   --> G_2            
     e( 25 - 25) =     -0.52640  eV     1   --> G_2            
     e( 26 - 26) =     -0.52525  eV     1   --> G_2            
     e( 27 - 27) =     -0.36991  eV     1   --> G_2            
     e( 28 - 28) =     -0.36893  eV     1   --> G_2            
     e( 29 - 29) =      0.35433  eV     1   --> G_2            
     e( 30 - 30) =      0.35516  eV     1   --> G_2            
     e( 31 - 31) =      0.95156  eV     1   --> G_2            
     e( 32 - 32) =      0.95233  eV     1   --> G_2            
     e( 33 - 33) =      1.25659  eV     1   --> G_2            
     e( 34 - 34) =      1.25862  eV     1   --> G_2            
     e( 35 - 35) =      1.51969  eV     1   --> G_2            
     e( 36 - 36) =      1.52175  eV     1   --> G_2            
     e( 37 - 37) =      2.29287  eV     1   --> G_2            
     e( 38 - 38) =      2.29330  eV     1   --> G_2            
     e( 39 - 39) =      2.36613  eV     1   --> G_2            
     e( 40 - 40) =      2.36665  eV     1   --> G_2            
     e( 41 - 42) =      4.30019  eV     2   -->   2 G_2            
     e( 43 - 44) =      4.50409  eV     2   -->   2 G_2            
     e( 45 - 46) =      5.06130  eV     2   -->   2 G_2            
     e( 47 - 48) =      5.71863  eV     2   -->   2 G_2            
     e( 49 - 49) =      5.86549  eV     1   --> G_2            
     e( 50 - 50) =      5.86569  eV     1   --> G_2            
     e( 51 - 51) =      5.89736  eV     1   --> G_2            
     e( 52 - 52) =      5.89756  eV     1   --> G_2            
     e( 53 - 54) =      6.52568  eV     2   -->   2 G_2            
     e( 55 - 56) =      6.81398  eV     2   -->   2 G_2            
     e( 57 - 57) =      6.95349  eV     1   --> G_2            
     e( 58 - 58) =      6.95362  eV     1   --> G_2            
     e( 59 - 59) =      7.19696  eV     1   --> G_2            
     e( 60 - 60) =      7.19721  eV     1   --> G_2            
     e( 61 - 61) =      7.20276  eV     1   --> G_2            
     e( 62 - 62) =      7.20295  eV     1   --> G_2            
     e( 63 - 63) =      7.84180  eV     1   --> G_2            
     e( 64 - 64) =      7.84217  eV     1   --> G_2            
     e( 65 - 65) =      7.86422  eV     1   --> G_2            
     e( 66 - 66) =      7.86460  eV     1   --> G_2            
     e( 67 - 68) =      8.16900  eV     2   -->   2 G_2            
     e( 69 - 70) =      8.26173  eV     2   -->   2 G_2            
     e( 71 - 72) =      8.68386  eV     2   -->   2 G_2            
     e( 73 - 73) =      9.34319  eV     1   --> G_2            
     e( 74 - 74) =      9.34445  eV     1   --> G_2            
     e( 75 - 75) =      9.41097  eV     1   --> G_2            
     e( 76 - 76) =      9.41299  eV     1   --> G_2            
     e( 77 - 77) =      9.66444  eV     1   --> G_2            
     e( 78 - 78) =      9.66523  eV     1   --> G_2            
     e( 79 - 79) =      9.79465  eV     1   --> G_2            
     e( 80 - 80) =      9.79646  eV     1   --> G_2            
     e( 81 - 81) =      9.86749  eV     1   --> G_2            
     e( 82 - 82) =      9.86924  eV     1   --> G_2            
     e( 83 - 84) =     10.92908  eV     2   -->   2 G_2            
     e( 85 - 86) =     10.97929  eV     2   -->   2 G_2            
     e( 87 - 87) =     12.20555  eV     1   --> G_2            
     e( 88 - 88) =     12.20770  eV     1   --> G_2            
     e( 89 - 89) =     12.23018  eV     1   --> G_2            
     e( 90 - 90) =     12.23369  eV     1   --> G_2            
     e( 91 - 91) =     12.41860  eV     1   --> G_2            
     e( 92 - 92) =     12.42187  eV     1   --> G_2            
     e( 93 - 93) =     12.48910  eV     1   --> G_2            
     e( 94 - 94) =     12.49097  eV     1   --> G_2            
     e( 95 - 96) =     12.54897  eV     2   -->   2 G_2            
     e( 97 - 98) =     13.27511  eV     2   -->   2 G_2            
     e( 99 - 99) =     14.09136  eV     1   --> G_2            
     e(100 -100) =     14.09219  eV     1   --> G_2            

 **************************************************************************

 **************************************************************************

                    xk=(   0.01429,   0.00824,   0.00000  )

     Band symmetry, C_1 (1)     double point group:

     e(  1 -  2) =    -12.56977  eV     2   -->   2 G_2            
     e(  3 -  4) =    -12.03803  eV     2   -->   2 G_2            
     e(  5 -  6) =    -10.93601  eV     2   -->   2 G_2            
     e(  7 -  8) =     -8.16534  eV     2   -->   2 G_2            
     e(  9 - 10) =     -6.71157  eV     2   -->   2 G_2            
     e( 11 - 11) =     -2.38901  eV     1   --> G_2            
     e( 12 - 12) =     -2.38889  eV     1   --> G_2            
     e( 13 - 13) =     -1.86547  eV     1   --> G_2            
     e( 14 - 14) =     -1.86462  eV     1   --> G_2            
     e( 15 - 15) =     -1.60315  eV     1   --> G_2            
     e( 16 - 16) =     -1.60131  eV     1   --> G_2            
     e( 17 - 17) =     -1.33632  eV     1   --> G_2            
     e( 18 - 18) =     -1.33401  eV     1   --> G_2            
     e( 19 - 19) =     -1.28959  eV     1   --> G_2            
     e( 20 - 20) =     -1.27989  eV     1   --> G_2            
     e( 21 - 21) =     -1.10618  eV     1   --> G_2            
     e( 22 - 22) =     -1.09443  eV     1   --> G_2            
     e( 23 - 23) =     -0.90319  eV     1   --> G_2            
     e( 24 - 24) =     -0.90006  eV     1   --> G_2            
     e( 25 - 25) =     -0.53876  eV     1   --> G_2            
     e( 26 - 26) =     -0.53654  eV     1   --> G_2            
     e( 27 - 27) =     -0.35746  eV     1   --> G_2            
     e( 28 - 28) =     -0.35558  eV     1   --> G_2            
     e( 29 - 29) =      0.36992  eV     1   --> G_2            
     e( 30 - 30) =      0.37153  eV     1   --> G_2            
     e( 31 - 31) =      0.95385  eV     1   --> G_2            
     e( 32 - 32) =      0.95534  eV     1   --> G_2            
     e( 33 - 33) =      1.23999  eV     1   --> G_2            
     e( 34 - 34) =      1.24355  eV     1   --> G_2            
     e( 35 - 35) =      1.53470  eV     1   --> G_2            
     e( 36 - 36) =      1.53830  eV     1   --> G_2            
     e( 37 - 37) =      2.30125  eV     1   --> G_2            
     e( 38 - 38) =      2.30206  eV     1   --> G_2            
     e( 39 - 39) =      2.36424  eV     1   --> G_2            
     e( 40 - 40) =      2.36530  eV     1   --> G_2            
     e( 41 - 42) =      4.30271  eV     2   -->   2 G_2            
     e( 43 - 44) =      4.50476  eV     2   -->   2 G_2            
     e( 45 - 46) =      5.06221  eV     2   -->   2 G_2            
     e( 47 - 48) =      5.71860  eV     2   -->   2 G_2            
     e( 49 - 49) =      5.85695  eV     1   --> G_2            
     e( 50 - 50) =      5.85728  eV     1   --> G_2            
     e( 51 - 51) =      5.89477  eV     1   --> G_2            
     e( 52 - 52) =      5.89511  eV     1   --> G_2            
     e( 53 - 54) =      6.53618  eV     2   -->   2 G_2            
     e( 55 - 55) =      6.81239  eV     1   --> G_2            
     e( 56 - 56) =      6.81252  eV     1   --> G_2            
     e( 57 - 57) =      6.94748  eV     1   --> G_2            
     e( 58 - 58) =      6.94773  eV     1   --> G_2            
     e( 59 - 59) =      7.19389  eV     1   --> G_2            
     e( 60 - 60) =      7.19449  eV     1   --> G_2            
     e( 61 - 61) =      7.20118  eV     1   --> G_2            
     e( 62 - 62) =      7.20152  eV     1   --> G_2            
     e( 63 - 63) =      7.85110  eV     1   --> G_2            
     e( 64 - 64) =      7.85172  eV     1   --> G_2            
     e( 65 - 65) =      7.87445  eV     1   --> G_2            
     e( 66 - 66) =      7.87514  eV     1   --> G_2            
     e( 67 - 67) =      8.16863  eV     1   --> G_2            
     e( 68 - 68) =      8.16875  eV     1   --> G_2            
     e( 69 - 70) =      8.27196  eV     2   -->   2 G_2            
     e( 71 - 72) =      8.69348  eV     2   -->   2 G_2            
     e( 73 - 73) =      9.33349  eV     1   --> G_2            
     e( 74 - 74) =      9.33597  eV     1   --> G_2            
     e( 75 - 75) =      9.39559  eV     1   --> G_2            
     e( 76 - 76) =      9.39938  eV     1   --> G_2            
     e( 77 - 77) =      9.62708  eV     1   --> G_2            
     e( 78 - 78) =      9.62812  eV     1   --> G_2            
     e( 79 - 79) =      9.82454  eV     1   --> G_2            
     e( 80 - 80) =      9.82703  eV     1   --> G_2            
     e( 81 - 81) =      9.90712  eV     1   --> G_2            
     e( 82 - 82) =      9.90959  eV     1   --> G_2            
     e( 83 - 84) =     10.92911  eV     2   -->   2 G_2            
     e( 85 - 86) =     10.98386  eV     2   -->   2 G_2            
     e( 87 - 87) =     12.16908  eV     1   --> G_2            
     e( 88 - 88) =     12.17127  eV     1   --> G_2            
     e( 89 - 89) =     12.19049  eV     1   --> G_2            
     e( 90 - 90) =     12.19400  eV     1   --> G_2            
     e( 91 - 91) =     12.44016  eV     1   --> G_2            
     e( 92 - 92) =     12.44388  eV     1   --> G_2            
     e( 93 - 93) =     12.50635  eV     1   --> G_2            
     e( 94 - 94) =     12.50843  eV     1   --> G_2            
     e( 95 - 95) =     12.57939  eV     1   --> G_2            
     e( 96 - 96) =     12.57959  eV     1   --> G_2            
     e( 97 - 98) =     13.28826  eV     2   -->   2 G_2            
     e( 99 - 99) =     14.05174  eV     1   --> G_2            
     e(100 -100) =     14.05279  eV     1   --> G_2            

 **************************************************************************

 **************************************************************************

                    xk=(   0.02143,   0.01237,   0.00000  )

     Band symmetry, C_1 (1)     double point group:

     e(  1 -  2) =    -12.56751  eV     2   -->   2 G_2            
     e(  3 -  4) =    -12.03595  eV     2   -->   2 G_2            
     e(  5 -  6) =    -10.93469  eV     2   -->   2 G_2            
     e(  7 -  8) =     -8.16547  eV     2   -->   2 G_2            
     e(  9 - 10) =     -6.71518  eV     2   -->   2 G_2            
     e( 11 - 11) =     -2.39202  eV     1   --> G_2            
     e( 12 - 12) =     -2.39184  eV     1   --> G_2            
     e( 13 - 13) =     -1.89172  eV     1   --> G_2            
     e( 14 - 14) =     -1.89061  eV     1   --> G_2            
     e( 15 - 15) =     -1.60284  eV     1   --> G_2            
     e( 16 - 16) =     -1.60021  eV     1   --> G_2            
     e( 17 - 17) =     -1.35506  eV     1   --> G_2            
     e( 18 - 18) =     -1.35060  eV     1   --> G_2            
     e( 19 - 19) =     -1.32715  eV     1   --> G_2            
     e( 20 - 20) =     -1.31823  eV     1   --> G_2            
     e( 21 - 21) =     -1.09335  eV     1   --> G_2            
     e( 22 - 22) =     -1.08024  eV     1   --> G_2            
     e( 23 - 23) =     -0.88563  eV     1   --> G_2            
     e( 24 - 24) =     -0.88137  eV     1   --> G_2            
     e( 25 - 25) =     -0.55698  eV     1   --> G_2            
     e( 26 - 26) =     -0.55377  eV     1   --> G_2            
     e( 27 - 27) =     -0.33673  eV     1   --> G_2            
     e( 28 - 28) =     -0.33410  eV     1   --> G_2            
     e( 29 - 29) =      0.39387  eV     1   --> G_2            
     e( 30 - 30) =      0.39614  eV     1   --> G_2            
     e( 31 - 31) =      0.95796  eV     1   --> G_2            
     e( 32 - 32) =      0.96004  eV     1   --> G_2            
     e( 33 - 33) =      1.21847  eV     1   --> G_2            
     e( 34 - 34) =      1.22294  eV     1   --> G_2            
     e( 35 - 35) =      1.55604  eV     1   --> G_2            
     e( 36 - 36) =      1.56061  eV     1   --> G_2            
     e( 37 - 37) =      2.31471  eV     1   --> G_2            
     e( 38 - 38) =      2.31577  eV     1   --> G_2            
     e( 39 - 39) =      2.36187  eV     1   --> G_2            
     e( 40 - 40) =      2.36352  eV     1   --> G_2            
     e( 41 - 42) =      4.30691  eV     2   -->   2 G_2            
     e( 43 - 44) =      4.50587  eV     2   -->   2 G_2            
     e( 45 - 46) =      5.06365  eV     2   -->   2 G_2            
     e( 47 - 48) =      5.71832  eV     2   -->   2 G_2            
     e( 49 - 49) =      5.83908  eV     1   --> G_2            
     e( 50 - 50) =      5.83941  eV     1   --> G_2            
     e( 51 - 51) =      5.89587  eV     1   --> G_2            
     e( 52 - 52) =      5.89620  eV     1   --> G_2            
     e( 53 - 54) =      6.55241  eV     2   -->   2 G_2            
     e( 55 - 55) =      6.80896  eV     1   --> G_2            
     e( 56 - 56) =      6.80914  eV     1   --> G_2            
     e( 57 - 57) =      6.93783  eV     1   --> G_2            
     e( 58 - 58) =      6.93814  eV     1   --> G_2            
     e( 59 - 59) =      7.18949  eV     1   --> G_2            
     e( 60 - 60) =      7.19034  eV     1   --> G_2            
     e( 61 - 61) =      7.20068  eV     1   --> G_2            
     e( 62 - 62) =      7.20114  eV     1   --> G_2            
     e( 63 - 63) =      7.86440  eV     1   --> G_2            
     e( 64 - 64) =      7.86510  eV     1   --> G_2            
     e( 65 - 65) =      7.89052  eV     1   --> G_2            
     e( 66 - 66) =      7.89142  eV     1   --> G_2            
     e( 67 - 67) =      8.16959  eV     1   --> G_2            
     e( 68 - 68) =      8.16976  eV     1   --> G_2            
     e( 69 - 70) =      8.28873  eV     2   -->   2 G_2            
     e( 71 - 72) =      8.70965  eV     2   -->   2 G_2            
     e( 73 - 73) =      9.31738  eV     1   --> G_2            
     e( 74 - 74) =      9.32100  eV     1   --> G_2            
     e( 75 - 75) =      9.37189  eV     1   --> G_2            
     e( 76 - 76) =      9.37702  eV     1   --> G_2            
     e( 77 - 77) =      9.59317  eV     1   --> G_2            
     e( 78 - 78) =      9.59411  eV     1   --> G_2            
     e( 79 - 79) =      9.85880  eV     1   --> G_2            
     e( 80 - 80) =      9.86137  eV     1   --> G_2            
     e( 81 - 81) =      9.96078  eV     1   --> G_2            
     e( 82 - 82) =      9.96325  eV     1   --> G_2            
     e( 83 - 84) =     10.92925  eV     2   -->   2 G_2            
     e( 85 - 86) =     10.99140  eV     2   -->   2 G_2            
     e( 87 - 87) =     12.11532  eV     1   --> G_2            
     e( 88 - 88) =     12.11631  eV     1   --> G_2            
     e( 89 - 89) =     12.14859  eV     1   --> G_2            
     e( 90 - 90) =     12.15021  eV     1   --> G_2            
     e( 91 - 91) =     12.45149  eV     1   --> G_2            
     e( 92 - 92) =     12.45391  eV     1   --> G_2            
     e( 93 - 93) =     12.53823  eV     1   --> G_2            
     e( 94 - 94) =     12.53919  eV     1   --> G_2            
     e( 95 - 95) =     12.62550  eV     1   --> G_2            
     e( 96 - 96) =     12.62575  eV     1   --> G_2            
     e( 97 - 97) =     13.30553  eV     1   --> G_2            
     e( 98 - 98) =     13.30565  eV     1   --> G_2            
     e( 99 - 99) =     13.98801  eV     1   --> G_2            
     e(100 -100) =     13.98840  eV     1   --> G_2            

 **************************************************************************

 **************************************************************************

                    xk=(   0.02857,   0.01649,   0.00000  )

     Band symmetry, C_1 (1)     double point group:

     e(  1 -  2) =    -12.56435  eV     2   -->   2 G_2            
     e(  3 -  4) =    -12.03304  eV     2   -->   2 G_2            
     e(  5 -  6) =    -10.93285  eV     2   -->   2 G_2            
     e(  7 -  8) =     -8.16565  eV     2   -->   2 G_2            
     e(  9 - 10) =     -6.72024  eV     2   -->   2 G_2            
     e( 11 - 11) =     -2.39632  eV     1   --> G_2            
     e( 12 - 12) =     -2.39608  eV     1   --> G_2            
     e( 13 - 13) =     -1.92560  eV     1   --> G_2            
     e( 14 - 14) =     -1.92435  eV     1   --> G_2            
     e( 15 - 15) =     -1.60503  eV     1   --> G_2            
     e( 16 - 16) =     -1.60173  eV     1   --> G_2            
     e( 17 - 17) =     -1.39644  eV     1   --> G_2            
     e( 18 - 18) =     -1.38816  eV     1   --> G_2            
     e( 19 - 19) =     -1.34914  eV     1   --> G_2            
     e( 20 - 20) =     -1.34293  eV     1   --> G_2            
     e( 21 - 21) =     -1.08595  eV     1   --> G_2            
     e( 22 - 22) =     -1.07242  eV     1   --> G_2            
     e( 23 - 23) =     -0.86477  eV     1   --> G_2            
     e( 24 - 24) =     -0.85957  eV     1   --> G_2            
     e( 25 - 25) =     -0.57756  eV     1   --> G_2            
     e( 26 - 26) =     -0.57341  eV     1   --> G_2            
     e( 27 - 27) =     -0.30893  eV     1   --> G_2            
     e( 28 - 28) =     -0.30580  eV     1   --> G_2            
     e( 29 - 29) =      0.42324  eV     1   --> G_2            
     e( 30 - 30) =      0.42604  eV     1   --> G_2            
     e( 31 - 31) =      0.96398  eV     1   --> G_2            
     e( 32 - 32) =      0.96639  eV     1   --> G_2            
     e( 33 - 33) =      1.19660  eV     1   --> G_2            
     e( 34 - 34) =      1.20149  eV     1   --> G_2            
     e( 35 - 35) =      1.58031  eV     1   --> G_2            
     e( 36 - 36) =      1.58541  eV     1   --> G_2            
     e( 37 - 37) =      2.33077  eV     1   --> G_2            
     e( 38 - 38) =      2.33181  eV     1   --> G_2            
     e( 39 - 39) =      2.36138  eV     1   --> G_2            
     e( 40 - 40) =      2.36377  eV     1   --> G_2            
     e( 41 - 42) =      4.31273  eV     2   -->   2 G_2            
     e( 43 - 44) =      4.50742  eV     2   -->   2 G_2            
     e( 45 - 46) =      5.06554  eV     2   -->   2 G_2            
     e( 47 - 48) =      5.71723  eV     2   -->   2 G_2            
     e( 49 - 49) =      5.81378  eV     1   --> G_2            
     e( 50 - 50) =      5.81406  eV     1   --> G_2            
     e( 51 - 51) =      5.90080  eV     1   --> G_2            
     e( 52 - 52) =      5.90107  eV     1   --> G_2            
     e( 53 - 54) =      6.57285  eV     2   -->   2 G_2            
     e( 55 - 55) =      6.80221  eV     1   --> G_2            
     e( 56 - 56) =      6.80245  eV     1   --> G_2            
     e( 57 - 57) =      6.92596  eV     1   --> G_2            
     e( 58 - 58) =      6.92631  eV     1   --> G_2            
     e( 59 - 59) =      7.18518  eV     1   --> G_2            
     e( 60 - 60) =      7.18607  eV     1   --> G_2            
     e( 61 - 61) =      7.20244  eV     1   --> G_2            
     e( 62 - 62) =      7.20290  eV     1   --> G_2            
     e( 63 - 63) =      7.88043  eV     1   --> G_2            
     e( 64 - 64) =      7.88115  eV     1   --> G_2            
     e( 65 - 65) =      7.90908  eV     1   --> G_2            
     e( 66 - 66) =      7.91013  eV     1   --> G_2            
     e( 67 - 67) =      8.17420  eV     1   --> G_2            
     e( 68 - 68) =      8.17442  eV     1   --> G_2            
     e( 69 - 70) =      8.31169  eV     2   -->   2 G_2            
     e( 71 - 71) =      8.73248  eV     1   --> G_2            
     e( 72 - 72) =      8.73258  eV     1   --> G_2            
     e( 73 - 73) =      9.29467  eV     1   --> G_2            
     e( 74 - 74) =      9.29927  eV     1   --> G_2            
     e( 75 - 75) =      9.34170  eV     1   --> G_2            
     e( 76 - 76) =      9.34770  eV     1   --> G_2            
     e( 77 - 77) =      9.56847  eV     1   --> G_2            
     e( 78 - 78) =      9.56911  eV     1   --> G_2            
     e( 79 - 79) =      9.89796  eV     1   --> G_2            
     e( 80 - 80) =      9.90050  eV     1   --> G_2            
     e( 81 - 81) =     10.01973  eV     1   --> G_2            
     e( 82 - 82) =     10.02205  eV     1   --> G_2            
     e( 83 - 84) =     10.92960  eV     2   -->   2 G_2            
     e( 85 - 86) =     11.00184  eV     2   -->   2 G_2            
     e( 87 - 87) =     12.05302  eV     1   --> G_2            
     e( 88 - 88) =     12.05409  eV     1   --> G_2            
     e( 89 - 89) =     12.10471  eV     1   --> G_2            
     e( 90 - 90) =     12.10562  eV     1   --> G_2            
     e( 91 - 91) =     12.45349  eV     1   --> G_2            
     e( 92 - 92) =     12.45494  eV     1   --> G_2            
     e( 93 - 93) =     12.57976  eV     1   --> G_2            
     e( 94 - 94) =     12.58005  eV     1   --> G_2            
     e( 95 - 95) =     12.67970  eV     1   --> G_2            
     e( 96 - 96) =     12.67989  eV     1   --> G_2            
     e( 97 - 97) =     13.31991  eV     1   --> G_2            
     e( 98 - 98) =     13.32005  eV     1   --> G_2            
     e( 99 -100) =     13.91933  eV     2   -->   2 G_2            

 **************************************************************************

 **************************************************************************

                    xk=(   0.03571,   0.02061,   0.00000  )

     Band symmetry, C_1 (1)     double point group:

     e(  1 -  2) =    -12.56029  eV     2   -->   2 G_2            
     e(  3 -  4) =    -12.02930  eV     2   -->   2 G_2            
     e(  5 -  6) =    -10.93049  eV     2   -->   2 G_2            
     e(  7 -  8) =     -8.16590  eV     2   -->   2 G_2            
     e(  9 - 10) =     -6.72675  eV     2   -->   2 G_2            
     e( 11 - 11) =     -2.40201  eV     1   --> G_2            
     e( 12 - 12) =     -2.40170  eV     1   --> G_2            
     e( 13 - 13) =     -1.96569  eV     1   --> G_2            
     e( 14 - 14) =     -1.96439  eV     1   --> G_2            
     e( 15 - 15) =     -1.61119  eV     1   --> G_2            
     e( 16 - 16) =     -1.60734  eV     1   --> G_2            
     e( 17 - 17) =     -1.44727  eV     1   --> G_2            
     e( 18 - 18) =     -1.43797  eV     1   --> G_2            
     e( 19 - 19) =     -1.36559  eV     1   --> G_2            
     e( 20 - 20) =     -1.35952  eV     1   --> G_2            
     e( 21 - 21) =     -1.08455  eV     1   --> G_2            
     e( 22 - 22) =     -1.07110  eV     1   --> G_2            
     e( 23 - 23) =     -0.84481  eV     1   --> G_2            
     e( 24 - 24) =     -0.83874  eV     1   --> G_2            
     e( 25 - 25) =     -0.59549  eV     1   --> G_2            
     e( 26 - 26) =     -0.59047  eV     1   --> G_2            
     e( 27 - 27) =     -0.27600  eV     1   --> G_2            
     e( 28 - 28) =     -0.27261  eV     1   --> G_2            
     e( 29 - 29) =      0.45477  eV     1   --> G_2            
     e( 30 - 30) =      0.45793  eV     1   --> G_2            
     e( 31 - 31) =      0.97209  eV     1   --> G_2            
     e( 32 - 32) =      0.97441  eV     1   --> G_2            
     e( 33 - 33) =      1.17828  eV     1   --> G_2            
     e( 34 - 34) =      1.18308  eV     1   --> G_2            
     e( 35 - 35) =      1.60527  eV     1   --> G_2            
     e( 36 - 36) =      1.61062  eV     1   --> G_2            
     e( 37 - 37) =      2.33951  eV     1   --> G_2            
     e( 38 - 38) =      2.34100  eV     1   --> G_2            
     e( 39 - 39) =      2.37232  eV     1   --> G_2            
     e( 40 - 40) =      2.37522  eV     1   --> G_2            
     e( 41 - 42) =      4.32015  eV     2   -->   2 G_2            
     e( 43 - 44) =      4.50940  eV     2   -->   2 G_2            
     e( 45 - 46) =      5.06773  eV     2   -->   2 G_2            
     e( 47 - 48) =      5.71381  eV     2   -->   2 G_2            
     e( 49 - 49) =      5.78520  eV     1   --> G_2            
     e( 50 - 50) =      5.78544  eV     1   --> G_2            
     e( 51 - 51) =      5.90853  eV     1   --> G_2            
     e( 52 - 52) =      5.90875  eV     1   --> G_2            
     e( 53 - 54) =      6.59595  eV     2   -->   2 G_2            
     e( 55 - 55) =      6.79003  eV     1   --> G_2            
     e( 56 - 56) =      6.79031  eV     1   --> G_2            
     e( 57 - 57) =      6.91478  eV     1   --> G_2            
     e( 58 - 58) =      6.91512  eV     1   --> G_2            
     e( 59 - 59) =      7.18143  eV     1   --> G_2            
     e( 60 - 60) =      7.18220  eV     1   --> G_2            
     e( 61 - 61) =      7.20763  eV     1   --> G_2            
     e( 62 - 62) =      7.20801  eV     1   --> G_2            
     e( 63 - 63) =      7.89798  eV     1   --> G_2            
     e( 64 - 64) =      7.89877  eV     1   --> G_2            
     e( 65 - 65) =      7.92608  eV     1   --> G_2            
     e( 66 - 66) =      7.92725  eV     1   --> G_2            
     e( 67 - 67) =      8.18554  eV     1   --> G_2            
     e( 68 - 68) =      8.18577  eV     1   --> G_2            
     e( 69 - 70) =      8.34039  eV     2   -->   2 G_2            
     e( 71 - 71) =      8.76207  eV     1   --> G_2            
     e( 72 - 72) =      8.76220  eV     1   --> G_2            
     e( 73 - 73) =      9.26503  eV     1   --> G_2            
     e( 74 - 74) =      9.26995  eV     1   --> G_2            
     e( 75 - 75) =      9.30908  eV     1   --> G_2            
     e( 76 - 76) =      9.31517  eV     1   --> G_2            
     e( 77 - 77) =      9.55348  eV     1   --> G_2            
     e( 78 - 78) =      9.55380  eV     1   --> G_2            
     e( 79 - 79) =      9.94156  eV     1   --> G_2            
     e( 80 - 80) =      9.94406  eV     1   --> G_2            
     e( 81 - 81) =     10.08004  eV     1   --> G_2            
     e( 82 - 82) =     10.08220  eV     1   --> G_2            
     e( 83 - 83) =     10.93027  eV     1   --> G_2            
     e( 84 - 84) =     10.93038  eV     1   --> G_2            
     e( 85 - 86) =     11.01511  eV     2   -->   2 G_2            
     e( 87 - 87) =     11.98795  eV     1   --> G_2            
     e( 88 - 88) =     11.98911  eV     1   --> G_2            
     e( 89 - 89) =     12.05981  eV     1   --> G_2            
     e( 90 - 90) =     12.06056  eV     1   --> G_2            
     e( 91 - 91) =     12.45334  eV     1   --> G_2            
     e( 92 - 92) =     12.45429  eV     1   --> G_2            
     e( 93 - 93) =     12.62422  eV     1   --> G_2            
     e( 94 - 94) =     12.62451  eV     1   --> G_2            
     e( 95 - 95) =     12.73736  eV     1   --> G_2            
     e( 96 - 96) =     12.73756  eV     1   --> G_2            
     e( 97 - 97) =     13.32183  eV     1   --> G_2            
     e( 98 - 98) =     13.32198  eV     1   --> G_2            
     e( 99 - 99) =     13.86077  eV     1   --> G_2            
     e(100 -100) =     13.86094  eV     1   --> G_2            

 **************************************************************************

 **************************************************************************

                    xk=(   0.04286,   0.02473,   0.00000  )

     Band symmetry, C_1 (1)     double point group:

     e(  1 -  2) =    -12.55534  eV     2   -->   2 G_2            
     e(  3 -  4) =    -12.02473  eV     2   -->   2 G_2            
     e(  5 -  6) =    -10.92761  eV     2   -->   2 G_2            
     e(  7 -  8) =     -8.16623  eV     2   -->   2 G_2            
     e(  9 - 10) =     -6.73471  eV     2   -->   2 G_2            
     e( 11 - 11) =     -2.40923  eV     1   --> G_2            
     e( 12 - 12) =     -2.40886  eV     1   --> G_2            
     e( 13 - 13) =     -2.01084  eV     1   --> G_2            
     e( 14 - 14) =     -2.00957  eV     1   --> G_2            
     e( 15 - 15) =     -1.62241  eV     1   --> G_2            
     e( 16 - 16) =     -1.61823  eV     1   --> G_2            
     e( 17 - 17) =     -1.49961  eV     1   --> G_2            
     e( 18 - 18) =     -1.49032  eV     1   --> G_2            
     e( 19 - 19) =     -1.38195  eV     1   --> G_2            
     e( 20 - 20) =     -1.37563  eV     1   --> G_2            
     e( 21 - 21) =     -1.08935  eV     1   --> G_2            
     e( 22 - 22) =     -1.07628  eV     1   --> G_2            
     e( 23 - 23) =     -0.83006  eV     1   --> G_2            
     e( 24 - 24) =     -0.82336  eV     1   --> G_2            
     e( 25 - 25) =     -0.60490  eV     1   --> G_2            
     e( 26 - 26) =     -0.59935  eV     1   --> G_2            
     e( 27 - 27) =     -0.24018  eV     1   --> G_2            
     e( 28 - 28) =     -0.23673  eV     1   --> G_2            
     e( 29 - 29) =      0.48527  eV     1   --> G_2            
     e( 30 - 30) =      0.48859  eV     1   --> G_2            
     e( 31 - 31) =      0.98267  eV     1   --> G_2            
     e( 32 - 32) =      0.98431  eV     1   --> G_2            
     e( 33 - 33) =      1.16667  eV     1   --> G_2            
     e( 34 - 34) =      1.17088  eV     1   --> G_2            
     e( 35 - 35) =      1.62970  eV     1   --> G_2            
     e( 36 - 36) =      1.63509  eV     1   --> G_2            
     e( 37 - 37) =      2.33771  eV     1   --> G_2            
     e( 38 - 38) =      2.33992  eV     1   --> G_2            
     e( 39 - 39) =      2.39795  eV     1   --> G_2            
     e( 40 - 40) =      2.40082  eV     1   --> G_2            
     e( 41 - 42) =      4.32911  eV     2   -->   2 G_2            
     e( 43 - 44) =      4.51180  eV     2   -->   2 G_2            
     e( 45 - 46) =      5.07002  eV     2   -->   2 G_2            
     e( 47 - 47) =      5.70352  eV     1   --> G_2            
     e( 48 - 48) =      5.70363  eV     1   --> G_2            
     e( 49 - 49) =      5.75989  eV     1   --> G_2            
     e( 50 - 50) =      5.76012  eV     1   --> G_2            
     e( 51 - 51) =      5.91853  eV     1   --> G_2            
     e( 52 - 52) =      5.91871  eV     1   --> G_2            
     e( 53 - 54) =      6.62024  eV     2   -->   2 G_2            
     e( 55 - 55) =      6.77087  eV     1   --> G_2            
     e( 56 - 56) =      6.77116  eV     1   --> G_2            
     e( 57 - 57) =      6.90737  eV     1   --> G_2            
     e( 58 - 58) =      6.90769  eV     1   --> G_2            
     e( 59 - 59) =      7.17821  eV     1   --> G_2            
     e( 60 - 60) =      7.17879  eV     1   --> G_2            
     e( 61 - 61) =      7.21692  eV     1   --> G_2            
     e( 62 - 62) =      7.21719  eV     1   --> G_2            
     e( 63 - 63) =      7.91335  eV     1   --> G_2            
     e( 64 - 64) =      7.91409  eV     1   --> G_2            
     e( 65 - 65) =      7.94097  eV     1   --> G_2            
     e( 66 - 66) =      7.94204  eV     1   --> G_2            
     e( 67 - 67) =      8.20639  eV     1   --> G_2            
     e( 68 - 68) =      8.20660  eV     1   --> G_2            
     e( 69 - 69) =      8.37413  eV     1   --> G_2            
     e( 70 - 70) =      8.37424  eV     1   --> G_2            
     e( 71 - 71) =      8.79832  eV     1   --> G_2            
     e( 72 - 72) =      8.79849  eV     1   --> G_2            
     e( 73 - 73) =      9.22851  eV     1   --> G_2            
     e( 74 - 74) =      9.23259  eV     1   --> G_2            
     e( 75 - 75) =      9.27900  eV     1   --> G_2            
     e( 76 - 76) =      9.28403  eV     1   --> G_2            
     e( 77 - 77) =      9.54608  eV     1   --> G_2            
     e( 78 - 78) =      9.54634  eV     1   --> G_2            
     e( 79 - 79) =      9.98865  eV     1   --> G_2            
     e( 80 - 80) =      9.99109  eV     1   --> G_2            
     e( 81 - 81) =     10.13972  eV     1   --> G_2            
     e( 82 - 82) =     10.14175  eV     1   --> G_2            
     e( 83 - 83) =     10.93138  eV     1   --> G_2            
     e( 84 - 84) =     10.93151  eV     1   --> G_2            
     e( 85 - 86) =     11.03105  eV     2   -->   2 G_2            
     e( 87 - 87) =     11.92265  eV     1   --> G_2            
     e( 88 - 88) =     11.92381  eV     1   --> G_2            
     e( 89 - 89) =     12.01505  eV     1   --> G_2            
     e( 90 - 90) =     12.01574  eV     1   --> G_2            
     e( 91 - 91) =     12.45494  eV     1   --> G_2            
     e( 92 - 92) =     12.45561  eV     1   --> G_2            
     e( 93 - 93) =     12.66861  eV     1   --> G_2            
     e( 94 - 94) =     12.66906  eV     1   --> G_2            
     e( 95 - 95) =     12.79573  eV     1   --> G_2            
     e( 96 - 96) =     12.79602  eV     1   --> G_2            
     e( 97 - 97) =     13.30211  eV     1   --> G_2            
     e( 98 - 98) =     13.30226  eV     1   --> G_2            
     e( 99 - 99) =     13.82158  eV     1   --> G_2            
     e(100 -100) =     13.82182  eV     1   --> G_2            

 **************************************************************************

 **************************************************************************

                    xk=(   0.05000,   0.02886,   0.00000  )

     Band symmetry, C_1 (1)     double point group:

     e(  1 -  2) =    -12.54948  eV     2   -->   2 G_2            
     e(  3 -  4) =    -12.01934  eV     2   -->   2 G_2            
     e(  5 -  6) =    -10.92422  eV     2   -->   2 G_2            
     e(  7 -  8) =     -8.16664  eV     2   -->   2 G_2            
     e(  9 - 10) =     -6.74412  eV     2   -->   2 G_2            
     e( 11 - 11) =     -2.41821  eV     1   --> G_2            
     e( 12 - 12) =     -2.41777  eV     1   --> G_2            
     e( 13 - 13) =     -2.06011  eV     1   --> G_2            
     e( 14 - 14) =     -2.05893  eV     1   --> G_2            
     e( 15 - 15) =     -1.63983  eV     1   --> G_2            
     e( 16 - 16) =     -1.63571  eV     1   --> G_2            
     e( 17 - 17) =     -1.55046  eV     1   --> G_2            
     e( 18 - 18) =     -1.54199  eV     1   --> G_2            
     e( 19 - 19) =     -1.39889  eV     1   --> G_2            
     e( 20 - 20) =     -1.39244  eV     1   --> G_2            
     e( 21 - 21) =     -1.10073  eV     1   --> G_2            
     e( 22 - 22) =     -1.08834  eV     1   --> G_2            
     e( 23 - 23) =     -0.82304  eV     1   --> G_2            
     e( 24 - 24) =     -0.81624  eV     1   --> G_2            
     e( 25 - 25) =     -0.60136  eV     1   --> G_2            
     e( 26 - 26) =     -0.59587  eV     1   --> G_2            
     e( 27 - 27) =     -0.20386  eV     1   --> G_2            
     e( 28 - 28) =     -0.20052  eV     1   --> G_2            
     e( 29 - 29) =      0.51212  eV     1   --> G_2            
     e( 30 - 30) =      0.51541  eV     1   --> G_2            
     e( 31 - 31) =      0.99604  eV     1   --> G_2            
     e( 32 - 32) =      0.99679  eV     1   --> G_2            
     e( 33 - 33) =      1.16408  eV     1   --> G_2            
     e( 34 - 34) =      1.16727  eV     1   --> G_2            
     e( 35 - 35) =      1.65301  eV     1   --> G_2            
     e( 36 - 36) =      1.65831  eV     1   --> G_2            
     e( 37 - 37) =      2.33304  eV     1   --> G_2            
     e( 38 - 38) =      2.33579  eV     1   --> G_2            
     e( 39 - 39) =      2.43027  eV     1   --> G_2            
     e( 40 - 40) =      2.43313  eV     1   --> G_2            
     e( 41 - 42) =      4.33953  eV     2   -->   2 G_2            
     e( 43 - 44) =      4.51458  eV     2   -->   2 G_2            
     e( 45 - 46) =      5.07212  eV     2   -->   2 G_2            
     e( 47 - 47) =      5.68005  eV     1   --> G_2            
     e( 48 - 48) =      5.68022  eV     1   --> G_2            
     e( 49 - 49) =      5.74578  eV     1   --> G_2            
     e( 50 - 50) =      5.74600  eV     1   --> G_2            
     e( 51 - 51) =      5.93059  eV     1   --> G_2            
     e( 52 - 52) =      5.93072  eV     1   --> G_2            
     e( 53 - 54) =      6.64418  eV     2   -->   2 G_2            
     e( 55 - 55) =      6.74565  eV     1   --> G_2            
     e( 56 - 56) =      6.74595  eV     1   --> G_2            
     e( 57 - 57) =      6.90483  eV     1   --> G_2            
     e( 58 - 58) =      6.90513  eV     1   --> G_2            
     e( 59 - 59) =      7.17562  eV     1   --> G_2            
     e( 60 - 60) =      7.17604  eV     1   --> G_2            
     e( 61 - 61) =      7.23029  eV     1   --> G_2            
     e( 62 - 62) =      7.23049  eV     1   --> G_2            
     e( 63 - 63) =      7.91856  eV     1   --> G_2            
     e( 64 - 64) =      7.91894  eV     1   --> G_2            
     e( 65 - 65) =      7.95980  eV     1   --> G_2            
     e( 66 - 66) =      7.96037  eV     1   --> G_2            
     e( 67 - 67) =      8.23782  eV     1   --> G_2            
     e( 68 - 68) =      8.23801  eV     1   --> G_2            
     e( 69 - 69) =      8.41201  eV     1   --> G_2            
     e( 70 - 70) =      8.41215  eV     1   --> G_2            
     e( 71 - 71) =      8.84083  eV     1   --> G_2            
     e( 72 - 72) =      8.84104  eV     1   --> G_2            
     e( 73 - 73) =      9.18755  eV     1   --> G_2            
     e( 74 - 74) =      9.19040  eV     1   --> G_2            
     e( 75 - 75) =      9.25280  eV     1   --> G_2            
     e( 76 - 76) =      9.25644  eV     1   --> G_2            
     e( 77 - 77) =      9.54384  eV     1   --> G_2            
     e( 78 - 78) =      9.54420  eV     1   --> G_2            
     e( 79 - 79) =     10.03831  eV     1   --> G_2            
     e( 80 - 80) =     10.04068  eV     1   --> G_2            
     e( 81 - 81) =     10.19748  eV     1   --> G_2            
     e( 82 - 82) =     10.19941  eV     1   --> G_2            
     e( 83 - 83) =     10.93316  eV     1   --> G_2            
     e( 84 - 84) =     10.93330  eV     1   --> G_2            
     e( 85 - 86) =     11.04934  eV     2   -->   2 G_2            
     e( 87 - 87) =     11.85891  eV     1   --> G_2            
     e( 88 - 88) =     11.86002  eV     1   --> G_2            
     e( 89 - 89) =     11.97121  eV     1   --> G_2            
     e( 90 - 90) =     11.97184  eV     1   --> G_2            
     e( 91 - 91) =     12.46028  eV     1   --> G_2            
     e( 92 - 92) =     12.46080  eV     1   --> G_2            
     e( 93 - 93) =     12.71116  eV     1   --> G_2            
     e( 94 - 94) =     12.71177  eV     1   --> G_2            
     e( 95 - 95) =     12.85186  eV     1   --> G_2            
     e( 96 - 96) =     12.85228  eV     1   --> G_2            
     e( 97 - 97) =     13.25875  eV     1   --> G_2            
     e( 98 - 98) =     13.25892  eV     1   --> G_2            
     e( 99 - 99) =     13.80164  eV     1   --> G_2            
     e(100 -100) =     13.80192  eV     1   --> G_2            

 **************************************************************************

 **************************************************************************

                    xk=(   0.05714,   0.03298,   0.00000  )

     Band symmetry, C_1 (1)     double point group:

     e(  1 -  2) =    -12.54273  eV     2   -->   2 G_2            
     e(  3 -  4) =    -12.01313  eV     2   -->   2 G_2            
     e(  5 -  6) =    -10.92031  eV     2   -->   2 G_2            
     e(  7 -  8) =     -8.16716  eV     2   -->   2 G_2            
     e(  9 - 10) =     -6.75499  eV     2   -->   2 G_2            
     e( 11 - 11) =     -2.42925  eV     1   --> G_2            
     e( 12 - 12) =     -2.42874  eV     1   --> G_2            
     e( 13 - 13) =     -2.11266  eV     1   --> G_2            
     e( 14 - 14) =     -2.11159  eV     1   --> G_2            
     e( 15 - 15) =     -1.66568  eV     1   --> G_2            
     e( 16 - 16) =     -1.66171  eV     1   --> G_2            
     e( 17 - 17) =     -1.59632  eV     1   --> G_2            
     e( 18 - 18) =     -1.59002  eV     1   --> G_2            
     e( 19 - 19) =     -1.41672  eV     1   --> G_2            
     e( 20 - 20) =     -1.41031  eV     1   --> G_2            
     e( 21 - 21) =     -1.11902  eV     1   --> G_2            
     e( 22 - 22) =     -1.10761  eV     1   --> G_2            
     e( 23 - 23) =     -0.82249  eV     1   --> G_2            
     e( 24 - 24) =     -0.81607  eV     1   --> G_2            
     e( 25 - 25) =     -0.58483  eV     1   --> G_2            
     e( 26 - 26) =     -0.57986  eV     1   --> G_2            
     e( 27 - 27) =     -0.16950  eV     1   --> G_2            
     e( 28 - 28) =     -0.16638  eV     1   --> G_2            
     e( 29 - 29) =      0.53390  eV     1   --> G_2            
     e( 30 - 30) =      0.53697  eV     1   --> G_2            
     e( 31 - 31) =      1.01144  eV     1   --> G_2            
     e( 32 - 32) =      1.01358  eV     1   --> G_2            
     e( 33 - 33) =      1.17153  eV     1   --> G_2            
     e( 34 - 34) =      1.17380  eV     1   --> G_2            
     e( 35 - 35) =      1.67507  eV     1   --> G_2            
     e( 36 - 36) =      1.68016  eV     1   --> G_2            
     e( 37 - 37) =      2.32808  eV     1   --> G_2            
     e( 38 - 38) =      2.33125  eV     1   --> G_2            
     e( 39 - 39) =      2.46642  eV     1   --> G_2            
     e( 40 - 40) =      2.46926  eV     1   --> G_2            
     e( 41 - 42) =      4.35135  eV     2   -->   2 G_2            
     e( 43 - 43) =      4.51774  eV     1   --> G_2            
     e( 44 - 44) =      4.51784  eV     1   --> G_2            
     e( 45 - 46) =      5.07368  eV     2   -->   2 G_2            
     e( 47 - 47) =      5.64698  eV     1   --> G_2            
     e( 48 - 48) =      5.64716  eV     1   --> G_2            
     e( 49 - 49) =      5.74073  eV     1   --> G_2            
     e( 50 - 50) =      5.74095  eV     1   --> G_2            
     e( 51 - 52) =      5.94457  eV     2   -->   2 G_2            
     e( 53 - 54) =      6.66441  eV     2   -->   2 G_2            
     e( 55 - 55) =      6.71918  eV     1   --> G_2            
     e( 56 - 56) =      6.71954  eV     1   --> G_2            
     e( 57 - 57) =      6.90621  eV     1   --> G_2            
     e( 58 - 58) =      6.90650  eV     1   --> G_2            
     e( 59 - 59) =      7.17393  eV     1   --> G_2            
     e( 60 - 60) =      7.17421  eV     1   --> G_2            
     e( 61 - 61) =      7.24746  eV     1   --> G_2            
     e( 62 - 62) =      7.24763  eV     1   --> G_2            
     e( 63 - 63) =      7.91195  eV     1   --> G_2            
     e( 64 - 64) =      7.91218  eV     1   --> G_2            
     e( 65 - 65) =      7.98403  eV     1   --> G_2            
     e( 66 - 66) =      7.98425  eV     1   --> G_2            
     e( 67 - 67) =      8.27894  eV     1   --> G_2            
     e( 68 - 68) =      8.27913  eV     1   --> G_2            
     e( 69 - 69) =      8.45300  eV     1   --> G_2            
     e( 70 - 70) =      8.45316  eV     1   --> G_2            
     e( 71 - 71) =      8.88847  eV     1   --> G_2            
     e( 72 - 72) =      8.88870  eV     1   --> G_2            
     e( 73 - 73) =      9.14637  eV     1   --> G_2            
     e( 74 - 74) =      9.14824  eV     1   --> G_2            
     e( 75 - 75) =      9.22996  eV     1   --> G_2            
     e( 76 - 76) =      9.23249  eV     1   --> G_2            
     e( 77 - 77) =      9.54485  eV     1   --> G_2            
     e( 78 - 78) =      9.54527  eV     1   --> G_2            
     e( 79 - 79) =     10.08974  eV     1   --> G_2            
     e( 80 - 80) =     10.09204  eV     1   --> G_2            
     e( 81 - 81) =     10.25230  eV     1   --> G_2            
     e( 82 - 82) =     10.25413  eV     1   --> G_2            
     e( 83 - 83) =     10.93592  eV     1   --> G_2            
     e( 84 - 84) =     10.93605  eV     1   --> G_2            
     e( 85 - 86) =     11.06942  eV     2   -->   2 G_2            
     e( 87 - 87) =     11.79845  eV     1   --> G_2            
     e( 88 - 88) =     11.79949  eV     1   --> G_2            
     e( 89 - 89) =     11.92888  eV     1   --> G_2            
     e( 90 - 90) =     11.92945  eV     1   --> G_2            
     e( 91 - 91) =     12.47044  eV     1   --> G_2            
     e( 92 - 92) =     12.47087  eV     1   --> G_2            
     e( 93 - 93) =     12.75032  eV     1   --> G_2            
     e( 94 - 94) =     12.75114  eV     1   --> G_2            
     e( 95 - 95) =     12.89958  eV     1   --> G_2            
     e( 96 - 96) =     12.90021  eV     1   --> G_2            
     e( 97 - 97) =     13.20190  eV     1   --> G_2            
     e( 98 - 98) =     13.20207  eV     1   --> G_2            
     e( 99 - 99) =     13.79040  eV     1   --> G_2            
     e(100 -100) =     13.79076  eV     1   --> G_2            

 **************************************************************************

 **************************************************************************

                    xk=(   0.06429,   0.03710,   0.00000  )

     Band symmetry, C_1 (1)     double point group:

     e(  1 -  2) =    -12.53508  eV     2   -->   2 G_2            
     e(  3 -  4) =    -12.00609  eV     2   -->   2 G_2            
     e(  5 -  6) =    -10.91591  eV     2   -->   2 G_2            
     e(  7 -  8) =     -8.16779  eV     2   -->   2 G_2            
     e(  9 - 10) =     -6.76733  eV     2   -->   2 G_2            
     e( 11 - 11) =     -2.44283  eV     1   --> G_2            
     e( 12 - 12) =     -2.44224  eV     1   --> G_2            
     e( 13 - 13) =     -2.16754  eV     1   --> G_2            
     e( 14 - 14) =     -2.16659  eV     1   --> G_2            
     e( 15 - 15) =     -1.70318  eV     1   --> G_2            
     e( 16 - 16) =     -1.69765  eV     1   --> G_2            
     e( 17 - 17) =     -1.63425  eV     1   --> G_2            
     e( 18 - 18) =     -1.63068  eV     1   --> G_2            
     e( 19 - 19) =     -1.43585  eV     1   --> G_2            
     e( 20 - 20) =     -1.42968  eV     1   --> G_2            
     e( 21 - 21) =     -1.14386  eV     1   --> G_2            
     e( 22 - 22) =     -1.13373  eV     1   --> G_2            
     e( 23 - 23) =     -0.82465  eV     1   --> G_2            
     e( 24 - 24) =     -0.81884  eV     1   --> G_2            
     e( 25 - 25) =     -0.55890  eV     1   --> G_2            
     e( 26 - 26) =     -0.55451  eV     1   --> G_2            
     e( 27 - 27) =     -0.13965  eV     1   --> G_2            
     e( 28 - 28) =     -0.13681  eV     1   --> G_2            
     e( 29 - 29) =      0.55091  eV     1   --> G_2            
     e( 30 - 30) =      0.55362  eV     1   --> G_2            
     e( 31 - 31) =      1.02983  eV     1   --> G_2            
     e( 32 - 32) =      1.03392  eV     1   --> G_2            
     e( 33 - 33) =      1.18869  eV     1   --> G_2            
     e( 34 - 34) =      1.19112  eV     1   --> G_2            
     e( 35 - 35) =      1.69605  eV     1   --> G_2            
     e( 36 - 36) =      1.70084  eV     1   --> G_2            
     e( 37 - 37) =      2.32382  eV     1   --> G_2            
     e( 38 - 38) =      2.32735  eV     1   --> G_2            
     e( 39 - 39) =      2.50517  eV     1   --> G_2            
     e( 40 - 40) =      2.50795  eV     1   --> G_2            
     e( 41 - 42) =      4.36447  eV     2   -->   2 G_2            
     e( 43 - 43) =      4.52121  eV     1   --> G_2            
     e( 44 - 44) =      4.52134  eV     1   --> G_2            
     e( 45 - 46) =      5.07423  eV     2   -->   2 G_2            
     e( 47 - 47) =      5.61111  eV     1   --> G_2            
     e( 48 - 48) =      5.61131  eV     1   --> G_2            
     e( 49 - 49) =      5.73919  eV     1   --> G_2            
     e( 50 - 50) =      5.73940  eV     1   --> G_2            
     e( 51 - 52) =      5.96039  eV     2   -->   2 G_2            
     e( 53 - 53) =      6.66405  eV     1   --> G_2            
     e( 54 - 54) =      6.66416  eV     1   --> G_2            
     e( 55 - 55) =      6.71044  eV     1   --> G_2            
     e( 56 - 56) =      6.71082  eV     1   --> G_2            
     e( 57 - 57) =      6.90979  eV     1   --> G_2            
     e( 58 - 58) =      6.91008  eV     1   --> G_2            
     e( 59 - 59) =      7.17345  eV     1   --> G_2            
     e( 60 - 60) =      7.17363  eV     1   --> G_2            
     e( 61 - 61) =      7.26821  eV     1   --> G_2            
     e( 62 - 62) =      7.26836  eV     1   --> G_2            
     e( 63 - 63) =      7.89778  eV     1   --> G_2            
     e( 64 - 64) =      7.89800  eV     1   --> G_2            
     e( 65 - 66) =      8.01090  eV     2   -->   2 G_2            
     e( 67 - 67) =      8.32796  eV     1   --> G_2            
     e( 68 - 68) =      8.32816  eV     1   --> G_2            
     e( 69 - 69) =      8.49599  eV     1   --> G_2            
     e( 70 - 70) =      8.49616  eV     1   --> G_2            
     e( 71 - 71) =      8.93781  eV     1   --> G_2            
     e( 72 - 72) =      8.93804  eV     1   --> G_2            
     e( 73 - 73) =      9.11072  eV     1   --> G_2            
     e( 74 - 74) =      9.11172  eV     1   --> G_2            
     e( 75 - 75) =      9.21052  eV     1   --> G_2            
     e( 76 - 76) =      9.21220  eV     1   --> G_2            
     e( 77 - 77) =      9.54771  eV     1   --> G_2            
     e( 78 - 78) =      9.54816  eV     1   --> G_2            
     e( 79 - 79) =     10.14226  eV     1   --> G_2            
     e( 80 - 80) =     10.14450  eV     1   --> G_2            
     e( 81 - 81) =     10.30329  eV     1   --> G_2            
     e( 82 - 82) =     10.30504  eV     1   --> G_2            
     e( 83 - 83) =     10.94005  eV     1   --> G_2            
     e( 84 - 84) =     10.94018  eV     1   --> G_2            
     e( 85 - 86) =     11.09034  eV     2   -->   2 G_2            
     e( 87 - 87) =     11.74320  eV     1   --> G_2            
     e( 88 - 88) =     11.74416  eV     1   --> G_2            
     e( 89 - 89) =     11.88861  eV     1   --> G_2            
     e( 90 - 90) =     11.88911  eV     1   --> G_2            
     e( 91 - 91) =     12.48588  eV     1   --> G_2            
     e( 92 - 92) =     12.48627  eV     1   --> G_2            
     e( 93 - 93) =     12.78440  eV     1   --> G_2            
     e( 94 - 94) =     12.78559  eV     1   --> G_2            
     e( 95 - 95) =     12.92170  eV     1   --> G_2            
     e( 96 - 96) =     12.92278  eV     1   --> G_2            
     e( 97 - 97) =     13.15635  eV     1   --> G_2            
     e( 98 - 98) =     13.15645  eV     1   --> G_2            
     e( 99 - 99) =     13.77470  eV     1   --> G_2            
     e(100 -100) =     13.77512  eV     1   --> G_2            

 **************************************************************************

 **************************************************************************

                    xk=(   0.07143,   0.04122,   0.00000  )

     Band symmetry, C_1 (1)     double point group:

     e(  1 -  2) =    -12.52653  eV     2   -->   2 G_2            
     e(  3 -  4) =    -11.99824  eV     2   -->   2 G_2            
     e(  5 -  6) =    -10.91101  eV     2   -->   2 G_2            
     e(  7 -  8) =     -8.16855  eV     2   -->   2 G_2            
     e(  9 - 10) =     -6.78112  eV     2   -->   2 G_2            
     e( 11 - 11) =     -2.45972  eV     1   --> G_2            
     e( 12 - 12) =     -2.45905  eV     1   --> G_2            
     e( 13 - 13) =     -2.22357  eV     1   --> G_2            
     e( 14 - 14) =     -2.22273  eV     1   --> G_2            
     e( 15 - 15) =     -1.74995  eV     1   --> G_2            
     e( 16 - 16) =     -1.74240  eV     1   --> G_2            
     e( 17 - 17) =     -1.66653  eV     1   --> G_2            
     e( 18 - 18) =     -1.66329  eV     1   --> G_2            
     e( 19 - 19) =     -1.45679  eV     1   --> G_2            
     e( 20 - 20) =     -1.45101  eV     1   --> G_2            
     e( 21 - 21) =     -1.17404  eV     1   --> G_2            
     e( 22 - 22) =     -1.16541  eV     1   --> G_2            
     e( 23 - 23) =     -0.82647  eV     1   --> G_2            
     e( 24 - 24) =     -0.82131  eV     1   --> G_2            
     e( 25 - 25) =     -0.52739  eV     1   --> G_2            
     e( 26 - 26) =     -0.52341  eV     1   --> G_2            
     e( 27 - 27) =     -0.11675  eV     1   --> G_2            
     e( 28 - 28) =     -0.11419  eV     1   --> G_2            
     e( 29 - 29) =      0.56515  eV     1   --> G_2            
     e( 30 - 30) =      0.56739  eV     1   --> G_2            
     e( 31 - 31) =      1.05124  eV     1   --> G_2            
     e( 32 - 32) =      1.05686  eV     1   --> G_2            
     e( 33 - 33) =      1.21480  eV     1   --> G_2            
     e( 34 - 34) =      1.21805  eV     1   --> G_2            
     e( 35 - 35) =      1.71640  eV     1   --> G_2            
     e( 36 - 36) =      1.72079  eV     1   --> G_2            
     e( 37 - 37) =      2.32095  eV     1   --> G_2            
     e( 38 - 38) =      2.32477  eV     1   --> G_2            
     e( 39 - 39) =      2.54561  eV     1   --> G_2            
     e( 40 - 40) =      2.54831  eV     1   --> G_2            
     e( 41 - 41) =      4.37880  eV     1   --> G_2            
     e( 42 - 42) =      4.37891  eV     1   --> G_2            
     e( 43 - 43) =      4.52496  eV     1   --> G_2            
     e( 44 - 44) =      4.52510  eV     1   --> G_2            
     e( 45 - 46) =      5.07321  eV     2   -->   2 G_2            
     e( 47 - 47) =      5.57595  eV     1   --> G_2            
     e( 48 - 48) =      5.57614  eV     1   --> G_2            
     e( 49 - 49) =      5.73894  eV     1   --> G_2            
     e( 50 - 50) =      5.73913  eV     1   --> G_2            
     e( 51 - 52) =      5.97799  eV     2   -->   2 G_2            
     e( 53 - 53) =      6.63783  eV     1   --> G_2            
     e( 54 - 54) =      6.63793  eV     1   --> G_2            
     e( 55 - 55) =      6.72657  eV     1   --> G_2            
     e( 56 - 56) =      6.72687  eV     1   --> G_2            
     e( 57 - 57) =      6.91391  eV     1   --> G_2            
     e( 58 - 58) =      6.91419  eV     1   --> G_2            
     e( 59 - 59) =      7.17447  eV     1   --> G_2            
     e( 60 - 60) =      7.17459  eV     1   --> G_2            
     e( 61 - 61) =      7.29245  eV     1   --> G_2            
     e( 62 - 62) =      7.29259  eV     1   --> G_2            
     e( 63 - 63) =      7.87925  eV     1   --> G_2            
     e( 64 - 64) =      7.87944  eV     1   --> G_2            
     e( 65 - 66) =      8.03887  eV     2   -->   2 G_2            
     e( 67 - 67) =      8.38312  eV     1   --> G_2            
     e( 68 - 68) =      8.38334  eV     1   --> G_2            
     e( 69 - 69) =      8.53983  eV     1   --> G_2            
     e( 70 - 70) =      8.54004  eV     1   --> G_2            
     e( 71 - 71) =      8.97633  eV     1   --> G_2            
     e( 72 - 72) =      8.97673  eV     1   --> G_2            
     e( 73 - 73) =      9.09431  eV     1   --> G_2            
     e( 74 - 74) =      9.09456  eV     1   --> G_2            
     e( 75 - 75) =      9.19511  eV     1   --> G_2            
     e( 76 - 76) =      9.19597  eV     1   --> G_2            
     e( 77 - 77) =      9.55154  eV     1   --> G_2            
     e( 78 - 78) =      9.55198  eV     1   --> G_2            
     e( 79 - 79) =     10.19522  eV     1   --> G_2            
     e( 80 - 80) =     10.19741  eV     1   --> G_2            
     e( 81 - 81) =     10.34964  eV     1   --> G_2            
     e( 82 - 82) =     10.35132  eV     1   --> G_2            
     e( 83 - 83) =     10.94602  eV     1   --> G_2            
     e( 84 - 84) =     10.94612  eV     1   --> G_2            
     e( 85 - 86) =     11.11071  eV     2   -->   2 G_2            
     e( 87 - 87) =     11.69542  eV     1   --> G_2            
     e( 88 - 88) =     11.69628  eV     1   --> G_2            
     e( 89 - 89) =     11.85091  eV     1   --> G_2            
     e( 90 - 90) =     11.85133  eV     1   --> G_2            
     e( 91 - 91) =     12.50650  eV     1   --> G_2            
     e( 92 - 92) =     12.50687  eV     1   --> G_2            
     e( 93 - 93) =     12.81033  eV     1   --> G_2            
     e( 94 - 94) =     12.81260  eV     1   --> G_2            
     e( 95 - 95) =     12.89245  eV     1   --> G_2            
     e( 96 - 96) =     12.89475  eV     1   --> G_2            
     e( 97 - 97) =     13.15526  eV     1   --> G_2            
     e( 98 - 98) =     13.15542  eV     1   --> G_2            
     e( 99 - 99) =     13.74681  eV     1   --> G_2            
     e(100 -100) =     13.74719  eV     1   --> G_2            

 **************************************************************************

 **************************************************************************

                    xk=(   0.07857,   0.04535,   0.00000  )

     Band symmetry, C_1 (1)     double point group:

     e(  1 -  2) =    -12.51710  eV     2   -->   2 G_2            
     e(  3 -  4) =    -11.98958  eV     2   -->   2 G_2            
     e(  5 -  6) =    -10.90563  eV     2   -->   2 G_2            
     e(  7 -  8) =     -8.16948  eV     2   -->   2 G_2            
     e(  9 - 10) =     -6.79639  eV     2   -->   2 G_2            
     e( 11 - 11) =     -2.48120  eV     1   --> G_2            
     e( 12 - 12) =     -2.48043  eV     1   --> G_2            
     e( 13 - 13) =     -2.27913  eV     1   --> G_2            
     e( 14 - 14) =     -2.27832  eV     1   --> G_2            
     e( 15 - 15) =     -1.80085  eV     1   --> G_2            
     e( 16 - 16) =     -1.79220  eV     1   --> G_2            
     e( 17 - 17) =     -1.69613  eV     1   --> G_2            
     e( 18 - 18) =     -1.69225  eV     1   --> G_2            
     e( 19 - 19) =     -1.48010  eV     1   --> G_2            
     e( 20 - 20) =     -1.47482  eV     1   --> G_2            
     e( 21 - 21) =     -1.20769  eV     1   --> G_2            
     e( 22 - 22) =     -1.20069  eV     1   --> G_2            
     e( 23 - 23) =     -0.82669  eV     1   --> G_2            
     e( 24 - 24) =     -0.82218  eV     1   --> G_2            
     e( 25 - 25) =     -0.49293  eV     1   --> G_2            
     e( 26 - 26) =     -0.48919  eV     1   --> G_2            
     e( 27 - 27) =     -0.10294  eV     1   --> G_2            
     e( 28 - 28) =     -0.10057  eV     1   --> G_2            
     e( 29 - 29) =      0.57948  eV     1   --> G_2            
     e( 30 - 30) =      0.58118  eV     1   --> G_2            
     e( 31 - 31) =      1.07521  eV     1   --> G_2            
     e( 32 - 32) =      1.08162  eV     1   --> G_2            
     e( 33 - 33) =      1.24830  eV     1   --> G_2            
     e( 34 - 34) =      1.25217  eV     1   --> G_2            
     e( 35 - 35) =      1.73679  eV     1   --> G_2            
     e( 36 - 36) =      1.74069  eV     1   --> G_2            
     e( 37 - 37) =      2.32012  eV     1   --> G_2            
     e( 38 - 38) =      2.32413  eV     1   --> G_2            
     e( 39 - 39) =      2.58698  eV     1   --> G_2            
     e( 40 - 40) =      2.58956  eV     1   --> G_2            
     e( 41 - 41) =      4.39421  eV     1   --> G_2            
     e( 42 - 42) =      4.39432  eV     1   --> G_2            
     e( 43 - 43) =      4.52891  eV     1   --> G_2            
     e( 44 - 44) =      4.52906  eV     1   --> G_2            
     e( 45 - 46) =      5.06996  eV     2   -->   2 G_2            
     e( 47 - 47) =      5.54349  eV     1   --> G_2            
     e( 48 - 48) =      5.54367  eV     1   --> G_2            
     e( 49 - 49) =      5.73926  eV     1   --> G_2            
     e( 50 - 50) =      5.73944  eV     1   --> G_2            
     e( 51 - 52) =      5.99730  eV     2   -->   2 G_2            
     e( 53 - 53) =      6.60755  eV     1   --> G_2            
     e( 54 - 54) =      6.60768  eV     1   --> G_2            
     e( 55 - 55) =      6.74709  eV     1   --> G_2            
     e( 56 - 56) =      6.74736  eV     1   --> G_2            
     e( 57 - 57) =      6.91712  eV     1   --> G_2            
     e( 58 - 58) =      6.91738  eV     1   --> G_2            
     e( 59 - 60) =      7.17727  eV     2   -->   2 G_2            
     e( 61 - 61) =      7.32016  eV     1   --> G_2            
     e( 62 - 62) =      7.32030  eV     1   --> G_2            
     e( 63 - 63) =      7.85849  eV     1   --> G_2            
     e( 64 - 64) =      7.85864  eV     1   --> G_2            
     e( 65 - 66) =      8.06706  eV     2   -->   2 G_2            
     e( 67 - 67) =      8.44283  eV     1   --> G_2            
     e( 68 - 68) =      8.44306  eV     1   --> G_2            
     e( 69 - 69) =      8.58332  eV     1   --> G_2            
     e( 70 - 70) =      8.58355  eV     1   --> G_2            
     e( 71 - 71) =      8.98048  eV     1   --> G_2            
     e( 72 - 72) =      8.98121  eV     1   --> G_2            
     e( 73 - 73) =      9.11992  eV     1   --> G_2            
     e( 74 - 74) =      9.12188  eV     1   --> G_2            
     e( 75 - 75) =      9.18478  eV     1   --> G_2            
     e( 76 - 76) =      9.18530  eV     1   --> G_2            
     e( 77 - 77) =      9.55581  eV     1   --> G_2            
     e( 78 - 78) =      9.55623  eV     1   --> G_2            
     e( 79 - 79) =     10.24800  eV     1   --> G_2            
     e( 80 - 80) =     10.25015  eV     1   --> G_2            
     e( 81 - 81) =     10.39061  eV     1   --> G_2            
     e( 82 - 82) =     10.39225  eV     1   --> G_2            
     e( 83 - 84) =     10.95420  eV     2   -->   2 G_2            
     e( 85 - 86) =     11.12872  eV     2   -->   2 G_2            
     e( 87 - 87) =     11.65773  eV     1   --> G_2            
     e( 88 - 88) =     11.65846  eV     1   --> G_2            
     e( 89 - 89) =     11.81640  eV     1   --> G_2            
     e( 90 - 90) =     11.81671  eV     1   --> G_2            
     e( 91 - 91) =     12.53102  eV     1   --> G_2            
     e( 92 - 92) =     12.53144  eV     1   --> G_2            
     e( 93 - 93) =     12.80132  eV     1   --> G_2            
     e( 94 - 94) =     12.80506  eV     1   --> G_2            
     e( 95 - 95) =     12.84813  eV     1   --> G_2            
     e( 96 - 96) =     12.85195  eV     1   --> G_2            
     e( 97 - 97) =     13.19334  eV     1   --> G_2            
     e( 98 - 98) =     13.19356  eV     1   --> G_2            
     e( 99 - 99) =     13.70375  eV     1   --> G_2            
     e(100 -100) =     13.70401  eV     1   --> G_2            

 **************************************************************************

 **************************************************************************

                    xk=(   0.08571,   0.04947,   0.00000  )

     Band symmetry, C_1 (1)     double point group:

     e(  1 -  2) =    -12.50678  eV     2   -->   2 G_2            
     e(  3 -  4) =    -11.98011  eV     2   -->   2 G_2            
     e(  5 -  6) =    -10.89976  eV     2   -->   2 G_2            
     e(  7 -  8) =     -8.17058  eV     2   -->   2 G_2            
     e(  9 - 10) =     -6.81311  eV     2   -->   2 G_2            
     e( 11 - 11) =     -2.50923  eV     1   --> G_2            
     e( 12 - 12) =     -2.50836  eV     1   --> G_2            
     e( 13 - 13) =     -2.33186  eV     1   --> G_2            
     e( 14 - 14) =     -2.33093  eV     1   --> G_2            
     e( 15 - 15) =     -1.85332  eV     1   --> G_2            
     e( 16 - 16) =     -1.84418  eV     1   --> G_2            
     e( 17 - 17) =     -1.72458  eV     1   --> G_2            
     e( 18 - 18) =     -1.72033  eV     1   --> G_2            
     e( 19 - 19) =     -1.50626  eV     1   --> G_2            
     e( 20 - 20) =     -1.50151  eV     1   --> G_2            
     e( 21 - 21) =     -1.24280  eV     1   --> G_2            
     e( 22 - 22) =     -1.23748  eV     1   --> G_2            
     e( 23 - 23) =     -0.82528  eV     1   --> G_2            
     e( 24 - 24) =     -0.82142  eV     1   --> G_2            
     e( 25 - 25) =     -0.45717  eV     1   --> G_2            
     e( 26 - 26) =     -0.45357  eV     1   --> G_2            
     e( 27 - 27) =     -0.09957  eV     1   --> G_2            
     e( 28 - 28) =     -0.09719  eV     1   --> G_2            
     e( 29 - 29) =      0.59650  eV     1   --> G_2            
     e( 30 - 30) =      0.59762  eV     1   --> G_2            
     e( 31 - 31) =      1.10129  eV     1   --> G_2            
     e( 32 - 32) =      1.10784  eV     1   --> G_2            
     e( 33 - 33) =      1.28653  eV     1   --> G_2            
     e( 34 - 34) =      1.29072  eV     1   --> G_2            
     e( 35 - 35) =      1.75814  eV     1   --> G_2            
     e( 36 - 36) =      1.76147  eV     1   --> G_2            
     e( 37 - 37) =      2.32191  eV     1   --> G_2            
     e( 38 - 38) =      2.32601  eV     1   --> G_2            
     e( 39 - 39) =      2.62858  eV     1   --> G_2            
     e( 40 - 40) =      2.63102  eV     1   --> G_2            
     e( 41 - 41) =      4.41055  eV     1   --> G_2            
     e( 42 - 42) =      4.41067  eV     1   --> G_2            
     e( 43 - 43) =      4.53296  eV     1   --> G_2            
     e( 44 - 44) =      4.53313  eV     1   --> G_2            
     e( 45 - 45) =      5.06386  eV     1   --> G_2            
     e( 46 - 46) =      5.06398  eV     1   --> G_2            
     e( 47 - 47) =      5.51523  eV     1   --> G_2            
     e( 48 - 48) =      5.51539  eV     1   --> G_2            
     e( 49 - 49) =      5.73991  eV     1   --> G_2            
     e( 50 - 50) =      5.74007  eV     1   --> G_2            
     e( 51 - 52) =      6.01829  eV     2   -->   2 G_2            
     e( 53 - 53) =      6.57863  eV     1   --> G_2            
     e( 54 - 54) =      6.57877  eV     1   --> G_2            
     e( 55 - 55) =      6.76777  eV     1   --> G_2            
     e( 56 - 56) =      6.76802  eV     1   --> G_2            
     e( 57 - 57) =      6.91821  eV     1   --> G_2            
     e( 58 - 58) =      6.91845  eV     1   --> G_2            
     e( 59 - 60) =      7.18210  eV     2   -->   2 G_2            
     e( 61 - 61) =      7.35129  eV     1   --> G_2            
     e( 62 - 62) =      7.35142  eV     1   --> G_2            
     e( 63 - 63) =      7.83707  eV     1   --> G_2            
     e( 64 - 64) =      7.83720  eV     1   --> G_2            
     e( 65 - 66) =      8.09476  eV     2   -->   2 G_2            
     e( 67 - 67) =      8.50540  eV     1   --> G_2            
     e( 68 - 68) =      8.50565  eV     1   --> G_2            
     e( 69 - 69) =      8.62485  eV     1   --> G_2            
     e( 70 - 70) =      8.62513  eV     1   --> G_2            
     e( 71 - 71) =      8.96465  eV     1   --> G_2            
     e( 72 - 72) =      8.96525  eV     1   --> G_2            
     e( 73 - 73) =      9.16206  eV     1   --> G_2            
     e( 74 - 74) =      9.16762  eV     1   --> G_2            
     e( 75 - 75) =      9.19160  eV     1   --> G_2            
     e( 76 - 76) =      9.19582  eV     1   --> G_2            
     e( 77 - 77) =      9.56038  eV     1   --> G_2            
     e( 78 - 78) =      9.56076  eV     1   --> G_2            
     e( 79 - 79) =     10.29994  eV     1   --> G_2            
     e( 80 - 80) =     10.30206  eV     1   --> G_2            
     e( 81 - 81) =     10.42560  eV     1   --> G_2            
     e( 82 - 82) =     10.42722  eV     1   --> G_2            
     e( 83 - 84) =     10.96469  eV     2   -->   2 G_2            
     e( 85 - 86) =     11.14260  eV     2   -->   2 G_2            
     e( 87 - 87) =     11.63279  eV     1   --> G_2            
     e( 88 - 88) =     11.63333  eV     1   --> G_2            
     e( 89 - 89) =     11.78578  eV     1   --> G_2            
     e( 90 - 90) =     11.78596  eV     1   --> G_2            
     e( 91 - 91) =     12.55377  eV     1   --> G_2            
     e( 92 - 92) =     12.55435  eV     1   --> G_2            
     e( 93 - 93) =     12.72621  eV     1   --> G_2            
     e( 94 - 94) =     12.72715  eV     1   --> G_2            
     e( 95 - 95) =     12.85492  eV     1   --> G_2            
     e( 96 - 96) =     12.85609  eV     1   --> G_2            
     e( 97 - 97) =     13.24681  eV     1   --> G_2            
     e( 98 - 98) =     13.24705  eV     1   --> G_2            
     e( 99 - 99) =     13.64527  eV     1   --> G_2            
     e(100 -100) =     13.64545  eV     1   --> G_2            

 **************************************************************************

 **************************************************************************

                    xk=(   0.09286,   0.05359,   0.00000  )

     Band symmetry, C_1 (1)     double point group:

     e(  1 -  2) =    -12.49557  eV     2   -->   2 G_2            
     e(  3 -  4) =    -11.96983  eV     2   -->   2 G_2            
     e(  5 -  6) =    -10.89343  eV     2   -->   2 G_2            
     e(  7 -  8) =     -8.17189  eV     2   -->   2 G_2            
     e(  9 - 10) =     -6.83130  eV     2   -->   2 G_2            
     e( 11 - 11) =     -2.54619  eV     1   --> G_2            
     e( 12 - 12) =     -2.54521  eV     1   --> G_2            
     e( 13 - 13) =     -2.37900  eV     1   --> G_2            
     e( 14 - 14) =     -2.37781  eV     1   --> G_2            
     e( 15 - 15) =     -1.90647  eV     1   --> G_2            
     e( 16 - 16) =     -1.89712  eV     1   --> G_2            
     e( 17 - 17) =     -1.75257  eV     1   --> G_2            
     e( 18 - 18) =     -1.74822  eV     1   --> G_2            
     e( 19 - 19) =     -1.53557  eV     1   --> G_2            
     e( 20 - 20) =     -1.53131  eV     1   --> G_2            
     e( 21 - 21) =     -1.27767  eV     1   --> G_2            
     e( 22 - 22) =     -1.27392  eV     1   --> G_2            
     e( 23 - 23) =     -0.82273  eV     1   --> G_2            
     e( 24 - 24) =     -0.81947  eV     1   --> G_2            
     e( 25 - 25) =     -0.42127  eV     1   --> G_2            
     e( 26 - 26) =     -0.41776  eV     1   --> G_2            
     e( 27 - 27) =     -0.10684  eV     1   --> G_2            
     e( 28 - 28) =     -0.10425  eV     1   --> G_2            
     e( 29 - 29) =      0.61768  eV     1   --> G_2            
     e( 30 - 30) =      0.61824  eV     1   --> G_2            
     e( 31 - 31) =      1.12929  eV     1   --> G_2            
     e( 32 - 32) =      1.13551  eV     1   --> G_2            
     e( 33 - 33) =      1.32637  eV     1   --> G_2            
     e( 34 - 34) =      1.33078  eV     1   --> G_2            
     e( 35 - 35) =      1.78158  eV     1   --> G_2            
[...]
     e( 21 - 21) =     -1.08941  eV     1   --> G_2            
     e( 22 - 22) =     -1.07734  eV     1   --> G_2            
     e( 23 - 23) =     -0.87436  eV     1   --> G_2            
     e( 24 - 24) =     -0.87039  eV     1   --> G_2            
     e( 25 - 25) =     -0.56675  eV     1   --> G_2            
     e( 26 - 26) =     -0.56363  eV     1   --> G_2            
     e( 27 - 27) =     -0.32447  eV     1   --> G_2            
     e( 28 - 28) =     -0.32199  eV     1   --> G_2            
     e( 29 - 29) =      0.40731  eV     1   --> G_2            
     e( 30 - 30) =      0.40988  eV     1   --> G_2            
     e( 31 - 31) =      0.96024  eV     1   --> G_2            
     e( 32 - 32) =      0.96255  eV     1   --> G_2            
     e( 33 - 33) =      1.20814  eV     1   --> G_2            
     e( 34 - 34) =      1.21247  eV     1   --> G_2            
     e( 35 - 35) =      1.56756  eV     1   --> G_2            
     e( 36 - 36) =      1.57213  eV     1   --> G_2            
     e( 37 - 37) =      2.32211  eV     1   --> G_2            
     e( 38 - 38) =      2.32337  eV     1   --> G_2            
     e( 39 - 39) =      2.36112  eV     1   --> G_2            
     e( 40 - 40) =      2.36270  eV     1   --> G_2            
     e( 41 - 42) =      4.30941  eV     2   -->   2 G_2            
     e( 43 - 44) =      4.50654  eV     2   -->   2 G_2            
     e( 45 - 46) =      5.06446  eV     2   -->   2 G_2            
     e( 47 - 47) =      5.71810  eV     1   --> G_2            
     e( 48 - 48) =      5.71822  eV     1   --> G_2            
     e( 49 - 49) =      5.82573  eV     1   --> G_2            
     e( 50 - 50) =      5.82599  eV     1   --> G_2            
     e( 51 - 51) =      5.90021  eV     1   --> G_2            
     e( 52 - 52) =      5.90046  eV     1   --> G_2            
     e( 53 - 54) =      6.56131  eV     2   -->   2 G_2            
     e( 55 - 55) =      6.80700  eV     1   --> G_2            
     e( 56 - 56) =      6.80715  eV     1   --> G_2            
     e( 57 - 57) =      6.93111  eV     1   --> G_2            
     e( 58 - 58) =      6.93140  eV     1   --> G_2            
     e( 59 - 59) =      7.18806  eV     1   --> G_2            
     e( 60 - 60) =      7.18880  eV     1   --> G_2            
     e( 61 - 61) =      7.20137  eV     1   --> G_2            
     e( 62 - 62) =      7.20187  eV     1   --> G_2            
     e( 63 - 63) =      7.87168  eV     1   --> G_2            
     e( 64 - 64) =      7.87229  eV     1   --> G_2            
     e( 65 - 65) =      7.89953  eV     1   --> G_2            
     e( 66 - 66) =      7.90036  eV     1   --> G_2            
     e( 67 - 67) =      8.17085  eV     1   --> G_2            
     e( 68 - 68) =      8.17099  eV     1   --> G_2            
     e( 69 - 70) =      8.29832  eV     2   -->   2 G_2            
     e( 71 - 72) =      8.71936  eV     2   -->   2 G_2            
     e( 73 - 73) =      9.30482  eV     1   --> G_2            
     e( 74 - 74) =      9.30773  eV     1   --> G_2            
     e( 75 - 75) =      9.36346  eV     1   --> G_2            
     e( 76 - 76) =      9.36765  eV     1   --> G_2            
     e( 77 - 77) =      9.57942  eV     1   --> G_2            
     e( 78 - 78) =      9.58043  eV     1   --> G_2            
     e( 79 - 79) =      9.87791  eV     1   --> G_2            
     e( 80 - 80) =      9.88026  eV     1   --> G_2            
     e( 81 - 81) =      9.98665  eV     1   --> G_2            
     e( 82 - 82) =      9.98886  eV     1   --> G_2            
     e( 83 - 84) =     10.92936  eV     2   -->   2 G_2            
     e( 85 - 86) =     10.99585  eV     2   -->   2 G_2            
     e( 87 - 87) =     12.09897  eV     1   --> G_2            
     e( 88 - 88) =     12.10206  eV     1   --> G_2            
     e( 89 - 89) =     12.11109  eV     1   --> G_2            
     e( 90 - 90) =     12.11426  eV     1   --> G_2            
     e( 91 - 91) =     12.47880  eV     1   --> G_2            
     e( 92 - 92) =     12.48172  eV     1   --> G_2            
     e( 93 - 93) =     12.52550  eV     1   --> G_2            
     e( 94 - 94) =     12.52736  eV     1   --> G_2            
     e( 95 - 95) =     12.65811  eV     1   --> G_2            
     e( 96 - 96) =     12.65833  eV     1   --> G_2            
     e( 97 - 97) =     13.31293  eV     1   --> G_2            
     e( 98 - 98) =     13.31304  eV     1   --> G_2            
     e( 99 - 99) =     13.97611  eV     1   --> G_2            
     e(100 -100) =     13.97740  eV     1   --> G_2            

 **************************************************************************

 **************************************************************************

                    xk=(   0.00952,   0.01649,   0.00000  )

     Band symmetry, C_1 (1)     double point group:

     e(  1 -  2) =    -12.56916  eV     2   -->   2 G_2            
     e(  3 -  4) =    -12.03747  eV     2   -->   2 G_2            
     e(  5 -  6) =    -10.93566  eV     2   -->   2 G_2            
     e(  7 -  8) =     -8.16538  eV     2   -->   2 G_2            
     e(  9 - 10) =     -6.71253  eV     2   -->   2 G_2            
     e( 11 - 11) =     -2.38980  eV     1   --> G_2            
     e( 12 - 12) =     -2.38968  eV     1   --> G_2            
     e( 13 - 13) =     -1.87276  eV     1   --> G_2            
     e( 14 - 14) =     -1.87168  eV     1   --> G_2            
     e( 15 - 15) =     -1.60282  eV     1   --> G_2            
     e( 16 - 16) =     -1.60101  eV     1   --> G_2            
     e( 17 - 17) =     -1.33948  eV     1   --> G_2            
     e( 18 - 18) =     -1.33723  eV     1   --> G_2            
     e( 19 - 19) =     -1.30228  eV     1   --> G_2            
     e( 20 - 20) =     -1.29331  eV     1   --> G_2            
     e( 21 - 21) =     -1.10114  eV     1   --> G_2            
     e( 22 - 22) =     -1.08999  eV     1   --> G_2            
     e( 23 - 23) =     -0.89784  eV     1   --> G_2            
     e( 24 - 24) =     -0.89481  eV     1   --> G_2            
     e( 25 - 25) =     -0.54377  eV     1   --> G_2            
     e( 26 - 26) =     -0.54159  eV     1   --> G_2            
     e( 27 - 27) =     -0.35181  eV     1   --> G_2            
     e( 28 - 28) =     -0.34991  eV     1   --> G_2            
     e( 29 - 29) =      0.37664  eV     1   --> G_2            
     e( 30 - 30) =      0.37844  eV     1   --> G_2            
     e( 31 - 31) =      0.95494  eV     1   --> G_2            
     e( 32 - 32) =      0.95653  eV     1   --> G_2            
     e( 33 - 33) =      1.23369  eV     1   --> G_2            
     e( 34 - 34) =      1.23727  eV     1   --> G_2            
     e( 35 - 35) =      1.54105  eV     1   --> G_2            
     e( 36 - 36) =      1.54478  eV     1   --> G_2            
     e( 37 - 37) =      2.30491  eV     1   --> G_2            
     e( 38 - 38) =      2.30584  eV     1   --> G_2            
     e( 39 - 39) =      2.36356  eV     1   --> G_2            
     e( 40 - 40) =      2.36460  eV     1   --> G_2            
     e( 41 - 42) =      4.30383  eV     2   -->   2 G_2            
     e( 43 - 44) =      4.50506  eV     2   -->   2 G_2            
     e( 45 - 46) =      5.06259  eV     2   -->   2 G_2            
     e( 47 - 48) =      5.71855  eV     2   -->   2 G_2            
     e( 49 - 49) =      5.85098  eV     1   --> G_2            
     e( 50 - 50) =      5.85127  eV     1   --> G_2            
     e( 51 - 51) =      5.89625  eV     1   --> G_2            
     e( 52 - 52) =      5.89653  eV     1   --> G_2            
     e( 53 - 54) =      6.54057  eV     2   -->   2 G_2            
     e( 55 - 55) =      6.81161  eV     1   --> G_2            
     e( 56 - 56) =      6.81174  eV     1   --> G_2            
     e( 57 - 57) =      6.94467  eV     1   --> G_2            
     e( 58 - 58) =      6.94496  eV     1   --> G_2            
     e( 59 - 59) =      7.19232  eV     1   --> G_2            
     e( 60 - 60) =      7.19296  eV     1   --> G_2            
     e( 61 - 61) =      7.20128  eV     1   --> G_2            
     e( 62 - 62) =      7.20166  eV     1   --> G_2            
     e( 63 - 63) =      7.85557  eV     1   --> G_2            
     e( 64 - 64) =      7.85616  eV     1   --> G_2            
     e( 65 - 65) =      7.87853  eV     1   --> G_2            
     e( 66 - 66) =      7.87922  eV     1   --> G_2            
     e( 67 - 67) =      8.16856  eV     1   --> G_2            
     e( 68 - 68) =      8.16868  eV     1   --> G_2            
     e( 69 - 70) =      8.27631  eV     2   -->   2 G_2            
     e( 71 - 72) =      8.69777  eV     2   -->   2 G_2            
     e( 73 - 73) =      9.32916  eV     1   --> G_2            
     e( 74 - 74) =      9.33160  eV     1   --> G_2            
     e( 75 - 75) =      9.38947  eV     1   --> G_2            
     e( 76 - 76) =      9.39311  eV     1   --> G_2            
     e( 77 - 77) =      9.61607  eV     1   --> G_2            
     e( 78 - 78) =      9.61714  eV     1   --> G_2            
     e( 79 - 79) =      9.83553  eV     1   --> G_2            
     e( 80 - 80) =      9.83778  eV     1   --> G_2            
     e( 81 - 81) =      9.92206  eV     1   --> G_2            
     e( 82 - 82) =      9.92432  eV     1   --> G_2            
     e( 83 - 84) =     10.92911  eV     2   -->   2 G_2            
     e( 85 - 86) =     10.98586  eV     2   -->   2 G_2            
     e( 87 - 87) =     12.15663  eV     1   --> G_2            
     e( 88 - 88) =     12.15881  eV     1   --> G_2            
     e( 89 - 89) =     12.17378  eV     1   --> G_2            
     e( 90 - 90) =     12.17694  eV     1   --> G_2            
     e( 91 - 91) =     12.45100  eV     1   --> G_2            
     e( 92 - 92) =     12.45438  eV     1   --> G_2            
     e( 93 - 93) =     12.50756  eV     1   --> G_2            
     e( 94 - 94) =     12.50957  eV     1   --> G_2            
     e( 95 - 95) =     12.59445  eV     1   --> G_2            
     e( 96 - 96) =     12.59468  eV     1   --> G_2            
     e( 97 - 98) =     13.29324  eV     2   -->   2 G_2            
     e( 99 - 99) =     14.03984  eV     1   --> G_2            
     e(100 -100) =     14.04123  eV     1   --> G_2            

 **************************************************************************

 **************************************************************************

                    xk=(   0.00476,   0.00824,   0.00000  )

     Band symmetry, C_1 (1)     double point group:

     e(  1 -  2) =    -12.57097  eV     2   -->   2 G_2            
     e(  3 -  4) =    -12.03913  eV     2   -->   2 G_2            
     e(  5 -  6) =    -10.93671  eV     2   -->   2 G_2            
     e(  7 -  8) =     -8.16527  eV     2   -->   2 G_2            
     e(  9 - 10) =     -6.70964  eV     2   -->   2 G_2            
     e( 11 - 12) =     -2.38742  eV     2   -->   2 G_2            
     e( 13 - 13) =     -1.85052  eV     1   --> G_2            
     e( 14 - 14) =     -1.84995  eV     1   --> G_2            
     e( 15 - 15) =     -1.60401  eV     1   --> G_2            
     e( 16 - 16) =     -1.60308  eV     1   --> G_2            
     e( 17 - 17) =     -1.32874  eV     1   --> G_2            
     e( 18 - 18) =     -1.32750  eV     1   --> G_2            
     e( 19 - 19) =     -1.25800  eV     1   --> G_2            
     e( 20 - 20) =     -1.25105  eV     1   --> G_2            
     e( 21 - 21) =     -1.11825  eV     1   --> G_2            
     e( 22 - 22) =     -1.11012  eV     1   --> G_2            
     e( 23 - 23) =     -0.91297  eV     1   --> G_2            
     e( 24 - 24) =     -0.91128  eV     1   --> G_2            
     e( 25 - 25) =     -0.52775  eV     1   --> G_2            
     e( 26 - 26) =     -0.52660  eV     1   --> G_2            
     e( 27 - 27) =     -0.36852  eV     1   --> G_2            
     e( 28 - 28) =     -0.36746  eV     1   --> G_2            
     e( 29 - 29) =      0.35612  eV     1   --> G_2            
     e( 30 - 30) =      0.35706  eV     1   --> G_2            
     e( 31 - 31) =      0.95183  eV     1   --> G_2            
     e( 32 - 32) =      0.95264  eV     1   --> G_2            
     e( 33 - 33) =      1.25460  eV     1   --> G_2            
     e( 34 - 34) =      1.25673  eV     1   --> G_2            
     e( 35 - 35) =      1.52154  eV     1   --> G_2            
     e( 36 - 36) =      1.52374  eV     1   --> G_2            
     e( 37 - 37) =      2.29381  eV     1   --> G_2            
     e( 38 - 38) =      2.29429  eV     1   --> G_2            
     e( 39 - 39) =      2.36593  eV     1   --> G_2            
     e( 40 - 40) =      2.36644  eV     1   --> G_2            
     e( 41 - 42) =      4.30047  eV     2   -->   2 G_2            
     e( 43 - 44) =      4.50417  eV     2   -->   2 G_2            
     e( 45 - 46) =      5.06140  eV     2   -->   2 G_2            
     e( 47 - 48) =      5.71863  eV     2   -->   2 G_2            
     e( 49 - 49) =      5.86423  eV     1   --> G_2            
     e( 50 - 50) =      5.86442  eV     1   --> G_2            
     e( 51 - 51) =      5.89741  eV     1   --> G_2            
     e( 52 - 52) =      5.89760  eV     1   --> G_2            
     e( 53 - 54) =      6.52685  eV     2   -->   2 G_2            
     e( 55 - 56) =      6.81381  eV     2   -->   2 G_2            
     e( 57 - 57) =      6.95279  eV     1   --> G_2            
     e( 58 - 58) =      6.95297  eV     1   --> G_2            
     e( 59 - 59) =      7.19647  eV     1   --> G_2            
     e( 60 - 60) =      7.19676  eV     1   --> G_2            
     e( 61 - 61) =      7.20269  eV     1   --> G_2            
     e( 62 - 62) =      7.20287  eV     1   --> G_2            
     e( 63 - 63) =      7.84318  eV     1   --> G_2            
     e( 64 - 64) =      7.84355  eV     1   --> G_2            
     e( 65 - 65) =      7.86518  eV     1   --> G_2            
     e( 66 - 66) =      7.86557  eV     1   --> G_2            
     e( 67 - 68) =      8.16889  eV     2   -->   2 G_2            
     e( 69 - 70) =      8.26283  eV     2   -->   2 G_2            
     e( 71 - 72) =      8.68493  eV     2   -->   2 G_2            
     e( 73 - 73) =      9.34220  eV     1   --> G_2            
     e( 74 - 74) =      9.34348  eV     1   --> G_2            
     e( 75 - 75) =      9.40924  eV     1   --> G_2            
     e( 76 - 76) =      9.41125  eV     1   --> G_2            
     e( 77 - 77) =      9.65907  eV     1   --> G_2            
     e( 78 - 78) =      9.65992  eV     1   --> G_2            
     e( 79 - 79) =      9.79936  eV     1   --> G_2            
     e( 80 - 80) =      9.80107  eV     1   --> G_2            
     e( 81 - 81) =      9.87196  eV     1   --> G_2            
     e( 82 - 82) =      9.87368  eV     1   --> G_2            
     e( 83 - 84) =     10.92908  eV     2   -->   2 G_2            
     e( 85 - 86) =     10.97980  eV     2   -->   2 G_2            
     e( 87 - 87) =     12.20122  eV     1   --> G_2            
     e( 88 - 88) =     12.20321  eV     1   --> G_2            
     e( 89 - 89) =     12.22515  eV     1   --> G_2            
     e( 90 - 90) =     12.22836  eV     1   --> G_2            
     e( 91 - 91) =     12.42219  eV     1   --> G_2            
     e( 92 - 92) =     12.42523  eV     1   --> G_2            
     e( 93 - 93) =     12.49118  eV     1   --> G_2            
     e( 94 - 94) =     12.49293  eV     1   --> G_2            
     e( 95 - 96) =     12.55234  eV     2   -->   2 G_2            
     e( 97 - 98) =     13.27662  eV     2   -->   2 G_2            
     e( 99 - 99) =     14.08689  eV     1   --> G_2            
     e(100 -100) =     14.08775  eV     1   --> G_2            

 **************************************************************************

 **************************************************************************

                    xk=(   0.00000,   0.00000,   0.00000  )

     Band symmetry, C_1 (1)     double point group:

     e(  1 -  2) =    -12.57157  eV     2   -->   2 G_2            
     e(  3 -  4) =    -12.03969  eV     2   -->   2 G_2            
     e(  5 -  6) =    -10.93706  eV     2   -->   2 G_2            
     e(  7 -  8) =     -8.16524  eV     2   -->   2 G_2            
     e(  9 - 10) =     -6.70867  eV     2   -->   2 G_2            
     e( 11 - 12) =     -2.38661  eV     2   -->   2 G_2            
     e( 13 - 14) =     -1.84254  eV     2   -->   2 G_2            
     e( 15 - 16) =     -1.60448  eV     2   -->   2 G_2            
     e( 17 - 18) =     -1.32496  eV     2   -->   2 G_2            
     e( 19 - 20) =     -1.23448  eV     2   -->   2 G_2            
     e( 21 - 22) =     -1.12548  eV     2   -->   2 G_2            
     e( 23 - 24) =     -0.91760  eV     2   -->   2 G_2            
     e( 25 - 26) =     -0.52172  eV     2   -->   2 G_2            
     e( 27 - 28) =     -0.37371  eV     2   -->   2 G_2            
     e( 29 - 30) =      0.34916  eV     2   -->   2 G_2            
     e( 31 - 32) =      0.95106  eV     2   -->   2 G_2            
     e( 33 - 34) =      1.26359  eV     2   -->   2 G_2            
     e( 35 - 36) =      1.51484  eV     2   -->   2 G_2            
     e( 37 - 38) =      2.29018  eV     2   -->   2 G_2            
     e( 39 - 40) =      2.36697  eV     2   -->   2 G_2            
     e( 41 - 42) =      4.29935  eV     2   -->   2 G_2            
     e( 43 - 44) =      4.50387  eV     2   -->   2 G_2            
     e( 45 - 46) =      5.06100  eV     2   -->   2 G_2            
     e( 47 - 48) =      5.71864  eV     2   -->   2 G_2            
     e( 49 - 50) =      5.86760  eV     2   -->   2 G_2            
     e( 51 - 52) =      5.89928  eV     2   -->   2 G_2            
     e( 53 - 54) =      6.52203  eV     2   -->   2 G_2            
     e( 55 - 56) =      6.81446  eV     2   -->   2 G_2            
     e( 57 - 58) =      6.95553  eV     2   -->   2 G_2            
     e( 59 - 60) =      7.19798  eV     2   -->   2 G_2            
     e( 61 - 62) =      7.20375  eV     2   -->   2 G_2            
     e( 63 - 64) =      7.83848  eV     2   -->   2 G_2            
     e( 65 - 66) =      7.86093  eV     2   -->   2 G_2            
     e( 67 - 68) =      8.16930  eV     2   -->   2 G_2            
     e( 69 - 70) =      8.25829  eV     2   -->   2 G_2            
     e( 71 - 72) =      8.68068  eV     2   -->   2 G_2            
     e( 73 - 74) =      9.34679  eV     2   -->   2 G_2            
     e( 75 - 76) =      9.41696  eV     2   -->   2 G_2            
     e( 77 - 78) =      9.68566  eV     2   -->   2 G_2            
     e( 79 - 80) =      9.77841  eV     2   -->   2 G_2            
     e( 81 - 82) =      9.85358  eV     2   -->   2 G_2            
     e( 83 - 84) =     10.92910  eV     2   -->   2 G_2            
     e( 85 - 86) =     10.97777  eV     2   -->   2 G_2            
     e( 87 - 88) =     12.21941  eV     2   -->   2 G_2            
     e( 89 - 90) =     12.25073  eV     2   -->   2 G_2            
     e( 91 - 92) =     12.40730  eV     2   -->   2 G_2            
     e( 93 - 94) =     12.48357  eV     2   -->   2 G_2            
     e( 95 - 96) =     12.53918  eV     2   -->   2 G_2            
     e( 97 - 98) =     13.27028  eV     2   -->   2 G_2            
     e( 99 -100) =     14.10372  eV     2   -->   2 G_2            

 **************************************************************************

     BANDS        :  21m16.12s CPU  20m30.80s WALL


   This run was terminated on:  20: 9: 6  22Aug2025            

=------------------------------------------------------------------------------=
   JOB DONE.
=------------------------------------------------------------------------------=
