
     Program BANDS v.7.4.1 starts on 22Aug2025 at 22:51: 4 

     This program is part of the open-source Quantum ESPRESSO suite
     for quantum simulation of materials; please cite
         "P. Giannozzi et al., J. Phys.:Condens. Matter 21 395502 (2009);
         "P. Giannozzi et al., J. Phys.:Condens. Matter 29 465901 (2017);
         "P. Giannozzi et al., J. Chem. Phys. 152 154105 (2020);
          URL http://www.quantum-espresso.org", 
     in publications or presentations arising from this work. More details at
     http://www.quantum-espresso.org/quote

     Parallel version (MPI & OpenMP), running on      48 processor cores
     Number of MPI processes:                24
     Threads/MPI process:                     2

     MPI processes distributed on     2 nodes
     R & G space division:  proc/nbgrp/npool/nimage =      24
     80657 MiB available memory on the printing compute node when the environment starts


     Reading xml data from directory:

     tmp/Sb2Te3-uatsx-c6-soc-3.0.save/
     file Sb.rel-pbe-n-rrkjus_psl.1.0.0.UPF: wavefunction(s)  5S renormalized
     file Te.rel-pbe-n-rrkjus_psl.1.0.0.UPF: wavefunction(s)  5S renormalized

     IMPORTANT: XC functional enforced from input :
     Exchange-correlation= PBE
                           (   1   4   3   4   0   0   0)
     Any further DFT definition will be discarded
     Please, verify this is what you really want


     Parallelization info
     --------------------
     sticks:   dense  smooth     PW     G-vecs:    dense   smooth      PW
     Min          97      39     11                19481     4929     747
     Max          98      40     12                19500     4946     765
     Sum        2349     941    267               467835   118417   18151

     Using Slab Decomposition


     negative rho (up, down):  4.149E-06 0.000E+00
     Reading collected, re-writing distributed wavefunctions
     high-symmetry point:  0.0000 0.0000 0.0000   x coordinate   0.0000
     high-symmetry point:  0.5000 0.2887 0.0000   x coordinate   0.5774
     high-symmetry point:  0.3333 0.5889 0.0000   x coordinate   0.9207
     high-symmetry point:  0.0000 0.0000 0.0000   x coordinate   1.5974

     Plottable bands (eV) written to file ./bands/Sb2Te3-uatsx-c6-soc-3.0.bands.gnu
     Bands written to file ./bands/Sb2Te3-uatsx-c6-soc-3.0.bands

 **************************************************************************

                    xk=(   0.00000,   0.00000,   0.00000  )

     double point group C_1 (1)    
     there are  2 classes and  1 irreducible representations
     the character table:

       E     -E   
                  
G_2    1.00 -1.00

     the symmetry operations in each class and the name of the first element:

     E             1
                                                                 
     -E           -1
                                                                 

     Band symmetry, C_1 (1)     double point group:

     e(  1 -  2) =    -12.60893  eV     2   -->   2 G_2            
     e(  3 -  4) =    -12.07862  eV     2   -->   2 G_2            
     e(  5 -  6) =    -10.99479  eV     2   -->   2 G_2            
     e(  7 -  8) =     -8.25979  eV     2   -->   2 G_2            
     e(  9 - 10) =     -6.89115  eV     2   -->   2 G_2            
     e( 11 - 12) =     -2.50862  eV     2   -->   2 G_2            
     e( 13 - 14) =     -2.07320  eV     2   -->   2 G_2            
     e( 15 - 16) =     -1.78320  eV     2   -->   2 G_2            
     e( 17 - 18) =     -1.53006  eV     2   -->   2 G_2            
     e( 19 - 20) =     -1.46378  eV     2   -->   2 G_2            
     e( 21 - 22) =     -1.36441  eV     2   -->   2 G_2            
     e( 23 - 24) =     -1.08620  eV     2   -->   2 G_2            
     e( 25 - 26) =     -0.78686  eV     2   -->   2 G_2            
     e( 27 - 28) =     -0.61790  eV     2   -->   2 G_2            
     e( 29 - 30) =      0.03327  eV     2   -->   2 G_2            
     e( 31 - 32) =      0.68713  eV     2   -->   2 G_2            
     e( 33 - 34) =      1.04932  eV     2   -->   2 G_2            
     e( 35 - 36) =      1.25410  eV     2   -->   2 G_2            
     e( 37 - 38) =      1.98381  eV     2   -->   2 G_2            
     e( 39 - 40) =      2.17666  eV     2   -->   2 G_2            
     e( 41 - 42) =      4.18856  eV     2   -->   2 G_2            
     e( 43 - 44) =      4.38092  eV     2   -->   2 G_2            
     e( 45 - 46) =      4.99796  eV     2   -->   2 G_2            
     e( 47 - 48) =      5.43655  eV     2   -->   2 G_2            
     e( 49 - 50) =      5.56005  eV     2   -->   2 G_2            
     e( 51 - 52) =      5.86489  eV     2   -->   2 G_2            
     e( 53 - 54) =      6.38663  eV     2   -->   2 G_2            
     e( 55 - 56) =      6.59512  eV     2   -->   2 G_2            
     e( 57 - 58) =      6.70927  eV     2   -->   2 G_2            
     e( 59 - 60) =      6.79886  eV     2   -->   2 G_2            
     e( 61 - 62) =      7.20457  eV     2   -->   2 G_2            
     e( 63 - 64) =      7.56108  eV     2   -->   2 G_2            
     e( 65 - 66) =      7.71320  eV     2   -->   2 G_2            
     e( 67 - 68) =      8.03572  eV     2   -->   2 G_2            
     e( 69 - 70) =      8.09351  eV     2   -->   2 G_2            
     e( 71 - 72) =      8.54969  eV     2   -->   2 G_2            
     e( 73 - 74) =      8.98656  eV     2   -->   2 G_2            
     e( 75 - 76) =      9.36371  eV     2   -->   2 G_2            
     e( 77 - 78) =      9.50269  eV     2   -->   2 G_2            
     e( 79 - 80) =      9.50516  eV     2   -->   2 G_2            
     e( 81 - 82) =      9.71934  eV     2   -->   2 G_2            
     e( 83 - 84) =     10.83988  eV     2   -->   2 G_2            
     e( 85 - 86) =     10.84879  eV     2   -->   2 G_2            
     e( 87 - 88) =     11.81878  eV     2   -->   2 G_2            
     e( 89 - 90) =     12.07843  eV     2   -->   2 G_2            
     e( 91 - 92) =     12.21145  eV     2   -->   2 G_2            
     e( 93 - 94) =     12.25584  eV     2   -->   2 G_2            
     e( 95 - 96) =     12.43678  eV     2   -->   2 G_2            
     e( 97 - 98) =     13.05164  eV     2   -->   2 G_2            
     e( 99 -100) =     13.63311  eV     2   -->   2 G_2            

 **************************************************************************

 **************************************************************************

                    xk=(   0.00714,   0.00412,   0.00000  )

     Band symmetry, C_1 (1)     double point group:

     e(  1 -  2) =    -12.60851  eV     2   -->   2 G_2            
     e(  3 -  4) =    -12.07823  eV     2   -->   2 G_2            
     e(  5 -  6) =    -10.99457  eV     2   -->   2 G_2            
     e(  7 -  8) =     -8.25988  eV     2   -->   2 G_2            
     e(  9 - 10) =     -6.89196  eV     2   -->   2 G_2            
     e( 11 - 12) =     -2.50942  eV     2   -->   2 G_2            
     e( 13 - 13) =     -2.07946  eV     1   --> G_2            
     e( 14 - 14) =     -2.07935  eV     1   --> G_2            
     e( 15 - 15) =     -1.78231  eV     1   --> G_2            
     e( 16 - 16) =     -1.78206  eV     1   --> G_2            
     e( 17 - 17) =     -1.53573  eV     1   --> G_2            
     e( 18 - 18) =     -1.53521  eV     1   --> G_2            
     e( 19 - 19) =     -1.47488  eV     1   --> G_2            
     e( 20 - 20) =     -1.47423  eV     1   --> G_2            
     e( 21 - 21) =     -1.35445  eV     1   --> G_2            
     e( 22 - 22) =     -1.35319  eV     1   --> G_2            
     e( 23 - 23) =     -1.08372  eV     1   --> G_2            
     e( 24 - 24) =     -1.08349  eV     1   --> G_2            
     e( 25 - 25) =     -0.78950  eV     1   --> G_2            
     e( 26 - 26) =     -0.78931  eV     1   --> G_2            
     e( 27 - 27) =     -0.61576  eV     1   --> G_2            
     e( 28 - 28) =     -0.61565  eV     1   --> G_2            
     e( 29 - 29) =      0.03970  eV     1   --> G_2            
     e( 30 - 30) =      0.03986  eV     1   --> G_2            
     e( 31 - 31) =      0.68621  eV     1   --> G_2            
     e( 32 - 32) =      0.68636  eV     1   --> G_2            
     e( 33 - 33) =      1.04312  eV     1   --> G_2            
     e( 34 - 34) =      1.04354  eV     1   --> G_2            
     e( 35 - 35) =      1.26110  eV     1   --> G_2            
     e( 36 - 36) =      1.26160  eV     1   --> G_2            
     e( 37 - 37) =      1.98582  eV     1   --> G_2            
     e( 38 - 38) =      1.98595  eV     1   --> G_2            
     e( 39 - 40) =      2.17633  eV     2   -->   2 G_2            
     e( 41 - 42) =      4.18933  eV     2   -->   2 G_2            
     e( 43 - 44) =      4.38104  eV     2   -->   2 G_2            
     e( 45 - 46) =      4.99817  eV     2   -->   2 G_2            
     e( 47 - 48) =      5.43419  eV     2   -->   2 G_2            
     e( 49 - 50) =      5.55977  eV     2   -->   2 G_2            
     e( 51 - 52) =      5.86509  eV     2   -->   2 G_2            
     e( 53 - 54) =      6.38931  eV     2   -->   2 G_2            
     e( 55 - 56) =      6.59349  eV     2   -->   2 G_2            
     e( 57 - 58) =      6.70877  eV     2   -->   2 G_2            
     e( 59 - 60) =      6.79845  eV     2   -->   2 G_2            
     e( 61 - 62) =      7.20304  eV     2   -->   2 G_2            
     e( 63 - 64) =      7.56746  eV     2   -->   2 G_2            
     e( 65 - 66) =      7.71541  eV     2   -->   2 G_2            
     e( 67 - 68) =      8.03381  eV     2   -->   2 G_2            
     e( 69 - 70) =      8.09582  eV     2   -->   2 G_2            
     e( 71 - 72) =      8.55147  eV     2   -->   2 G_2            
     e( 73 - 74) =      8.98698  eV     2   -->   2 G_2            
     e( 75 - 75) =      9.35371  eV     1   --> G_2            
     e( 76 - 76) =      9.35411  eV     1   --> G_2            
     e( 77 - 77) =      9.45571  eV     1   --> G_2            
     e( 78 - 78) =      9.45638  eV     1   --> G_2            
     e( 79 - 79) =      9.55838  eV     1   --> G_2            
     e( 80 - 80) =      9.55876  eV     1   --> G_2            
     e( 81 - 81) =      9.72665  eV     1   --> G_2            
     e( 82 - 82) =      9.72679  eV     1   --> G_2            
     e( 83 - 84) =     10.83733  eV     2   -->   2 G_2            
     e( 85 - 86) =     10.85150  eV     2   -->   2 G_2            
     e( 87 - 88) =     11.80610  eV     2   -->   2 G_2            
     e( 89 - 89) =     12.08268  eV     1   --> G_2            
     e( 90 - 90) =     12.08284  eV     1   --> G_2            
     e( 91 - 91) =     12.19430  eV     1   --> G_2            
     e( 92 - 92) =     12.19463  eV     1   --> G_2            
     e( 93 - 93) =     12.27681  eV     1   --> G_2            
     e( 94 - 94) =     12.27695  eV     1   --> G_2            
     e( 95 - 96) =     12.44061  eV     2   -->   2 G_2            
     e( 97 - 98) =     13.05398  eV     2   -->   2 G_2            
     e( 99 -100) =     13.61069  eV     2   -->   2 G_2            

 **************************************************************************

 **************************************************************************

                    xk=(   0.01429,   0.00825,   0.00000  )

     Band symmetry, C_1 (1)     double point group:

     e(  1 -  2) =    -12.60725  eV     2   -->   2 G_2            
     e(  3 -  4) =    -12.07709  eV     2   -->   2 G_2            
     e(  5 -  6) =    -10.99389  eV     2   -->   2 G_2            
     e(  7 -  8) =     -8.26015  eV     2   -->   2 G_2            
     e(  9 - 10) =     -6.89440  eV     2   -->   2 G_2            
     e( 11 - 12) =     -2.51182  eV     2   -->   2 G_2            
     e( 13 - 13) =     -2.09744  eV     1   --> G_2            
     e( 14 - 14) =     -2.09724  eV     1   --> G_2            
     e( 15 - 15) =     -1.78005  eV     1   --> G_2            
     e( 16 - 16) =     -1.77957  eV     1   --> G_2            
     e( 17 - 17) =     -1.55559  eV     1   --> G_2            
     e( 18 - 18) =     -1.55437  eV     1   --> G_2            
     e( 19 - 19) =     -1.49294  eV     1   --> G_2            
     e( 20 - 20) =     -1.49231  eV     1   --> G_2            
     e( 21 - 21) =     -1.33389  eV     1   --> G_2            
     e( 22 - 22) =     -1.33208  eV     1   --> G_2            
     e( 23 - 23) =     -1.07622  eV     1   --> G_2            
     e( 24 - 24) =     -1.07578  eV     1   --> G_2            
     e( 25 - 25) =     -0.79718  eV     1   --> G_2            
     e( 26 - 26) =     -0.79680  eV     1   --> G_2            
     e( 27 - 27) =     -0.60849  eV     1   --> G_2            
     e( 28 - 28) =     -0.60826  eV     1   --> G_2            
     e( 29 - 29) =      0.05840  eV     1   --> G_2            
     e( 30 - 30) =      0.05872  eV     1   --> G_2            
     e( 31 - 31) =      0.68355  eV     1   --> G_2            
     e( 32 - 32) =      0.68383  eV     1   --> G_2            
     e( 33 - 33) =      1.02790  eV     1   --> G_2            
     e( 34 - 34) =      1.02859  eV     1   --> G_2            
     e( 35 - 35) =      1.28000  eV     1   --> G_2            
     e( 36 - 36) =      1.28086  eV     1   --> G_2            
     e( 37 - 37) =      1.99190  eV     1   --> G_2            
     e( 38 - 38) =      1.99216  eV     1   --> G_2            
     e( 39 - 40) =      2.17546  eV     2   -->   2 G_2            
     e( 41 - 42) =      4.19161  eV     2   -->   2 G_2            
     e( 43 - 44) =      4.38143  eV     2   -->   2 G_2            
     e( 45 - 46) =      4.99878  eV     2   -->   2 G_2            
     e( 47 - 48) =      5.42710  eV     2   -->   2 G_2            
     e( 49 - 50) =      5.55905  eV     2   -->   2 G_2            
     e( 51 - 52) =      5.86581  eV     2   -->   2 G_2            
     e( 53 - 54) =      6.39711  eV     2   -->   2 G_2            
     e( 55 - 55) =      6.58863  eV     1   --> G_2            
     e( 56 - 56) =      6.58874  eV     1   --> G_2            
     e( 57 - 57) =      6.70640  eV     1   --> G_2            
     e( 58 - 58) =      6.70656  eV     1   --> G_2            
     e( 59 - 60) =      6.79872  eV     2   -->   2 G_2            
     e( 61 - 62) =      7.19882  eV     2   -->   2 G_2            
     e( 63 - 64) =      7.58570  eV     2   -->   2 G_2            
     e( 65 - 66) =      7.72194  eV     2   -->   2 G_2            
     e( 67 - 68) =      8.02843  eV     2   -->   2 G_2            
     e( 69 - 70) =      8.10265  eV     2   -->   2 G_2            
     e( 71 - 72) =      8.55689  eV     2   -->   2 G_2            
     e( 73 - 74) =      8.98782  eV     2   -->   2 G_2            
     e( 75 - 75) =      9.32677  eV     1   --> G_2            
     e( 76 - 76) =      9.32737  eV     1   --> G_2            
     e( 77 - 77) =      9.41649  eV     1   --> G_2            
     e( 78 - 78) =      9.41722  eV     1   --> G_2            
     e( 79 - 79) =      9.61692  eV     1   --> G_2            
     e( 80 - 80) =      9.61730  eV     1   --> G_2            
     e( 81 - 81) =      9.74737  eV     1   --> G_2            
     e( 82 - 82) =      9.74765  eV     1   --> G_2            
     e( 83 - 84) =     10.83250  eV     2   -->   2 G_2            
     e( 85 - 86) =     10.85687  eV     2   -->   2 G_2            
     e( 87 - 88) =     11.77327  eV     2   -->   2 G_2            
     e( 89 - 89) =     12.08168  eV     1   --> G_2            
     e( 90 - 90) =     12.08198  eV     1   --> G_2            
     e( 91 - 91) =     12.18212  eV     1   --> G_2            
     e( 92 - 92) =     12.18260  eV     1   --> G_2            
     e( 93 - 93) =     12.30890  eV     1   --> G_2            
     e( 94 - 94) =     12.30902  eV     1   --> G_2            
     e( 95 - 96) =     12.45331  eV     2   -->   2 G_2            
     e( 97 - 98) =     13.05914  eV     2   -->   2 G_2            
     e( 99 -100) =     13.55748  eV     2   -->   2 G_2            

 **************************************************************************

 **************************************************************************

                    xk=(   0.02143,   0.01237,   0.00000  )

     Band symmetry, C_1 (1)     double point group:

     e(  1 -  2) =    -12.60514  eV     2   -->   2 G_2            
     e(  3 -  4) =    -12.07518  eV     2   -->   2 G_2            
     e(  5 -  6) =    -10.99276  eV     2   -->   2 G_2            
     e(  7 -  8) =     -8.26059  eV     2   -->   2 G_2            
     e(  9 - 10) =     -6.89844  eV     2   -->   2 G_2            
     e( 11 - 12) =     -2.51584  eV     2   -->   2 G_2            
     e( 13 - 13) =     -2.12551  eV     1   --> G_2            
     e( 14 - 14) =     -2.12526  eV     1   --> G_2            
     e( 15 - 15) =     -1.77797  eV     1   --> G_2            
     e( 16 - 16) =     -1.77731  eV     1   --> G_2            
     e( 17 - 17) =     -1.59043  eV     1   --> G_2            
     e( 18 - 18) =     -1.58880  eV     1   --> G_2            
     e( 19 - 19) =     -1.50562  eV     1   --> G_2            
     e( 20 - 20) =     -1.50489  eV     1   --> G_2            
     e( 21 - 21) =     -1.31442  eV     1   --> G_2            
     e( 22 - 22) =     -1.31239  eV     1   --> G_2            
     e( 23 - 23) =     -1.06452  eV     1   --> G_2            
     e( 24 - 24) =     -1.06388  eV     1   --> G_2            
     e( 25 - 25) =     -0.80902  eV     1   --> G_2            
     e( 26 - 26) =     -0.80847  eV     1   --> G_2            
     e( 27 - 27) =     -0.59483  eV     1   --> G_2            
     e( 28 - 28) =     -0.59446  eV     1   --> G_2            
     e( 29 - 29) =      0.08737  eV     1   --> G_2            
     e( 30 - 30) =      0.08782  eV     1   --> G_2            
     e( 31 - 31) =      0.67898  eV     1   --> G_2            
     e( 32 - 32) =      0.67938  eV     1   --> G_2            
     e( 33 - 33) =      1.00924  eV     1   --> G_2            
     e( 34 - 34) =      1.01005  eV     1   --> G_2            
     e( 35 - 35) =      1.30578  eV     1   --> G_2            
     e( 36 - 36) =      1.30686  eV     1   --> G_2            
     e( 37 - 37) =      2.00178  eV     1   --> G_2            
     e( 38 - 38) =      2.00215  eV     1   --> G_2            
     e( 39 - 39) =      2.17435  eV     1   --> G_2            
     e( 40 - 40) =      2.17447  eV     1   --> G_2            
     e( 41 - 42) =      4.19540  eV     2   -->   2 G_2            
     e( 43 - 44) =      4.38205  eV     2   -->   2 G_2            
     e( 45 - 46) =      4.99971  eV     2   -->   2 G_2            
     e( 47 - 48) =      5.41534  eV     2   -->   2 G_2            
     e( 49 - 50) =      5.55815  eV     2   -->   2 G_2            
     e( 51 - 52) =      5.86735  eV     2   -->   2 G_2            
     e( 53 - 54) =      6.40934  eV     2   -->   2 G_2            
     e( 55 - 55) =      6.58034  eV     1   --> G_2            
     e( 56 - 56) =      6.58049  eV     1   --> G_2            
     e( 57 - 57) =      6.70057  eV     1   --> G_2            
     e( 58 - 58) =      6.70079  eV     1   --> G_2            
     e( 59 - 60) =      6.80287  eV     2   -->   2 G_2            
     e( 61 - 62) =      7.19273  eV     2   -->   2 G_2            
     e( 63 - 64) =      7.61329  eV     2   -->   2 G_2            
     e( 65 - 66) =      7.73250  eV     2   -->   2 G_2            
     e( 67 - 68) =      8.02050  eV     2   -->   2 G_2            
     e( 69 - 70) =      8.11388  eV     2   -->   2 G_2            
     e( 71 - 72) =      8.56623  eV     2   -->   2 G_2            
     e( 73 - 74) =      8.98775  eV     2   -->   2 G_2            
     e( 75 - 75) =      9.29076  eV     1   --> G_2            
     e( 76 - 76) =      9.29136  eV     1   --> G_2            
     e( 77 - 77) =      9.38396  eV     1   --> G_2            
     e( 78 - 78) =      9.38462  eV     1   --> G_2            
     e( 79 - 79) =      9.67723  eV     1   --> G_2            
     e( 80 - 80) =      9.67774  eV     1   --> G_2            
     e( 81 - 81) =      9.77864  eV     1   --> G_2            
     e( 82 - 82) =      9.77908  eV     1   --> G_2            
     e( 83 - 84) =     10.82679  eV     2   -->   2 G_2            
     e( 85 - 86) =     10.86350  eV     2   -->   2 G_2            
     e( 87 - 88) =     11.72921  eV     2   -->   2 G_2            
     e( 89 - 89) =     12.05862  eV     1   --> G_2            
     e( 90 - 90) =     12.05886  eV     1   --> G_2            
     e( 91 - 91) =     12.19467  eV     1   --> G_2            
     e( 92 - 92) =     12.19509  eV     1   --> G_2            
     e( 93 - 93) =     12.33918  eV     1   --> G_2            
     e( 94 - 94) =     12.33929  eV     1   --> G_2            
     e( 95 - 96) =     12.47671  eV     2   -->   2 G_2            
     e( 97 - 98) =     13.06105  eV     2   -->   2 G_2            
     e( 99 -100) =     13.49769  eV     2   -->   2 G_2            

 **************************************************************************

 **************************************************************************

                    xk=(   0.02857,   0.01650,   0.00000  )

     Band symmetry, C_1 (1)     double point group:

     e(  1 -  2) =    -12.60220  eV     2   -->   2 G_2            
     e(  3 -  4) =    -12.07251  eV     2   -->   2 G_2            
     e(  5 -  6) =    -10.99118  eV     2   -->   2 G_2            
     e(  7 -  8) =     -8.26123  eV     2   -->   2 G_2            
     e(  9 - 10) =     -6.90411  eV     2   -->   2 G_2            
     e( 11 - 12) =     -2.52153  eV     2   -->   2 G_2            
     e( 13 - 13) =     -2.16181  eV     1   --> G_2            
     e( 14 - 14) =     -2.16153  eV     1   --> G_2            
     e( 15 - 15) =     -1.77780  eV     1   --> G_2            
     e( 16 - 16) =     -1.77700  eV     1   --> G_2            
     e( 17 - 17) =     -1.63345  eV     1   --> G_2            
     e( 18 - 18) =     -1.63172  eV     1   --> G_2            
     e( 19 - 19) =     -1.51485  eV     1   --> G_2            
     e( 20 - 20) =     -1.51400  eV     1   --> G_2            
     e( 21 - 21) =     -1.30038  eV     1   --> G_2            
     e( 22 - 22) =     -1.29830  eV     1   --> G_2            
     e( 23 - 23) =     -1.05053  eV     1   --> G_2            
     e( 24 - 24) =     -1.04971  eV     1   --> G_2            
     e( 25 - 25) =     -0.82226  eV     1   --> G_2            
     e( 26 - 26) =     -0.82152  eV     1   --> G_2            
     e( 27 - 27) =     -0.57437  eV     1   --> G_2            
     e( 28 - 28) =     -0.57388  eV     1   --> G_2            
     e( 29 - 29) =      0.12387  eV     1   --> G_2            
     e( 30 - 30) =      0.12444  eV     1   --> G_2            
     e( 31 - 31) =      0.67254  eV     1   --> G_2            
     e( 32 - 32) =      0.67303  eV     1   --> G_2            
     e( 33 - 33) =      0.99177  eV     1   --> G_2            
     e( 34 - 34) =      0.99259  eV     1   --> G_2            
     e( 35 - 35) =      1.33455  eV     1   --> G_2            
     e( 36 - 36) =      1.33576  eV     1   --> G_2            
     e( 37 - 37) =      2.01491  eV     1   --> G_2            
     e( 38 - 38) =      2.01539  eV     1   --> G_2            
     e( 39 - 39) =      2.17356  eV     1   --> G_2            
     e( 40 - 40) =      2.17371  eV     1   --> G_2            
     e( 41 - 42) =      4.20068  eV     2   -->   2 G_2            
     e( 43 - 44) =      4.38290  eV     2   -->   2 G_2            
     e( 45 - 46) =      5.00079  eV     2   -->   2 G_2            
     e( 47 - 48) =      5.39918  eV     2   -->   2 G_2            
     e( 49 - 50) =      5.55735  eV     2   -->   2 G_2            
     e( 51 - 52) =      5.87011  eV     2   -->   2 G_2            
     e( 53 - 54) =      6.42488  eV     2   -->   2 G_2            
     e( 55 - 55) =      6.56819  eV     1   --> G_2            
     e( 56 - 56) =      6.56837  eV     1   --> G_2            
     e( 57 - 57) =      6.69163  eV     1   --> G_2            
     e( 58 - 58) =      6.69189  eV     1   --> G_2            
     e( 59 - 60) =      6.81290  eV     2   -->   2 G_2            
     e( 61 - 62) =      7.18568  eV     2   -->   2 G_2            
     e( 63 - 64) =      7.64678  eV     2   -->   2 G_2            
     e( 65 - 66) =      7.74664  eV     2   -->   2 G_2            
     e( 67 - 68) =      8.01147  eV     2   -->   2 G_2            
     e( 69 - 70) =      8.12953  eV     2   -->   2 G_2            
     e( 71 - 72) =      8.57982  eV     2   -->   2 G_2            
     e( 73 - 74) =      8.98453  eV     2   -->   2 G_2            
     e( 75 - 75) =      9.25450  eV     1   --> G_2            
     e( 76 - 76) =      9.25503  eV     1   --> G_2            
     e( 77 - 77) =      9.35498  eV     1   --> G_2            
     e( 78 - 78) =      9.35550  eV     1   --> G_2            
     e( 79 - 79) =      9.73776  eV     1   --> G_2            
     e( 80 - 80) =      9.73843  eV     1   --> G_2            
     e( 81 - 81) =      9.81785  eV     1   --> G_2            
     e( 82 - 82) =      9.81848  eV     1   --> G_2            
     e( 83 - 84) =     10.82020  eV     2   -->   2 G_2            
     e( 85 - 86) =     10.87135  eV     2   -->   2 G_2            
     e( 87 - 88) =     11.68014  eV     2   -->   2 G_2            
     e( 89 - 89) =     12.02305  eV     1   --> G_2            
     e( 90 - 90) =     12.02323  eV     1   --> G_2            
     e( 91 - 91) =     12.21594  eV     1   --> G_2            
     e( 92 - 92) =     12.21627  eV     1   --> G_2            
     e( 93 - 94) =     12.36953  eV     2   -->   2 G_2            
     e( 95 - 96) =     12.50976  eV     2   -->   2 G_2            
     e( 97 - 98) =     13.04936  eV     2   -->   2 G_2            
     e( 99 -100) =     13.45160  eV     2   -->   2 G_2            

 **************************************************************************

 **************************************************************************

                    xk=(   0.03571,   0.02062,   0.00000  )

     Band symmetry, C_1 (1)     double point group:

     e(  1 -  2) =    -12.59842  eV     2   -->   2 G_2            
     e(  3 -  4) =    -12.06908  eV     2   -->   2 G_2            
     e(  5 -  6) =    -10.98916  eV     2   -->   2 G_2            
     e(  7 -  8) =     -8.26206  eV     2   -->   2 G_2            
     e(  9 - 10) =     -6.91139  eV     2   -->   2 G_2            
     e( 11 - 11) =     -2.52896  eV     1   --> G_2            
     e( 12 - 12) =     -2.52885  eV     1   --> G_2            
     e( 13 - 13) =     -2.20467  eV     1   --> G_2            
     e( 14 - 14) =     -2.20440  eV     1   --> G_2            
     e( 15 - 15) =     -1.78101  eV     1   --> G_2            
     e( 16 - 16) =     -1.78011  eV     1   --> G_2            
     e( 17 - 17) =     -1.67953  eV     1   --> G_2            
     e( 18 - 18) =     -1.67784  eV     1   --> G_2            
     e( 19 - 19) =     -1.52353  eV     1   --> G_2            
     e( 20 - 20) =     -1.52260  eV     1   --> G_2            
     e( 21 - 21) =     -1.29314  eV     1   --> G_2            
     e( 22 - 22) =     -1.29109  eV     1   --> G_2            
     e( 23 - 23) =     -1.03735  eV     1   --> G_2            
     e( 24 - 24) =     -1.03638  eV     1   --> G_2            
     e( 25 - 25) =     -0.83221  eV     1   --> G_2            
     e( 26 - 26) =     -0.83131  eV     1   --> G_2            
     e( 27 - 27) =     -0.54795  eV     1   --> G_2            
     e( 28 - 28) =     -0.54737  eV     1   --> G_2            
     e( 29 - 29) =      0.16489  eV     1   --> G_2            
     e( 30 - 30) =      0.16556  eV     1   --> G_2            
     e( 31 - 31) =      0.66476  eV     1   --> G_2            
     e( 32 - 32) =      0.66530  eV     1   --> G_2            
     e( 33 - 33) =      0.97854  eV     1   --> G_2            
     e( 34 - 34) =      0.97931  eV     1   --> G_2            
     e( 35 - 35) =      1.36395  eV     1   --> G_2            
     e( 36 - 36) =      1.36523  eV     1   --> G_2            
     e( 37 - 37) =      2.03034  eV     1   --> G_2            
     e( 38 - 38) =      2.03092  eV     1   --> G_2            
     e( 39 - 39) =      2.17404  eV     1   --> G_2            
     e( 40 - 40) =      2.17420  eV     1   --> G_2            
     e( 41 - 42) =      4.20740  eV     2   -->   2 G_2            
     e( 43 - 44) =      4.38396  eV     2   -->   2 G_2            
     e( 45 - 46) =      5.00180  eV     2   -->   2 G_2            
     e( 47 - 48) =      5.37917  eV     2   -->   2 G_2            
     e( 49 - 50) =      5.55685  eV     2   -->   2 G_2            
     e( 51 - 52) =      5.87443  eV     2   -->   2 G_2            
     e( 53 - 54) =      6.44205  eV     2   -->   2 G_2            
     e( 55 - 55) =      6.55214  eV     1   --> G_2            
     e( 56 - 56) =      6.55235  eV     1   --> G_2            
     e( 57 - 57) =      6.68228  eV     1   --> G_2            
     e( 58 - 58) =      6.68255  eV     1   --> G_2            
     e( 59 - 60) =      6.82857  eV     2   -->   2 G_2            
     e( 61 - 62) =      7.17842  eV     2   -->   2 G_2            
     e( 63 - 64) =      7.68194  eV     2   -->   2 G_2            
     e( 65 - 66) =      7.76382  eV     2   -->   2 G_2            
     e( 67 - 68) =      8.00362  eV     2   -->   2 G_2            
     e( 69 - 70) =      8.14975  eV     2   -->   2 G_2            
     e( 71 - 72) =      8.59801  eV     2   -->   2 G_2            
     e( 73 - 73) =      8.97532  eV     1   --> G_2            
     e( 74 - 74) =      8.97544  eV     1   --> G_2            
     e( 75 - 75) =      9.22400  eV     1   --> G_2            
     e( 76 - 76) =      9.22444  eV     1   --> G_2            
     e( 77 - 77) =      9.32855  eV     1   --> G_2            
     e( 78 - 78) =      9.32897  eV     1   --> G_2            
     e( 79 - 79) =      9.79708  eV     1   --> G_2            
     e( 80 - 80) =      9.79794  eV     1   --> G_2            
     e( 81 - 81) =      9.86336  eV     1   --> G_2            
     e( 82 - 82) =      9.86417  eV     1   --> G_2            
     e( 83 - 84) =     10.81258  eV     2   -->   2 G_2            
     e( 85 - 86) =     10.88058  eV     2   -->   2 G_2            
     e( 87 - 88) =     11.62967  eV     2   -->   2 G_2            
     e( 89 - 89) =     11.98393  eV     1   --> G_2            
     e( 90 - 90) =     11.98406  eV     1   --> G_2            
     e( 91 - 91) =     12.23335  eV     1   --> G_2            
     e( 92 - 92) =     12.23361  eV     1   --> G_2            
     e( 93 - 94) =     12.40424  eV     2   -->   2 G_2            
     e( 95 - 96) =     12.54838  eV     2   -->   2 G_2            
     e( 97 - 98) =     13.01459  eV     2   -->   2 G_2            
     e( 99 -100) =     13.43295  eV     2   -->   2 G_2            

 **************************************************************************

 **************************************************************************

                    xk=(   0.04286,   0.02474,   0.00000  )

     Band symmetry, C_1 (1)     double point group:

     e(  1 -  2) =    -12.59380  eV     2   -->   2 G_2            
     e(  3 -  4) =    -12.06489  eV     2   -->   2 G_2            
     e(  5 -  6) =    -10.98670  eV     2   -->   2 G_2            
     e(  7 -  8) =     -8.26309  eV     2   -->   2 G_2            
     e(  9 - 10) =     -6.92028  eV     2   -->   2 G_2            
     e( 11 - 11) =     -2.53824  eV     1   --> G_2            
     e( 12 - 12) =     -2.53812  eV     1   --> G_2            
     e( 13 - 13) =     -2.25270  eV     1   --> G_2            
     e( 14 - 14) =     -2.25245  eV     1   --> G_2            
     e( 15 - 15) =     -1.78911  eV     1   --> G_2            
     e( 16 - 16) =     -1.78817  eV     1   --> G_2            
     e( 17 - 17) =     -1.72555  eV     1   --> G_2            
     e( 18 - 18) =     -1.72407  eV     1   --> G_2            
     e( 19 - 19) =     -1.53297  eV     1   --> G_2            
     e( 20 - 20) =     -1.53201  eV     1   --> G_2            
     e( 21 - 21) =     -1.29309  eV     1   --> G_2            
     e( 22 - 22) =     -1.29114  eV     1   --> G_2            
     e( 23 - 23) =     -1.02828  eV     1   --> G_2            
     e( 24 - 24) =     -1.02723  eV     1   --> G_2            
     e( 25 - 25) =     -0.83380  eV     1   --> G_2            
     e( 26 - 26) =     -0.83281  eV     1   --> G_2            
     e( 27 - 27) =     -0.51716  eV     1   --> G_2            
     e( 28 - 28) =     -0.51653  eV     1   --> G_2            
     e( 29 - 29) =      0.20725  eV     1   --> G_2            
     e( 30 - 30) =      0.20801  eV     1   --> G_2            
     e( 31 - 31) =      0.65714  eV     1   --> G_2            
     e( 32 - 32) =      0.65771  eV     1   --> G_2            
     e( 33 - 33) =      0.97125  eV     1   --> G_2            
     e( 34 - 34) =      0.97191  eV     1   --> G_2            
     e( 35 - 35) =      1.39267  eV     1   --> G_2            
     e( 36 - 36) =      1.39399  eV     1   --> G_2            
     e( 37 - 37) =      2.04654  eV     1   --> G_2            
     e( 38 - 38) =      2.04720  eV     1   --> G_2            
     e( 39 - 39) =      2.17729  eV     1   --> G_2            
     e( 40 - 40) =      2.17745  eV     1   --> G_2            
     e( 41 - 42) =      4.21554  eV     2   -->   2 G_2            
     e( 43 - 44) =      4.38519  eV     2   -->   2 G_2            
     e( 45 - 46) =      5.00238  eV     2   -->   2 G_2            
     e( 47 - 48) =      5.35622  eV     2   -->   2 G_2            
     e( 49 - 50) =      5.55673  eV     2   -->   2 G_2            
     e( 51 - 52) =      5.88057  eV     2   -->   2 G_2            
     e( 53 - 54) =      6.45745  eV     2   -->   2 G_2            
     e( 55 - 55) =      6.53463  eV     1   --> G_2            
     e( 56 - 56) =      6.53484  eV     1   --> G_2            
     e( 57 - 57) =      6.67514  eV     1   --> G_2            
     e( 58 - 58) =      6.67540  eV     1   --> G_2            
     e( 59 - 60) =      6.84873  eV     2   -->   2 G_2            
     e( 61 - 62) =      7.17156  eV     2   -->   2 G_2            
     e( 63 - 64) =      7.71351  eV     2   -->   2 G_2            
     e( 65 - 65) =      7.78375  eV     1   --> G_2            
     e( 66 - 66) =      7.78387  eV     1   --> G_2            
     e( 67 - 68) =      8.00049  eV     2   -->   2 G_2            
     e( 69 - 70) =      8.17465  eV     2   -->   2 G_2            
     e( 71 - 72) =      8.62108  eV     2   -->   2 G_2            
     e( 73 - 73) =      8.95796  eV     1   --> G_2            
     e( 74 - 74) =      8.95809  eV     1   --> G_2            
     e( 75 - 75) =      9.20221  eV     1   --> G_2            
     e( 76 - 76) =      9.20257  eV     1   --> G_2            
     e( 77 - 77) =      9.30532  eV     1   --> G_2            
     e( 78 - 78) =      9.30565  eV     1   --> G_2            
     e( 79 - 79) =      9.85410  eV     1   --> G_2            
     e( 80 - 80) =      9.85507  eV     1   --> G_2            
     e( 81 - 81) =      9.91405  eV     1   --> G_2            
     e( 82 - 82) =      9.91498  eV     1   --> G_2            
     e( 83 - 84) =     10.80384  eV     2   -->   2 G_2            
     e( 85 - 86) =     10.89131  eV     2   -->   2 G_2            
     e( 87 - 88) =     11.58006  eV     2   -->   2 G_2            
     e( 89 - 89) =     11.94428  eV     1   --> G_2            
     e( 90 - 90) =     11.94439  eV     1   --> G_2            
     e( 91 - 91) =     12.24486  eV     1   --> G_2            
     e( 92 - 92) =     12.24506  eV     1   --> G_2            
     e( 93 - 94) =     12.44382  eV     2   -->   2 G_2            
     e( 95 - 96) =     12.58740  eV     2   -->   2 G_2            
     e( 97 - 98) =     12.95876  eV     2   -->   2 G_2            
     e( 99 -100) =     13.44223  eV     2   -->   2 G_2            

 **************************************************************************

 **************************************************************************

                    xk=(   0.05000,   0.02887,   0.00000  )

     Band symmetry, C_1 (1)     double point group:

     e(  1 -  2) =    -12.58835  eV     2   -->   2 G_2            
     e(  3 -  4) =    -12.05994  eV     2   -->   2 G_2            
     e(  5 -  6) =    -10.98379  eV     2   -->   2 G_2            
     e(  7 -  8) =     -8.26433  eV     2   -->   2 G_2            
     e(  9 - 10) =     -6.93077  eV     2   -->   2 G_2            
     e( 11 - 11) =     -2.54959  eV     1   --> G_2            
     e( 12 - 12) =     -2.54945  eV     1   --> G_2            
     e( 13 - 13) =     -2.30470  eV     1   --> G_2            
     e( 14 - 14) =     -2.30448  eV     1   --> G_2            
     e( 15 - 15) =     -1.80632  eV     1   --> G_2            
     e( 16 - 16) =     -1.80529  eV     1   --> G_2            
     e( 17 - 17) =     -1.76628  eV     1   --> G_2            
     e( 18 - 18) =     -1.76554  eV     1   --> G_2            
     e( 19 - 19) =     -1.54397  eV     1   --> G_2            
     e( 20 - 20) =     -1.54299  eV     1   --> G_2            
     e( 21 - 21) =     -1.30027  eV     1   --> G_2            
     e( 22 - 22) =     -1.29848  eV     1   --> G_2            
     e( 23 - 23) =     -1.02447  eV     1   --> G_2            
     e( 24 - 24) =     -1.02342  eV     1   --> G_2            
     e( 25 - 25) =     -0.82426  eV     1   --> G_2            
     e( 26 - 26) =     -0.82330  eV     1   --> G_2            
     e( 27 - 27) =     -0.48395  eV     1   --> G_2            
     e( 28 - 28) =     -0.48332  eV     1   --> G_2            
     e( 29 - 29) =      0.24767  eV     1   --> G_2            
     e( 30 - 30) =      0.24848  eV     1   --> G_2            
     e( 31 - 31) =      0.65239  eV     1   --> G_2            
     e( 32 - 32) =      0.65295  eV     1   --> G_2            
     e( 33 - 33) =      0.97053  eV     1   --> G_2            
     e( 34 - 34) =      0.97104  eV     1   --> G_2            
     e( 35 - 35) =      1.42000  eV     1   --> G_2            
     e( 36 - 36) =      1.42133  eV     1   --> G_2            
     e( 37 - 37) =      2.06132  eV     1   --> G_2            
     e( 38 - 38) =      2.06207  eV     1   --> G_2            
     e( 39 - 39) =      2.18539  eV     1   --> G_2            
     e( 40 - 40) =      2.18557  eV     1   --> G_2            
     e( 41 - 42) =      4.22504  eV     2   -->   2 G_2            
     e( 43 - 44) =      4.38654  eV     2   -->   2 G_2            
     e( 45 - 46) =      5.00203  eV     2   -->   2 G_2            
     e( 47 - 48) =      5.33150  eV     2   -->   2 G_2            
     e( 49 - 50) =      5.55699  eV     2   -->   2 G_2            
     e( 51 - 52) =      5.88867  eV     2   -->   2 G_2            
     e( 53 - 54) =      6.46189  eV     2   -->   2 G_2            
     e( 55 - 55) =      6.52505  eV     1   --> G_2            
     e( 56 - 56) =      6.52523  eV     1   --> G_2            
     e( 57 - 57) =      6.67123  eV     1   --> G_2            
     e( 58 - 58) =      6.67147  eV     1   --> G_2            
     e( 59 - 60) =      6.87235  eV     2   -->   2 G_2            
     e( 61 - 62) =      7.16558  eV     2   -->   2 G_2            
     e( 63 - 64) =      7.73525  eV     2   -->   2 G_2            
     e( 65 - 65) =      7.80673  eV     1   --> G_2            
     e( 66 - 66) =      7.80686  eV     1   --> G_2            
     e( 67 - 68) =      8.00655  eV     2   -->   2 G_2            
     e( 69 - 70) =      8.20421  eV     2   -->   2 G_2            
     e( 71 - 72) =      8.64920  eV     2   -->   2 G_2            
     e( 73 - 73) =      8.93253  eV     1   --> G_2            
     e( 74 - 74) =      8.93268  eV     1   --> G_2            
     e( 75 - 75) =      9.18860  eV     1   --> G_2            
     e( 76 - 76) =      9.18889  eV     1   --> G_2            
     e( 77 - 77) =      9.28665  eV     1   --> G_2            
     e( 78 - 78) =      9.28690  eV     1   --> G_2            
     e( 79 - 79) =      9.90850  eV     1   --> G_2            
     e( 80 - 80) =      9.90949  eV     1   --> G_2            
     e( 81 - 81) =      9.96851  eV     1   --> G_2            
     e( 82 - 82) =      9.96945  eV     1   --> G_2            
     e( 83 - 84) =     10.79395  eV     2   -->   2 G_2            
     e( 85 - 86) =     10.90366  eV     2   -->   2 G_2            
     e( 87 - 88) =     11.53290  eV     2   -->   2 G_2            
     e( 89 - 90) =     11.90527  eV     2   -->   2 G_2            
     e( 91 - 91) =     12.25257  eV     1   --> G_2            
     e( 92 - 92) =     12.25273  eV     1   --> G_2            
     e( 93 - 94) =     12.48485  eV     2   -->   2 G_2            
     e( 95 - 95) =     12.61959  eV     1   --> G_2            
     e( 96 - 96) =     12.61969  eV     1   --> G_2            
     e( 97 - 98) =     12.89685  eV     2   -->   2 G_2            
     e( 99 -100) =     13.46864  eV     2   -->   2 G_2            

 **************************************************************************

 **************************************************************************

                    xk=(   0.05714,   0.03299,   0.00000  )

     Band symmetry, C_1 (1)     double point group:

     e(  1 -  2) =    -12.58206  eV     2   -->   2 G_2            
     e(  3 -  4) =    -12.05424  eV     2   -->   2 G_2            
     e(  5 -  6) =    -10.98046  eV     2   -->   2 G_2            
     e(  7 -  8) =     -8.26580  eV     2   -->   2 G_2            
     e(  9 - 10) =     -6.94287  eV     2   -->   2 G_2            
     e( 11 - 11) =     -2.56340  eV     1   --> G_2            
     e( 12 - 12) =     -2.56325  eV     1   --> G_2            
     e( 13 - 13) =     -2.35946  eV     1   --> G_2            
     e( 14 - 14) =     -2.35928  eV     1   --> G_2            
     e( 15 - 15) =     -1.84097  eV     1   --> G_2            
     e( 16 - 16) =     -1.83939  eV     1   --> G_2            
     e( 17 - 17) =     -1.79335  eV     1   --> G_2            
     e( 18 - 18) =     -1.79287  eV     1   --> G_2            
     e( 19 - 19) =     -1.55720  eV     1   --> G_2            
     e( 20 - 20) =     -1.55625  eV     1   --> G_2            
     e( 21 - 21) =     -1.31428  eV     1   --> G_2            
     e( 22 - 22) =     -1.31271  eV     1   --> G_2            
     e( 23 - 23) =     -1.02383  eV     1   --> G_2            
     e( 24 - 24) =     -1.02285  eV     1   --> G_2            
     e( 25 - 25) =     -0.80472  eV     1   --> G_2            
     e( 26 - 26) =     -0.80384  eV     1   --> G_2            
     e( 27 - 27) =     -0.45044  eV     1   --> G_2            
     e( 28 - 28) =     -0.44982  eV     1   --> G_2            
     e( 29 - 29) =      0.28291  eV     1   --> G_2            
     e( 30 - 30) =      0.28373  eV     1   --> G_2            
     e( 31 - 31) =      0.65402  eV     1   --> G_2            
     e( 32 - 32) =      0.65458  eV     1   --> G_2            
     e( 33 - 33) =      0.97628  eV     1   --> G_2            
     e( 34 - 34) =      0.97663  eV     1   --> G_2            
     e( 35 - 35) =      1.44565  eV     1   --> G_2            
     e( 36 - 36) =      1.44697  eV     1   --> G_2            
     e( 37 - 37) =      2.07261  eV     1   --> G_2            
     e( 38 - 38) =      2.07344  eV     1   --> G_2            
     e( 39 - 39) =      2.20029  eV     1   --> G_2            
     e( 40 - 40) =      2.20056  eV     1   --> G_2            
     e( 41 - 42) =      4.23584  eV     2   -->   2 G_2            
     e( 43 - 44) =      4.38795  eV     2   -->   2 G_2            
     e( 45 - 46) =      5.00006  eV     2   -->   2 G_2            
     e( 47 - 48) =      5.30646  eV     2   -->   2 G_2            
     e( 49 - 50) =      5.55758  eV     2   -->   2 G_2            
     e( 51 - 52) =      5.89878  eV     2   -->   2 G_2            
     e( 53 - 54) =      6.44651  eV     2   -->   2 G_2            
     e( 55 - 55) =      6.53322  eV     1   --> G_2            
     e( 56 - 56) =      6.53336  eV     1   --> G_2            
     e( 57 - 57) =      6.67027  eV     1   --> G_2            
     e( 58 - 58) =      6.67050  eV     1   --> G_2            
     e( 59 - 60) =      6.89872  eV     2   -->   2 G_2            
     e( 61 - 62) =      7.16091  eV     2   -->   2 G_2            
     e( 63 - 64) =      7.74292  eV     2   -->   2 G_2            
     e( 65 - 65) =      7.83267  eV     1   --> G_2            
     e( 66 - 66) =      7.83280  eV     1   --> G_2            
     e( 67 - 68) =      8.02515  eV     2   -->   2 G_2            
     e( 69 - 70) =      8.23807  eV     2   -->   2 G_2            
     e( 71 - 72) =      8.68243  eV     2   -->   2 G_2            
     e( 73 - 73) =      8.90147  eV     1   --> G_2            
     e( 74 - 74) =      8.90163  eV     1   --> G_2            
     e( 75 - 75) =      9.17991  eV     1   --> G_2            
     e( 76 - 76) =      9.18014  eV     1   --> G_2            
     e( 77 - 77) =      9.27420  eV     1   --> G_2            
     e( 78 - 78) =      9.27438  eV     1   --> G_2            
     e( 79 - 79) =      9.96076  eV     1   --> G_2            
     e( 80 - 80) =      9.96168  eV     1   --> G_2            
     e( 81 - 81) =     10.02470  eV     1   --> G_2            
     e( 82 - 82) =     10.02556  eV     1   --> G_2            
     e( 83 - 84) =     10.78306  eV     2   -->   2 G_2            
     e( 85 - 86) =     10.91761  eV     2   -->   2 G_2            
     e( 87 - 88) =     11.48954  eV     2   -->   2 G_2            
     e( 89 - 90) =     11.86747  eV     2   -->   2 G_2            
     e( 91 - 91) =     12.25830  eV     1   --> G_2            
     e( 92 - 92) =     12.25844  eV     1   --> G_2            
     e( 93 - 93) =     12.52046  eV     1   --> G_2            
     e( 94 - 94) =     12.52062  eV     1   --> G_2            
     e( 95 - 95) =     12.63245  eV     1   --> G_2            
     e( 96 - 96) =     12.63263  eV     1   --> G_2            
     e( 97 - 98) =     12.85322  eV     2   -->   2 G_2            
     e( 99 -100) =     13.49739  eV     2   -->   2 G_2            

 **************************************************************************

 **************************************************************************

                    xk=(   0.06429,   0.03712,   0.00000  )

     Band symmetry, C_1 (1)     double point group:

     e(  1 -  2) =    -12.57493  eV     2   -->   2 G_2            
     e(  3 -  4) =    -12.04779  eV     2   -->   2 G_2            
     e(  5 -  6) =    -10.97669  eV     2   -->   2 G_2            
     e(  7 -  8) =     -8.26752  eV     2   -->   2 G_2            
     e(  9 - 10) =     -6.95655  eV     2   -->   2 G_2            
     e( 11 - 11) =     -2.58044  eV     1   --> G_2            
     e( 12 - 12) =     -2.58028  eV     1   --> G_2            
     e( 13 - 13) =     -2.41550  eV     1   --> G_2            
     e( 14 - 14) =     -2.41534  eV     1   --> G_2            
     e( 15 - 15) =     -1.88604  eV     1   --> G_2            
     e( 16 - 16) =     -1.88428  eV     1   --> G_2            
     e( 17 - 17) =     -1.81275  eV     1   --> G_2            
     e( 18 - 18) =     -1.81195  eV     1   --> G_2            
     e( 19 - 19) =     -1.57335  eV     1   --> G_2            
     e( 20 - 20) =     -1.57243  eV     1   --> G_2            
     e( 21 - 21) =     -1.33396  eV     1   --> G_2            
     e( 22 - 22) =     -1.33267  eV     1   --> G_2            
     e( 23 - 23) =     -1.02333  eV     1   --> G_2            
     e( 24 - 24) =     -1.02243  eV     1   --> G_2            
     e( 25 - 25) =     -0.77827  eV     1   --> G_2            
     e( 26 - 26) =     -0.77747  eV     1   --> G_2            
     e( 27 - 27) =     -0.41882  eV     1   --> G_2            
     e( 28 - 28) =     -0.41825  eV     1   --> G_2            
     e( 29 - 29) =      0.31065  eV     1   --> G_2            
     e( 30 - 30) =      0.31143  eV     1   --> G_2            
     e( 31 - 31) =      0.66526  eV     1   --> G_2            
     e( 32 - 32) =      0.66585  eV     1   --> G_2            
     e( 33 - 33) =      0.98805  eV     1   --> G_2            
     e( 34 - 34) =      0.98826  eV     1   --> G_2            
     e( 35 - 35) =      1.46959  eV     1   --> G_2            
     e( 36 - 36) =      1.47088  eV     1   --> G_2            
     e( 37 - 37) =      2.07977  eV     1   --> G_2            
     e( 38 - 38) =      2.08068  eV     1   --> G_2            
     e( 39 - 39) =      2.22252  eV     1   --> G_2            
     e( 40 - 40) =      2.22289  eV     1   --> G_2            
     e( 41 - 42) =      4.24789  eV     2   -->   2 G_2            
     e( 43 - 44) =      4.38935  eV     2   -->   2 G_2            
     e( 45 - 46) =      4.99559  eV     2   -->   2 G_2            
     e( 47 - 48) =      5.28272  eV     2   -->   2 G_2            
     e( 49 - 50) =      5.55847  eV     2   -->   2 G_2            
     e( 51 - 52) =      5.91089  eV     2   -->   2 G_2            
     e( 53 - 54) =      6.42074  eV     2   -->   2 G_2            
     e( 55 - 55) =      6.55078  eV     1   --> G_2            
     e( 56 - 56) =      6.55090  eV     1   --> G_2            
     e( 57 - 57) =      6.67146  eV     1   --> G_2            
     e( 58 - 58) =      6.67167  eV     1   --> G_2            
     e( 59 - 60) =      6.92732  eV     2   -->   2 G_2            
     e( 61 - 62) =      7.15799  eV     2   -->   2 G_2            
     e( 63 - 64) =      7.73760  eV     2   -->   2 G_2            
     e( 65 - 65) =      7.86026  eV     1   --> G_2            
     e( 66 - 66) =      7.86036  eV     1   --> G_2            
     e( 67 - 68) =      8.05604  eV     2   -->   2 G_2            
     e( 69 - 70) =      8.27550  eV     2   -->   2 G_2            
     e( 71 - 71) =      8.72053  eV     1   --> G_2            
     e( 72 - 72) =      8.72067  eV     1   --> G_2            
     e( 73 - 73) =      8.86819  eV     1   --> G_2            
     e( 74 - 74) =      8.86838  eV     1   --> G_2            
     e( 75 - 75) =      9.17277  eV     1   --> G_2            
     e( 76 - 76) =      9.17294  eV     1   --> G_2            
     e( 77 - 77) =      9.26902  eV     1   --> G_2            
     e( 78 - 78) =      9.26915  eV     1   --> G_2            
     e( 79 - 79) =     10.01139  eV     1   --> G_2            
     e( 80 - 80) =     10.01222  eV     1   --> G_2            
     e( 81 - 81) =     10.08056  eV     1   --> G_2            
     e( 82 - 82) =     10.08133  eV     1   --> G_2            
     e( 83 - 84) =     10.77151  eV     2   -->   2 G_2            
     e( 85 - 86) =     10.93305  eV     2   -->   2 G_2            
     e( 87 - 88) =     11.45115  eV     2   -->   2 G_2            
     e( 89 - 90) =     11.83132  eV     2   -->   2 G_2            
     e( 91 - 91) =     12.26154  eV     1   --> G_2            
     e( 92 - 92) =     12.26167  eV     1   --> G_2            
     e( 93 - 93) =     12.53124  eV     1   --> G_2            
     e( 94 - 94) =     12.53144  eV     1   --> G_2            
     e( 95 - 95) =     12.62741  eV     1   --> G_2            
     e( 96 - 96) =     12.62764  eV     1   --> G_2            
     e( 97 - 98) =     12.85029  eV     2   -->   2 G_2            
     e( 99 -100) =     13.50544  eV     2   -->   2 G_2            

 **************************************************************************

 **************************************************************************

                    xk=(   0.07143,   0.04124,   0.00000  )

     Band symmetry, C_1 (1)     double point group:

     e(  1 -  2) =    -12.56698  eV     2   -->   2 G_2            
     e(  3 -  4) =    -12.04059  eV     2   -->   2 G_2            
     e(  5 -  6) =    -10.97251  eV     2   -->   2 G_2            
     e(  7 -  8) =     -8.26949  eV     2   -->   2 G_2            
     e(  9 - 10) =     -6.97182  eV     2   -->   2 G_2            
     e( 11 - 11) =     -2.60241  eV     1   --> G_2            
     e( 12 - 12) =     -2.60225  eV     1   --> G_2            
     e( 13 - 13) =     -2.47052  eV     1   --> G_2            
     e( 14 - 14) =     -2.47034  eV     1   --> G_2            
     e( 15 - 15) =     -1.93376  eV     1   --> G_2            
     e( 16 - 16) =     -1.93198  eV     1   --> G_2            
     e( 17 - 17) =     -1.83141  eV     1   --> G_2            
     e( 18 - 18) =     -1.83053  eV     1   --> G_2            
     e( 19 - 19) =     -1.59300  eV     1   --> G_2            
     e( 20 - 20) =     -1.59212  eV     1   --> G_2            
     e( 21 - 21) =     -1.35747  eV     1   --> G_2            
     e( 22 - 22) =     -1.35648  eV     1   --> G_2            
     e( 23 - 23) =     -1.02115  eV     1   --> G_2            
     e( 24 - 24) =     -1.02034  eV     1   --> G_2            
     e( 25 - 25) =     -0.74771  eV     1   --> G_2            
     e( 26 - 26) =     -0.74696  eV     1   --> G_2            
     e( 27 - 27) =     -0.39135  eV     1   --> G_2            
     e( 28 - 28) =     -0.39083  eV     1   --> G_2            
     e( 29 - 29) =      0.33083  eV     1   --> G_2            
     e( 30 - 30) =      0.33152  eV     1   --> G_2            
     e( 31 - 31) =      0.68738  eV     1   --> G_2            
     e( 32 - 32) =      0.68806  eV     1   --> G_2            
     e( 33 - 33) =      1.00526  eV     1   --> G_2            
     e( 34 - 34) =      1.00542  eV     1   --> G_2            
     e( 35 - 35) =      1.49199  eV     1   --> G_2            
     e( 36 - 36) =      1.49323  eV     1   --> G_2            
     e( 37 - 37) =      2.08393  eV     1   --> G_2            
     e( 38 - 38) =      2.08489  eV     1   --> G_2            
     e( 39 - 39) =      2.25085  eV     1   --> G_2            
     e( 40 - 40) =      2.25129  eV     1   --> G_2            
     e( 41 - 42) =      4.26112  eV     2   -->   2 G_2            
     e( 43 - 44) =      4.39062  eV     2   -->   2 G_2            
     e( 45 - 46) =      4.98764  eV     2   -->   2 G_2            
     e( 47 - 48) =      5.26195  eV     2   -->   2 G_2            
     e( 49 - 50) =      5.55962  eV     2   -->   2 G_2            
     e( 51 - 52) =      5.92494  eV     2   -->   2 G_2            
     e( 53 - 54) =      6.39259  eV     2   -->   2 G_2            
     e( 55 - 55) =      6.57066  eV     1   --> G_2            
     e( 56 - 56) =      6.57077  eV     1   --> G_2            
     e( 57 - 57) =      6.67385  eV     1   --> G_2            
     e( 58 - 58) =      6.67405  eV     1   --> G_2            
     e( 59 - 60) =      6.95777  eV     2   -->   2 G_2            
     e( 61 - 62) =      7.15725  eV     2   -->   2 G_2            
     e( 63 - 64) =      7.72342  eV     2   -->   2 G_2            
     e( 65 - 66) =      7.88833  eV     2   -->   2 G_2            
     e( 67 - 68) =      8.09614  eV     2   -->   2 G_2            
     e( 69 - 70) =      8.31528  eV     2   -->   2 G_2            
     e( 71 - 71) =      8.76190  eV     1   --> G_2            
     e( 72 - 72) =      8.76216  eV     1   --> G_2            
     e( 73 - 73) =      8.83709  eV     1   --> G_2            
     e( 74 - 74) =      8.83738  eV     1   --> G_2            
     e( 75 - 75) =      9.16596  eV     1   --> G_2            
     e( 76 - 76) =      9.16609  eV     1   --> G_2            
     e( 77 - 77) =      9.27053  eV     1   --> G_2            
     e( 78 - 78) =      9.27063  eV     1   --> G_2            
     e( 79 - 79) =     10.06053  eV     1   --> G_2            
     e( 80 - 80) =     10.06127  eV     1   --> G_2            
     e( 81 - 81) =     10.13442  eV     1   --> G_2            
     e( 82 - 82) =     10.13510  eV     1   --> G_2            
     e( 83 - 84) =     10.75987  eV     2   -->   2 G_2            
     e( 85 - 86) =     10.94974  eV     2   -->   2 G_2            
     e( 87 - 88) =     11.41886  eV     2   -->   2 G_2            
     e( 89 - 90) =     11.79720  eV     2   -->   2 G_2            
     e( 91 - 91) =     12.25715  eV     1   --> G_2            
     e( 92 - 92) =     12.25729  eV     1   --> G_2            
     e( 93 - 94) =     12.49662  eV     2   -->   2 G_2            
     e( 95 - 95) =     12.64042  eV     1   --> G_2            
     e( 96 - 96) =     12.64056  eV     1   --> G_2            
     e( 97 - 98) =     12.87944  eV     2   -->   2 G_2            
     e( 99 -100) =     13.46058  eV     2   -->   2 G_2            

 **************************************************************************

 **************************************************************************

                    xk=(   0.07857,   0.04536,   0.00000  )

     Band symmetry, C_1 (1)     double point group:

     e(  1 -  2) =    -12.55819  eV     2   -->   2 G_2            
     e(  3 -  4) =    -12.03264  eV     2   -->   2 G_2            
     e(  5 -  6) =    -10.96791  eV     2   -->   2 G_2            
     e(  7 -  8) =     -8.27174  eV     2   -->   2 G_2            
     e(  9 - 10) =     -6.98866  eV     2   -->   2 G_2            
     e( 11 - 11) =     -2.63266  eV     1   --> G_2            
     e( 12 - 12) =     -2.63247  eV     1   --> G_2            
     e( 13 - 13) =     -2.52063  eV     1   --> G_2            
     e( 14 - 14) =     -2.52038  eV     1   --> G_2            
     e( 15 - 15) =     -1.98235  eV     1   --> G_2            
     e( 16 - 16) =     -1.98060  eV     1   --> G_2            
     e( 17 - 17) =     -1.85084  eV     1   --> G_2            
     e( 18 - 18) =     -1.84996  eV     1   --> G_2            
     e( 19 - 19) =     -1.61656  eV     1   --> G_2            
     e( 20 - 20) =     -1.61572  eV     1   --> G_2            
     e( 21 - 21) =     -1.38272  eV     1   --> G_2            
     e( 22 - 22) =     -1.38200  eV     1   --> G_2            
     e( 23 - 23) =     -1.01691  eV     1   --> G_2            
     e( 24 - 24) =     -1.01618  eV     1   --> G_2            
     e( 25 - 25) =     -0.71495  eV     1   --> G_2            
     e( 26 - 26) =     -0.71423  eV     1   --> G_2            
     e( 27 - 27) =     -0.37016  eV     1   --> G_2            
     e( 28 - 28) =     -0.36969  eV     1   --> G_2            
     e( 29 - 29) =      0.34610  eV     1   --> G_2            
     e( 30 - 30) =      0.34667  eV     1   --> G_2            
     e( 31 - 31) =      0.71900  eV     1   --> G_2            
     e( 32 - 32) =      0.71978  eV     1   --> G_2            
     e( 33 - 33) =      1.02731  eV     1   --> G_2            
     e( 34 - 34) =      1.02756  eV     1   --> G_2            
     e( 35 - 35) =      1.51320  eV     1   --> G_2            
     e( 36 - 36) =      1.51438  eV     1   --> G_2            
     e( 37 - 37) =      2.08680  eV     1   --> G_2            
     e( 38 - 38) =      2.08780  eV     1   --> G_2            
     e( 39 - 39) =      2.28344  eV     1   --> G_2            
     e( 40 - 40) =      2.28392  eV     1   --> G_2            
     e( 41 - 42) =      4.27545  eV     2   -->   2 G_2            
     e( 43 - 44) =      4.39164  eV     2   -->   2 G_2            
     e( 45 - 46) =      4.97540  eV     2   -->   2 G_2            
     e( 47 - 48) =      5.24566  eV     2   -->   2 G_2            
     e( 49 - 50) =      5.56106  eV     2   -->   2 G_2            
     e( 51 - 52) =      5.94085  eV     2   -->   2 G_2            
     e( 53 - 54) =      6.36500  eV     2   -->   2 G_2            
     e( 55 - 55) =      6.59061  eV     1   --> G_2            
     e( 56 - 56) =      6.59072  eV     1   --> G_2            
     e( 57 - 57) =      6.67649  eV     1   --> G_2            
     e( 58 - 58) =      6.67669  eV     1   --> G_2            
     e( 59 - 60) =      6.98965  eV     2   -->   2 G_2            
     e( 61 - 62) =      7.15924  eV     2   -->   2 G_2            
     e( 63 - 64) =      7.70435  eV     2   -->   2 G_2            
     e( 65 - 66) =      7.91628  eV     2   -->   2 G_2            
     e( 67 - 68) =      8.14219  eV     2   -->   2 G_2            
     e( 69 - 70) =      8.35562  eV     2   -->   2 G_2            
     e( 71 - 71) =      8.78687  eV     1   --> G_2            
     e( 72 - 72) =      8.78727  eV     1   --> G_2            
     e( 73 - 73) =      8.83025  eV     1   --> G_2            
     e( 74 - 74) =      8.83068  eV     1   --> G_2            
     e( 75 - 75) =      9.16041  eV     1   --> G_2            
     e( 76 - 76) =      9.16051  eV     1   --> G_2            
     e( 77 - 78) =      9.27684  eV     2   -->   2 G_2            
     e( 79 - 79) =     10.10786  eV     1   --> G_2            
     e( 80 - 80) =     10.10852  eV     1   --> G_2            
     e( 81 - 81) =     10.18500  eV     1   --> G_2            
     e( 82 - 82) =     10.18559  eV     1   --> G_2            
     e( 83 - 84) =     10.74898  eV     2   -->   2 G_2            
     e( 85 - 86) =     10.96730  eV     2   -->   2 G_2            
     e( 87 - 88) =     11.39370  eV     2   -->   2 G_2            
     e( 89 - 90) =     11.76551  eV     2   -->   2 G_2            
     e( 91 - 91) =     12.23222  eV     1   --> G_2            
     e( 92 - 92) =     12.23237  eV     1   --> G_2            
     e( 93 - 94) =     12.45586  eV     2   -->   2 G_2            
     e( 95 - 96) =     12.66301  eV     2   -->   2 G_2            
     e( 97 - 98) =     12.92273  eV     2   -->   2 G_2            
     e( 99 -100) =     13.37486  eV     2   -->   2 G_2            

 **************************************************************************

 **************************************************************************

                    xk=(   0.08571,   0.04949,   0.00000  )

     Band symmetry, C_1 (1)     double point group:

     e(  1 -  2) =    -12.54858  eV     2   -->   2 G_2            
     e(  3 -  4) =    -12.02395  eV     2   -->   2 G_2            
     e(  5 -  6) =    -10.96291  eV     2   -->   2 G_2            
     e(  7 -  8) =     -8.27430  eV     2   -->   2 G_2            
     e(  9 - 10) =     -7.00705  eV     2   -->   2 G_2            
     e( 11 - 11) =     -2.67497  eV     1   --> G_2            
     e( 12 - 12) =     -2.67474  eV     1   --> G_2            
     e( 13 - 13) =     -2.56148  eV     1   --> G_2            
     e( 14 - 14) =     -2.56114  eV     1   --> G_2            
     e( 15 - 15) =     -2.03148  eV     1   --> G_2            
     e( 16 - 16) =     -2.02976  eV     1   --> G_2            
     e( 17 - 17) =     -1.87119  eV     1   --> G_2            
     e( 18 - 18) =     -1.87034  eV     1   --> G_2            
     e( 19 - 19) =     -1.64411  eV     1   --> G_2            
     e( 20 - 20) =     -1.64326  eV     1   --> G_2            
     e( 21 - 21) =     -1.40794  eV     1   --> G_2            
     e( 22 - 22) =     -1.40741  eV     1   --> G_2            
     e( 23 - 23) =     -1.01098  eV     1   --> G_2            
     e( 24 - 24) =     -1.01033  eV     1   --> G_2            
     e( 25 - 25) =     -0.68127  eV     1   --> G_2            
     e( 26 - 26) =     -0.68057  eV     1   --> G_2            
     e( 27 - 27) =     -0.35696  eV     1   --> G_2            
     e( 28 - 28) =     -0.35652  eV     1   --> G_2            
     e( 29 - 29) =      0.36044  eV     1   --> G_2            
     e( 30 - 30) =      0.36088  eV     1   --> G_2            
     e( 31 - 31) =      0.75713  eV     1   --> G_2            
     e( 32 - 32) =      0.75802  eV     1   --> G_2            
     e( 33 - 33) =      1.05362  eV     1   --> G_2            
     e( 34 - 34) =      1.05398  eV     1   --> G_2            
     e( 35 - 35) =      1.53373  eV     1   --> G_2            
     e( 36 - 36) =      1.53483  eV     1   --> G_2            
     e( 37 - 37) =      2.08991  eV     1   --> G_2            
     e( 38 - 38) =      2.09092  eV     1   --> G_2            
     e( 39 - 39) =      2.31868  eV     1   --> G_2            
     e( 40 - 40) =      2.31917  eV     1   --> G_2            
     e( 41 - 42) =      4.29078  eV     2   -->   2 G_2            
     e( 43 - 44) =      4.39223  eV     2   -->   2 G_2            
     e( 45 - 46) =      4.95861  eV     2   -->   2 G_2            
     e( 47 - 48) =      5.23476  eV     2   -->   2 G_2            
     e( 49 - 50) =      5.56283  eV     2   -->   2 G_2            
     e( 51 - 52) =      5.95856  eV     2   -->   2 G_2            
     e( 53 - 54) =      6.33936  eV     2   -->   2 G_2            
     e( 55 - 55) =      6.60971  eV     1   --> G_2            
     e( 56 - 56) =      6.60983  eV     1   --> G_2            
     e( 57 - 57) =      6.67862  eV     1   --> G_2            
     e( 58 - 58) =      6.67883  eV     1   --> G_2            
     e( 59 - 60) =      7.02241  eV     2   -->   2 G_2            
     e( 61 - 62) =      7.16461  eV     2   -->   2 G_2            
     e( 63 - 64) =      7.68333  eV     2   -->   2 G_2            
     e( 65 - 66) =      7.94371  eV     2   -->   2 G_2            
     e( 67 - 68) =      8.19184  eV     2   -->   2 G_2            
     e( 69 - 70) =      8.39411  eV     2   -->   2 G_2            
     e( 71 - 71) =      8.77026  eV     1   --> G_2            
     e( 72 - 72) =      8.77040  eV     1   --> G_2            
     e( 73 - 73) =      8.87561  eV     1   --> G_2            
     e( 74 - 74) =      8.87581  eV     1   --> G_2            
     e( 75 - 76) =      9.15774  eV     2   -->   2 G_2            
     e( 77 - 78) =      9.28610  eV     2   -->   2 G_2            
     e( 79 - 79) =     10.15262  eV     1   --> G_2            
     e( 80 - 80) =     10.15319  eV     1   --> G_2            
     e( 81 - 81) =     10.23130  eV     1   --> G_2            
     e( 82 - 82) =     10.23182  eV     1   --> G_2            
     e( 83 - 84) =     10.73992  eV     2   -->   2 G_2            
     e( 85 - 86) =     10.98526  eV     2   -->   2 G_2            
     e( 87 - 88) =     11.37652  eV     2   -->   2 G_2            
     e( 89 - 90) =     11.73669  eV     2   -->   2 G_2            
     e( 91 - 91) =     12.17530  eV     1   --> G_2            
     e( 92 - 92) =     12.17543  eV     1   --> G_2            
     e( 93 - 94) =     12.44188  eV     2   -->   2 G_2            
     e( 95 - 96) =     12.68177  eV     2   -->   2 G_2            
     e( 97 - 98) =     12.97073  eV     2   -->   2 G_2            
     e( 99 -100) =     13.27588  eV     2   -->   2 G_2            

 **************************************************************************

 **************************************************************************

                    xk=(   0.09286,   0.05361,   0.00000  )

     Band symmetry, C_1 (1)     double point group:

     e(  1 -  2) =    -12.53814  eV     2   -->   2 G_2            
     e(  3 -  4) =    -12.01453  eV     2   -->   2 G_2            
     e(  5 -  6) =    -10.95751  eV     2   -->   2 G_2            
     e(  7 -  8) =     -8.27717  eV     2   -->   2 G_2            
     e(  9 - 10) =     -7.02698  eV     2   -->   2 G_2            
     e( 11 - 11) =     -2.72890  eV     1   --> G_2            
     e( 12 - 12) =     -2.72867  eV     1   --> G_2            
     e( 13 - 13) =     -2.59298  eV     1   --> G_2            
     e( 14 - 14) =     -2.59258  eV     1   --> G_2            
     e( 15 - 15) =     -2.08112  eV     1   --> G_2            
     e( 16 - 16) =     -2.07945  eV     1   --> G_2            
     e( 17 - 17) =     -1.89236  eV     1   --> G_2            
     e( 18 - 18) =     -1.89157  eV     1   --> G_2            
     e( 19 - 19) =     -1.67524  eV     1   --> G_2            
     e( 20 - 20) =     -1.67438  eV     1   --> G_2            
     e( 21 - 21) =     -1.43199  eV     1   --> G_2            
     e( 22 - 22) =     -1.43148  eV     1   --> G_2            
     e( 23 - 23) =     -1.00399  eV     1   --> G_2            
     e( 24 - 24) =     -1.00341  eV     1   --> G_2            
     e( 25 - 25) =     -0.64769  eV     1   --> G_2            
     e( 26 - 26) =     -0.64699  eV     1   --> G_2            
     e( 27 - 27) =     -0.35267  eV     1   --> G_2            
     e( 28 - 28) =     -0.35222  eV     1   --> G_2            
     e( 29 - 29) =      0.37732  eV     1   --> G_2            
     e( 30 - 30) =      0.37765  eV     1   --> G_2            
     e( 31 - 31) =      0.79881  eV     1   --> G_2            
     e( 32 - 32) =      0.79978  eV     1   --> G_2            
     e( 33 - 33) =      1.08338  eV     1   --> G_2            
     e( 34 - 34) =      1.08385  eV     1   --> G_2            
     e( 35 - 35) =      1.55430  eV     1   --> G_2            
     e( 36 - 36) =      1.55529  eV     1   --> G_2            
     e( 37 - 37) =      2.09438  eV     1   --> G_2            
     e( 38 - 38) =      2.09539  eV     1   --> G_2            
     e( 39 - 39) =      2.35534  eV     1   --> G_2            
     e( 40 - 40) =      2.35582  eV     1   --> G_2            
     e( 41 - 42) =      4.30700  eV     2   -->   2 G_2            
     e( 43 - 44) =      4.39217  eV     2   -->   2 G_2            
     e( 45 - 46) =      4.93779  eV     2   -->   2 G_2            
     e( 47 - 48) =      5.22939  eV     2   -->   2 G_2            
     e( 49 - 50) =      5.56503  eV     2   -->   2 G_2            
     e( 51 - 52) =      5.97796  eV     2   -->   2 G_2            
     e( 53 - 54) =      6.31647  eV     2   -->   2 G_2            
     e( 55 - 55) =      6.62709  eV     1   --> G_2            
     e( 56 - 56) =      6.62723  eV     1   --> G_2            
     e( 57 - 57) =      6.67999  eV     1   --> G_2            
     e( 58 - 58) =      6.68021  eV     1   --> G_2            
     e( 59 - 60) =      7.05518  eV     2   -->   2 G_2            
     e( 61 - 62) =      7.17435  eV     2   -->   2 G_2            
     e( 63 - 64) =      7.66242  eV     2   -->   2 G_2            
     e( 65 - 66) =      7.97021  eV     2   -->   2 G_2            
     e( 67 - 68) =      8.24343  eV     2   -->   2 G_2            
     e( 69 - 70) =      8.42770  eV     2   -->   2 G_2            
     e( 71 - 72) =      8.75468  eV     2   -->   2 G_2            
     e( 73 - 73) =      8.93246  eV     1   --> G_2            
     e( 74 - 74) =      8.93264  eV     1   --> G_2            
     e( 75 - 76) =      9.15959  eV     2   -->   2 G_2            
     e( 77 - 78) =      9.29710  eV     2   -->   2 G_2            
     e( 79 - 79) =     10.19347  eV     1   --> G_2            
     e( 80 - 80) =     10.19396  eV     1   --> G_2            
     e( 81 - 81) =     10.27285  eV     1   --> G_2            
     e( 82 - 82) =     10.27327  eV     1   --> G_2            
     e( 83 - 84) =     10.73397  eV     2   -->   2 G_2            
     e( 85 - 86) =     11.00325  eV     2   -->   2 G_2            
     e( 87 - 88) =     11.36775  eV     2   -->   2 G_2            
     e( 89 - 90) =     11.71126  eV     2   -->   2 G_2            
     e( 91 - 91) =     12.09450  eV     1   --> G_2            
     e( 92 - 92) =     12.09462  eV     1   --> G_2            
     e( 93 - 94) =     12.45361  eV     2   -->   2 G_2            
     e( 95 - 96) =     12.69301  eV     2   -->   2 G_2            
     e( 97 - 98) =     13.01359  eV     2   -->   2 G_2            
     e( 99 -100) =     13.17918  eV     2   -->   2 G_2            

 **************************************************************************

 **************************************************************************

                    xk=(   0.10000,   0.05774,   0.00000  )

     Band symmetry, C_1 (1)     double point group:

     e(  1 -  2) =    -12.52688  eV     2   -->   2 G_2            
     e(  3 -  4) =    -12.00437  eV     2   -->   2 G_2            
     e(  5 -  6) =    -10.95173  eV     2   -->   2 G_2            
     e(  7 -  8) =     -8.28039  eV     2   -->   2 G_2            
     e(  9 - 10) =     -7.04843  eV     2   -->   2 G_2            
     e( 11 - 11) =     -2.79018  eV     1   --> G_2            
     e( 12 - 12) =     -2.78997  eV     1   --> G_2            
     e( 13 - 13) =     -2.61894  eV     1   --> G_2            
     e( 14 - 14) =     -2.61852  eV     1   --> G_2            
     e( 15 - 15) =     -2.13136  eV     1   --> G_2            
     e( 16 - 16) =     -2.12974  eV     1   --> G_2            
     e( 17 - 17) =     -1.91433  eV     1   --> G_2            
     e( 18 - 18) =     -1.91360  eV     1   --> G_2            
     e( 19 - 19) =     -1.70916  eV     1   --> G_2            
     e( 20 - 20) =     -1.70828  eV     1   --> G_2            
     e( 21 - 21) =     -1.45431  eV     1   --> G_2            
     e( 22 - 22) =     -1.45369  eV     1   --> G_2            
     e( 23 - 23) =     -0.99656  eV     1   --> G_2            
     e( 24 - 24) =     -0.99605  eV     1   --> G_2            
     e( 25 - 25) =     -0.61524  eV     1   --> G_2            
     e( 26 - 26) =     -0.61453  eV     1   --> G_2            
     e( 27 - 27) =     -0.35703  eV     1   --> G_2            
     e( 28 - 28) =     -0.35653  eV     1   --> G_2            
     e( 29 - 29) =      0.39871  eV     1   --> G_2            
     e( 30 - 30) =      0.39892  eV     1   --> G_2            
     e( 31 - 31) =      0.84191  eV     1   --> G_2            
     e( 32 - 32) =      0.84290  eV     1   --> G_2            
     e( 33 - 33) =      1.11546  eV     1   --> G_2            
     e( 34 - 34) =      1.11603  eV     1   --> G_2            
     e( 35 - 35) =      1.57575  eV     1   --> G_2            
     e( 36 - 36) =      1.57662  eV     1   --> G_2            
     e( 37 - 37) =      2.10105  eV     1   --> G_2            
     e( 38 - 38) =      2.10204  eV     1   --> G_2            
     e( 39 - 39) =      2.39252  eV     1   --> G_2            
     e( 40 - 40) =      2.39298  eV     1   --> G_2            
     e( 41 - 42) =      4.32390  eV     2   -->   2 G_2            
     e( 43 - 44) =      4.39127  eV     2   -->   2 G_2            
     e( 45 - 46) =      4.91413  eV     2   -->   2 G_2            
     e( 47 - 48) =      5.22904  eV     2   -->   2 G_2            
     e( 49 - 50) =      5.56779  eV     2   -->   2 G_2            
     e( 51 - 52) =      5.99900  eV     2   -->   2 G_2            
     e( 53 - 54) =      6.29685  eV     2   -->   2 G_2            
     e( 55 - 55) =      6.64071  eV     1   --> G_2            
     e( 56 - 56) =      6.64088  eV     1   --> G_2            
     e( 57 - 57) =      6.68187  eV     1   --> G_2            
     e( 58 - 58) =      6.68211  eV     1   --> G_2            
     e( 59 - 60) =      7.08661  eV     2   -->   2 G_2            
     e( 61 - 62) =      7.18972  eV     2   -->   2 G_2            
     e( 63 - 64) =      7.64307  eV     2   -->   2 G_2            
     e( 65 - 66) =      7.99541  eV     2   -->   2 G_2            
     e( 67 - 68) =      8.29548  eV     2   -->   2 G_2            
     e( 69 - 70) =      8.45312  eV     2   -->   2 G_2            
     e( 71 - 72) =      8.75048  eV     2   -->   2 G_2            
     e( 73 - 73) =      8.99288  eV     1   --> G_2            
     e( 74 - 74) =      8.99311  eV     1   --> G_2            
     e( 75 - 75) =      9.16770  eV     1   --> G_2            
     e( 76 - 76) =      9.16783  eV     1   --> G_2            
     e( 77 - 78) =      9.30938  eV     2   -->   2 G_2            
     e( 79 - 79) =     10.22840  eV     1   --> G_2            
     e( 80 - 80) =     10.22879  eV     1   --> G_2            
     e( 81 - 81) =     10.30993  eV     1   --> G_2            
     e( 82 - 82) =     10.31025  eV     1   --> G_2            
     e( 83 - 84) =     10.73238  eV     2   -->   2 G_2            
     e( 85 - 86) =     11.02113  eV     2   -->   2 G_2            
     e( 87 - 88) =     11.36708  eV     2   -->   2 G_2            
     e( 89 - 90) =     11.68976  eV     2   -->   2 G_2            
     e( 91 - 91) =     12.00343  eV     1   --> G_2            
     e( 92 - 92) =     12.00354  eV     1   --> G_2            
     e( 93 - 94) =     12.48058  eV     2   -->   2 G_2            
     e( 95 - 96) =     12.69587  eV     2   -->   2 G_2            
     e( 97 - 98) =     13.00631  eV     2   -->   2 G_2            
     e( 99 -100) =     13.12778  eV     2   -->   2 G_2            

 **************************************************************************

 **************************************************************************

                    xk=(   0.10714,   0.06186,   0.00000  )

     Band symmetry, C_1 (1)     double point group:

     e(  1 -  2) =    -12.51480  eV     2   -->   2 G_2            
     e(  3 -  4) =    -11.99349  eV     2   -->   2 G_2            
     e(  5 -  6) =    -10.94558  eV     2   -->   2 G_2            
     e(  7 -  8) =     -8.28399  eV     2   -->   2 G_2            
     e(  9 - 10) =     -7.07138  eV     2   -->   2 G_2            
     e( 11 - 11) =     -2.85536  eV     1   --> G_2            
     e( 12 - 12) =     -2.85516  eV     1   --> G_2            
     e( 13 - 13) =     -2.64241  eV     1   --> G_2            
     e( 14 - 14) =     -2.64197  eV     1   --> G_2            
     e( 15 - 15) =     -2.18227  eV     1   --> G_2            
     e( 16 - 16) =     -2.18070  eV     1   --> G_2            
     e( 17 - 17) =     -1.93714  eV     1   --> G_2            
     e( 18 - 18) =     -1.93650  eV     1   --> G_2            
     e( 19 - 19) =     -1.74479  eV     1   --> G_2            
     e( 20 - 20) =     -1.74391  eV     1   --> G_2            
     e( 21 - 21) =     -1.47478  eV     1   --> G_2            
     e( 22 - 22) =     -1.47401  eV     1   --> G_2            
     e( 23 - 23) =     -0.98924  eV     1   --> G_2            
     e( 24 - 24) =     -0.98878  eV     1   --> G_2            
     e( 25 - 25) =     -0.58533  eV     1   --> G_2            
     e( 26 - 26) =     -0.58462  eV     1   --> G_2            
     e( 27 - 27) =     -0.36831  eV     1   --> G_2            
     e( 28 - 28) =     -0.36773  eV     1   --> G_2            
     e( 29 - 29) =      0.42499  eV     1   --> G_2            
     e( 30 - 30) =      0.42512  eV     1   --> G_2            
     e( 31 - 31) =      0.88521  eV     1   --> G_2            
     e( 32 - 32) =      0.88619  eV     1   --> G_2            
     e( 33 - 33) =      1.14845  eV     1   --> G_2            
     e( 34 - 34) =      1.14910  eV     1   --> G_2            
     e( 35 - 35) =      1.59907  eV     1   --> G_2            
     e( 36 - 36) =      1.59981  eV     1   --> G_2            
     e( 37 - 37) =      2.11056  eV     1   --> G_2            
     e( 38 - 38) =      2.11152  eV     1   --> G_2            
     e( 39 - 39) =      2.42952  eV     1   --> G_2            
     e( 40 - 40) =      2.42996  eV     1   --> G_2            
     e( 41 - 41) =      4.34105  eV     1   --> G_2            
[...]
     e( 78 - 78) =      9.41920  eV     1   --> G_2            
     e( 79 - 79) =      9.69624  eV     1   --> G_2            
     e( 80 - 80) =      9.69655  eV     1   --> G_2            
     e( 81 - 81) =      9.88653  eV     1   --> G_2            
     e( 82 - 82) =      9.88680  eV     1   --> G_2            
     e( 83 - 84) =     10.82103  eV     2   -->   2 G_2            
     e( 85 - 86) =     10.88955  eV     2   -->   2 G_2            
     e( 87 - 88) =     11.65676  eV     2   -->   2 G_2            
     e( 89 - 90) =     11.99844  eV     2   -->   2 G_2            
     e( 91 - 91) =     12.20375  eV     1   --> G_2            
     e( 92 - 92) =     12.20400  eV     1   --> G_2            
     e( 93 - 93) =     12.30971  eV     1   --> G_2            
     e( 94 - 94) =     12.30981  eV     1   --> G_2            
     e( 95 - 96) =     12.58946  eV     2   -->   2 G_2            
     e( 97 - 98) =     13.08409  eV     2   -->   2 G_2            
     e( 99 -100) =     13.44735  eV     2   -->   2 G_2            

 **************************************************************************

 **************************************************************************

                    xk=(   0.01429,   0.02524,   0.00000  )

     Band symmetry, C_1 (1)     double point group:

     e(  1 -  2) =    -12.60374  eV     2   -->   2 G_2            
     e(  3 -  4) =    -12.07388  eV     2   -->   2 G_2            
     e(  5 -  6) =    -10.99195  eV     2   -->   2 G_2            
     e(  7 -  8) =     -8.26067  eV     2   -->   2 G_2            
     e(  9 - 10) =     -6.90039  eV     2   -->   2 G_2            
     e( 11 - 12) =     -2.51743  eV     2   -->   2 G_2            
     e( 13 - 13) =     -2.13366  eV     1   --> G_2            
     e( 14 - 14) =     -2.13337  eV     1   --> G_2            
     e( 15 - 15) =     -1.77692  eV     1   --> G_2            
     e( 16 - 16) =     -1.77636  eV     1   --> G_2            
     e( 17 - 17) =     -1.60327  eV     1   --> G_2            
     e( 18 - 18) =     -1.60187  eV     1   --> G_2            
     e( 19 - 19) =     -1.52271  eV     1   --> G_2            
     e( 20 - 20) =     -1.52182  eV     1   --> G_2            
     e( 21 - 21) =     -1.31786  eV     1   --> G_2            
     e( 22 - 22) =     -1.31597  eV     1   --> G_2            
     e( 23 - 23) =     -1.05634  eV     1   --> G_2            
     e( 24 - 24) =     -1.05583  eV     1   --> G_2            
     e( 25 - 25) =     -0.81628  eV     1   --> G_2            
     e( 26 - 26) =     -0.81584  eV     1   --> G_2            
     e( 27 - 27) =     -0.58462  eV     1   --> G_2            
     e( 28 - 28) =     -0.58411  eV     1   --> G_2            
     e( 29 - 29) =      0.09650  eV     1   --> G_2            
     e( 30 - 30) =      0.09699  eV     1   --> G_2            
     e( 31 - 31) =      0.69033  eV     1   --> G_2            
     e( 32 - 32) =      0.69063  eV     1   --> G_2            
     e( 33 - 33) =      0.99194  eV     1   --> G_2            
     e( 34 - 34) =      0.99272  eV     1   --> G_2            
     e( 35 - 35) =      1.31739  eV     1   --> G_2            
     e( 36 - 36) =      1.31836  eV     1   --> G_2            
     e( 37 - 37) =      2.00926  eV     1   --> G_2            
     e( 38 - 38) =      2.00954  eV     1   --> G_2            
     e( 39 - 40) =      2.17652  eV     2   -->   2 G_2            
     e( 41 - 42) =      4.19797  eV     2   -->   2 G_2            
     e( 43 - 44) =      4.38284  eV     2   -->   2 G_2            
     e( 45 - 46) =      5.00008  eV     2   -->   2 G_2            
     e( 47 - 48) =      5.42544  eV     2   -->   2 G_2            
     e( 49 - 50) =      5.55875  eV     2   -->   2 G_2            
     e( 51 - 52) =      5.83708  eV     2   -->   2 G_2            
     e( 53 - 54) =      6.42596  eV     2   -->   2 G_2            
     e( 55 - 55) =      6.58338  eV     1   --> G_2            
     e( 56 - 56) =      6.58354  eV     1   --> G_2            
     e( 57 - 57) =      6.69687  eV     1   --> G_2            
     e( 58 - 58) =      6.69707  eV     1   --> G_2            
     e( 59 - 60) =      6.79795  eV     2   -->   2 G_2            
     e( 61 - 62) =      7.19592  eV     2   -->   2 G_2            
     e( 63 - 64) =      7.60828  eV     2   -->   2 G_2            
     e( 65 - 66) =      7.73879  eV     2   -->   2 G_2            
     e( 67 - 68) =      8.02772  eV     2   -->   2 G_2            
     e( 69 - 70) =      8.12886  eV     2   -->   2 G_2            
     e( 71 - 72) =      8.58165  eV     2   -->   2 G_2            
     e( 73 - 74) =      8.96597  eV     2   -->   2 G_2            
     e( 75 - 75) =      9.25637  eV     1   --> G_2            
     e( 76 - 76) =      9.25671  eV     1   --> G_2            
     e( 77 - 77) =      9.43277  eV     1   --> G_2            
     e( 78 - 78) =      9.43327  eV     1   --> G_2            
     e( 79 - 79) =      9.64100  eV     1   --> G_2            
     e( 80 - 80) =      9.64130  eV     1   --> G_2            
     e( 81 - 81) =      9.82626  eV     1   --> G_2            
     e( 82 - 82) =      9.82652  eV     1   --> G_2            
     e( 83 - 84) =     10.82614  eV     2   -->   2 G_2            
     e( 85 - 86) =     10.87480  eV     2   -->   2 G_2            
     e( 87 - 88) =     11.71173  eV     2   -->   2 G_2            
     e( 89 - 89) =     12.06530  eV     1   --> G_2            
     e( 90 - 90) =     12.06552  eV     1   --> G_2            
     e( 91 - 91) =     12.17058  eV     1   --> G_2            
     e( 92 - 92) =     12.17097  eV     1   --> G_2            
     e( 93 - 93) =     12.29030  eV     1   --> G_2            
     e( 94 - 94) =     12.29043  eV     1   --> G_2            
     e( 95 - 96) =     12.53462  eV     2   -->   2 G_2            
     e( 97 - 98) =     13.08784  eV     2   -->   2 G_2            
     e( 99 -100) =     13.49178  eV     2   -->   2 G_2            

 **************************************************************************

 **************************************************************************

                    xk=(   0.00952,   0.01683,   0.00000  )

     Band symmetry, C_1 (1)     double point group:

     e(  1 -  2) =    -12.60662  eV     2   -->   2 G_2            
     e(  3 -  4) =    -12.07651  eV     2   -->   2 G_2            
     e(  5 -  6) =    -10.99353  eV     2   -->   2 G_2            
     e(  7 -  8) =     -8.26018  eV     2   -->   2 G_2            
     e(  9 - 10) =     -6.89526  eV     2   -->   2 G_2            
     e( 11 - 12) =     -2.51251  eV     2   -->   2 G_2            
     e( 13 - 13) =     -2.10137  eV     1   --> G_2            
     e( 14 - 14) =     -2.10115  eV     1   --> G_2            
     e( 15 - 15) =     -1.77896  eV     1   --> G_2            
     e( 16 - 16) =     -1.77857  eV     1   --> G_2            
     e( 17 - 17) =     -1.56099  eV     1   --> G_2            
     e( 18 - 18) =     -1.55983  eV     1   --> G_2            
     e( 19 - 19) =     -1.50387  eV     1   --> G_2            
     e( 20 - 20) =     -1.50308  eV     1   --> G_2            
     e( 21 - 21) =     -1.33308  eV     1   --> G_2            
     e( 22 - 22) =     -1.33138  eV     1   --> G_2            
     e( 23 - 23) =     -1.07244  eV     1   --> G_2            
     e( 24 - 24) =     -1.07208  eV     1   --> G_2            
     e( 25 - 25) =     -0.80006  eV     1   --> G_2            
     e( 26 - 26) =     -0.79976  eV     1   --> G_2            
     e( 27 - 27) =     -0.60474  eV     1   --> G_2            
     e( 28 - 28) =     -0.60438  eV     1   --> G_2            
     e( 29 - 29) =      0.06340  eV     1   --> G_2            
     e( 30 - 30) =      0.06374  eV     1   --> G_2            
     e( 31 - 31) =      0.68857  eV     1   --> G_2            
     e( 32 - 32) =      0.68879  eV     1   --> G_2            
     e( 33 - 33) =      1.01802  eV     1   --> G_2            
     e( 34 - 34) =      1.01871  eV     1   --> G_2            
     e( 35 - 35) =      1.28704  eV     1   --> G_2            
     e( 36 - 36) =      1.28784  eV     1   --> G_2            
     e( 37 - 37) =      1.99550  eV     1   --> G_2            
     e( 38 - 38) =      1.99570  eV     1   --> G_2            
     e( 39 - 40) =      2.17619  eV     2   -->   2 G_2            
     e( 41 - 42) =      4.19276  eV     2   -->   2 G_2            
     e( 43 - 44) =      4.38178  eV     2   -->   2 G_2            
     e( 45 - 46) =      4.99897  eV     2   -->   2 G_2            
     e( 47 - 48) =      5.43194  eV     2   -->   2 G_2            
     e( 49 - 50) =      5.55935  eV     2   -->   2 G_2            
     e( 51 - 52) =      5.85118  eV     2   -->   2 G_2            
     e( 53 - 54) =      6.40542  eV     2   -->   2 G_2            
     e( 55 - 55) =      6.59001  eV     1   --> G_2            
     e( 56 - 56) =      6.59012  eV     1   --> G_2            
     e( 57 - 57) =      6.70455  eV     1   --> G_2            
     e( 58 - 58) =      6.70471  eV     1   --> G_2            
     e( 59 - 60) =      6.79650  eV     2   -->   2 G_2            
     e( 61 - 62) =      7.19988  eV     2   -->   2 G_2            
     e( 63 - 64) =      7.58353  eV     2   -->   2 G_2            
     e( 65 - 66) =      7.72555  eV     2   -->   2 G_2            
     e( 67 - 68) =      8.03090  eV     2   -->   2 G_2            
     e( 69 - 70) =      8.10963  eV     2   -->   2 G_2            
     e( 71 - 72) =      8.56377  eV     2   -->   2 G_2            
     e( 73 - 74) =      8.97756  eV     2   -->   2 G_2            
     e( 75 - 75) =      9.30656  eV     1   --> G_2            
     e( 76 - 76) =      9.30698  eV     1   --> G_2            
     e( 77 - 77) =      9.45013  eV     1   --> G_2            
     e( 78 - 78) =      9.45079  eV     1   --> G_2            
     e( 79 - 79) =      9.59003  eV     1   --> G_2            
     e( 80 - 80) =      9.59031  eV     1   --> G_2            
     e( 81 - 81) =      9.77293  eV     1   --> G_2            
     e( 82 - 82) =      9.77315  eV     1   --> G_2            
     e( 83 - 84) =     10.83127  eV     2   -->   2 G_2            
     e( 85 - 86) =     10.86283  eV     2   -->   2 G_2            
     e( 87 - 88) =     11.76280  eV     2   -->   2 G_2            
     e( 89 - 89) =     12.10781  eV     1   --> G_2            
     e( 90 - 90) =     12.10834  eV     1   --> G_2            
     e( 91 - 91) =     12.15353  eV     1   --> G_2            
     e( 92 - 92) =     12.15424  eV     1   --> G_2            
     e( 93 - 93) =     12.27541  eV     1   --> G_2            
     e( 94 - 94) =     12.27556  eV     1   --> G_2            
     e( 95 - 96) =     12.48668  eV     2   -->   2 G_2            
     e( 97 - 98) =     13.07364  eV     2   -->   2 G_2            
     e( 99 -100) =     13.55242  eV     2   -->   2 G_2            

 **************************************************************************

 **************************************************************************

                    xk=(   0.00476,   0.00841,   0.00000  )

     Band symmetry, C_1 (1)     double point group:

     e(  1 -  2) =    -12.60835  eV     2   -->   2 G_2            
     e(  3 -  4) =    -12.07809  eV     2   -->   2 G_2            
     e(  5 -  6) =    -10.99448  eV     2   -->   2 G_2            
     e(  7 -  8) =     -8.25989  eV     2   -->   2 G_2            
     e(  9 - 10) =     -6.89218  eV     2   -->   2 G_2            
     e( 11 - 12) =     -2.50959  eV     2   -->   2 G_2            
     e( 13 - 13) =     -2.08051  eV     1   --> G_2            
     e( 14 - 14) =     -2.08038  eV     1   --> G_2            
     e( 15 - 15) =     -1.78194  eV     1   --> G_2            
     e( 16 - 16) =     -1.78173  eV     1   --> G_2            
     e( 17 - 17) =     -1.53676  eV     1   --> G_2            
     e( 18 - 18) =     -1.53626  eV     1   --> G_2            
     e( 19 - 19) =     -1.47895  eV     1   --> G_2            
     e( 20 - 20) =     -1.47832  eV     1   --> G_2            
     e( 21 - 21) =     -1.35327  eV     1   --> G_2            
     e( 22 - 22) =     -1.35206  eV     1   --> G_2            
     e( 23 - 23) =     -1.08275  eV     1   --> G_2            
     e( 24 - 24) =     -1.08255  eV     1   --> G_2            
     e( 25 - 25) =     -0.79007  eV     1   --> G_2            
     e( 26 - 26) =     -0.78992  eV     1   --> G_2            
     e( 27 - 27) =     -0.61506  eV     1   --> G_2            
     e( 28 - 28) =     -0.61488  eV     1   --> G_2            
     e( 29 - 29) =      0.04112  eV     1   --> G_2            
     e( 30 - 30) =      0.04129  eV     1   --> G_2            
     e( 31 - 31) =      0.68747  eV     1   --> G_2            
     e( 32 - 32) =      0.68758  eV     1   --> G_2            
     e( 33 - 33) =      1.04009  eV     1   --> G_2            
     e( 34 - 34) =      1.04053  eV     1   --> G_2            
     e( 35 - 35) =      1.26337  eV     1   --> G_2            
     e( 36 - 36) =      1.26386  eV     1   --> G_2            
     e( 37 - 37) =      1.98677  eV     1   --> G_2            
     e( 38 - 38) =      1.98687  eV     1   --> G_2            
     e( 39 - 40) =      2.17648  eV     2   -->   2 G_2            
     e( 41 - 42) =      4.18961  eV     2   -->   2 G_2            
     e( 43 - 44) =      4.38113  eV     2   -->   2 G_2            
     e( 45 - 46) =      4.99822  eV     2   -->   2 G_2            
     e( 47 - 48) =      5.43545  eV     2   -->   2 G_2            
     e( 49 - 50) =      5.55985  eV     2   -->   2 G_2            
     e( 51 - 52) =      5.86124  eV     2   -->   2 G_2            
     e( 53 - 54) =      6.39154  eV     2   -->   2 G_2            
     e( 55 - 56) =      6.59386  eV     2   -->   2 G_2            
     e( 57 - 58) =      6.70823  eV     2   -->   2 G_2            
     e( 59 - 60) =      6.79791  eV     2   -->   2 G_2            
     e( 61 - 62) =      7.20324  eV     2   -->   2 G_2            
     e( 63 - 64) =      7.56693  eV     2   -->   2 G_2            
     e( 65 - 66) =      7.71643  eV     2   -->   2 G_2            
     e( 67 - 68) =      8.03430  eV     2   -->   2 G_2            
     e( 69 - 70) =      8.09763  eV     2   -->   2 G_2            
     e( 71 - 72) =      8.55319  eV     2   -->   2 G_2            
     e( 73 - 74) =      8.98432  eV     2   -->   2 G_2            
     e( 75 - 75) =      9.34710  eV     1   --> G_2            
     e( 76 - 76) =      9.34747  eV     1   --> G_2            
     e( 77 - 77) =      9.47264  eV     1   --> G_2            
     e( 78 - 78) =      9.47339  eV     1   --> G_2            
     e( 79 - 79) =      9.54374  eV     1   --> G_2            
     e( 80 - 80) =      9.54410  eV     1   --> G_2            
     e( 81 - 81) =      9.73402  eV     1   --> G_2            
     e( 82 - 82) =      9.73416  eV     1   --> G_2            
     e( 83 - 84) =     10.83645  eV     2   -->   2 G_2            
     e( 85 - 86) =     10.85357  eV     2   -->   2 G_2            
     e( 87 - 88) =     11.80269  eV     2   -->   2 G_2            
     e( 89 - 89) =     12.09044  eV     1   --> G_2            
     e( 90 - 90) =     12.09058  eV     1   --> G_2            
     e( 91 - 91) =     12.18973  eV     1   --> G_2            
     e( 92 - 92) =     12.19004  eV     1   --> G_2            
     e( 93 - 93) =     12.26328  eV     1   --> G_2            
     e( 94 - 94) =     12.26344  eV     1   --> G_2            
     e( 95 - 96) =     12.45093  eV     2   -->   2 G_2            
     e( 97 - 98) =     13.05801  eV     2   -->   2 G_2            
     e( 99 -100) =     13.60867  eV     2   -->   2 G_2            

 **************************************************************************

 **************************************************************************

                    xk=(   0.00000,   0.00000,   0.00000  )

     Band symmetry, C_1 (1)     double point group:

     e(  1 -  2) =    -12.60893  eV     2   -->   2 G_2            
     e(  3 -  4) =    -12.07862  eV     2   -->   2 G_2            
     e(  5 -  6) =    -10.99479  eV     2   -->   2 G_2            
     e(  7 -  8) =     -8.25979  eV     2   -->   2 G_2            
     e(  9 - 10) =     -6.89115  eV     2   -->   2 G_2            
     e( 11 - 12) =     -2.50862  eV     2   -->   2 G_2            
     e( 13 - 14) =     -2.07320  eV     2   -->   2 G_2            
     e( 15 - 16) =     -1.78320  eV     2   -->   2 G_2            
     e( 17 - 18) =     -1.53006  eV     2   -->   2 G_2            
     e( 19 - 20) =     -1.46378  eV     2   -->   2 G_2            
     e( 21 - 22) =     -1.36441  eV     2   -->   2 G_2            
     e( 23 - 24) =     -1.08620  eV     2   -->   2 G_2            
     e( 25 - 26) =     -0.78686  eV     2   -->   2 G_2            
     e( 27 - 28) =     -0.61790  eV     2   -->   2 G_2            
     e( 29 - 30) =      0.03327  eV     2   -->   2 G_2            
     e( 31 - 32) =      0.68713  eV     2   -->   2 G_2            
     e( 33 - 34) =      1.04932  eV     2   -->   2 G_2            
     e( 35 - 36) =      1.25410  eV     2   -->   2 G_2            
     e( 37 - 38) =      1.98381  eV     2   -->   2 G_2            
     e( 39 - 40) =      2.17666  eV     2   -->   2 G_2            
     e( 41 - 42) =      4.18856  eV     2   -->   2 G_2            
     e( 43 - 44) =      4.38092  eV     2   -->   2 G_2            
     e( 45 - 46) =      4.99796  eV     2   -->   2 G_2            
     e( 47 - 48) =      5.43655  eV     2   -->   2 G_2            
     e( 49 - 50) =      5.56005  eV     2   -->   2 G_2            
     e( 51 - 52) =      5.86489  eV     2   -->   2 G_2            
     e( 53 - 54) =      6.38663  eV     2   -->   2 G_2            
     e( 55 - 56) =      6.59512  eV     2   -->   2 G_2            
     e( 57 - 58) =      6.70927  eV     2   -->   2 G_2            
     e( 59 - 60) =      6.79886  eV     2   -->   2 G_2            
     e( 61 - 62) =      7.20457  eV     2   -->   2 G_2            
     e( 63 - 64) =      7.56108  eV     2   -->   2 G_2            
     e( 65 - 66) =      7.71320  eV     2   -->   2 G_2            
     e( 67 - 68) =      8.03572  eV     2   -->   2 G_2            
     e( 69 - 70) =      8.09351  eV     2   -->   2 G_2            
     e( 71 - 72) =      8.54969  eV     2   -->   2 G_2            
     e( 73 - 74) =      8.98656  eV     2   -->   2 G_2            
     e( 75 - 76) =      9.36371  eV     2   -->   2 G_2            
     e( 77 - 78) =      9.50269  eV     2   -->   2 G_2            
     e( 79 - 80) =      9.50516  eV     2   -->   2 G_2            
     e( 81 - 82) =      9.71934  eV     2   -->   2 G_2            
     e( 83 - 84) =     10.83988  eV     2   -->   2 G_2            
     e( 85 - 86) =     10.84879  eV     2   -->   2 G_2            
     e( 87 - 88) =     11.81878  eV     2   -->   2 G_2            
     e( 89 - 90) =     12.07843  eV     2   -->   2 G_2            
     e( 91 - 92) =     12.21145  eV     2   -->   2 G_2            
     e( 93 - 94) =     12.25584  eV     2   -->   2 G_2            
     e( 95 - 96) =     12.43678  eV     2   -->   2 G_2            
     e( 97 - 98) =     13.05164  eV     2   -->   2 G_2            
     e( 99 -100) =     13.63311  eV     2   -->   2 G_2            

 **************************************************************************

     BANDS        :  21m 1.42s CPU  20m20.29s WALL


   This run was terminated on:  23:11:24  22Aug2025            

=------------------------------------------------------------------------------=
   JOB DONE.
=------------------------------------------------------------------------------=
