
     Program BANDS v.7.4.1 starts on 22Aug2025 at 23:46:35 

     This program is part of the open-source Quantum ESPRESSO suite
     for quantum simulation of materials; please cite
         "P. Giannozzi et al., J. Phys.:Condens. Matter 21 395502 (2009);
         "P. Giannozzi et al., J. Phys.:Condens. Matter 29 465901 (2017);
         "P. Giannozzi et al., J. Chem. Phys. 152 154105 (2020);
          URL http://www.quantum-espresso.org", 
     in publications or presentations arising from this work. More details at
     http://www.quantum-espresso.org/quote

     Parallel version (MPI & OpenMP), running on      48 processor cores
     Number of MPI processes:                24
     Threads/MPI process:                     2

     MPI processes distributed on     2 nodes
     R & G space division:  proc/nbgrp/npool/nimage =      24
     70822 MiB available memory on the printing compute node when the environment starts


     Reading xml data from directory:

     tmp/Sb2Te3-uatsx-c6-soc-4.0.save/
     file Sb.rel-pbe-n-rrkjus_psl.1.0.0.UPF: wavefunction(s)  5S renormalized
     file Te.rel-pbe-n-rrkjus_psl.1.0.0.UPF: wavefunction(s)  5S renormalized

     IMPORTANT: XC functional enforced from input :
     Exchange-correlation= PBE
                           (   1   4   3   4   0   0   0)
     Any further DFT definition will be discarded
     Please, verify this is what you really want


     Parallelization info
     --------------------
     sticks:   dense  smooth     PW     G-vecs:    dense   smooth      PW
     Min          99      39     11                19681     4971     755
     Max         100      40     12                19687     4990     769
     Sum        2379     953    269               472441   119521   18333

     Using Slab Decomposition


     negative rho (up, down):  4.258E-06 0.000E+00
     Reading collected, re-writing distributed wavefunctions
     high-symmetry point:  0.0000 0.0000 0.0000   x coordinate   0.0000
     high-symmetry point:  0.5000 0.2887 0.0000   x coordinate   0.5774
     high-symmetry point:  0.3333 0.5928 0.0000   x coordinate   0.9241
     high-symmetry point:  0.0000 0.0000 0.0000   x coordinate   1.6042

     Plottable bands (eV) written to file ./bands/Sb2Te3-uatsx-c6-soc-4.0.bands.gnu
     Bands written to file ./bands/Sb2Te3-uatsx-c6-soc-4.0.bands

 **************************************************************************

                    xk=(   0.00000,   0.00000,   0.00000  )

     double point group C_1 (1)    
     there are  2 classes and  1 irreducible representations
     the character table:

       E     -E   
                  
G_2    1.00 -1.00

     the symmetry operations in each class and the name of the first element:

     E             1
                                                                 
     -E           -1
                                                                 

     Band symmetry, C_1 (1)     double point group:

     e(  1 -  2) =    -12.63185  eV     2   -->   2 G_2            
     e(  3 -  4) =    -12.09710  eV     2   -->   2 G_2            
     e(  5 -  6) =    -11.01791  eV     2   -->   2 G_2            
     e(  7 -  8) =     -8.29182  eV     2   -->   2 G_2            
     e(  9 - 10) =     -6.94919  eV     2   -->   2 G_2            
     e( 11 - 12) =     -2.56600  eV     2   -->   2 G_2            
     e( 13 - 14) =     -2.15600  eV     2   -->   2 G_2            
     e( 15 - 16) =     -1.84947  eV     2   -->   2 G_2            
     e( 17 - 18) =     -1.60751  eV     2   -->   2 G_2            
     e( 19 - 20) =     -1.52329  eV     2   -->   2 G_2            
     e( 21 - 22) =     -1.44410  eV     2   -->   2 G_2            
     e( 23 - 24) =     -1.14173  eV     2   -->   2 G_2            
     e( 25 - 26) =     -0.88543  eV     2   -->   2 G_2            
     e( 27 - 28) =     -0.68932  eV     2   -->   2 G_2            
     e( 29 - 30) =     -0.08352  eV     2   -->   2 G_2            
     e( 31 - 32) =      0.60185  eV     2   -->   2 G_2            
     e( 33 - 34) =      0.98586  eV     2   -->   2 G_2            
     e( 35 - 36) =      1.16463  eV     2   -->   2 G_2            
     e( 37 - 38) =      1.88808  eV     2   -->   2 G_2            
     e( 39 - 40) =      2.12278  eV     2   -->   2 G_2            
     e( 41 - 42) =      4.15344  eV     2   -->   2 G_2            
     e( 43 - 44) =      4.34147  eV     2   -->   2 G_2            
     e( 45 - 46) =      4.98328  eV     2   -->   2 G_2            
     e( 47 - 48) =      5.29572  eV     2   -->   2 G_2            
     e( 49 - 50) =      5.50510  eV     2   -->   2 G_2            
     e( 51 - 52) =      5.85061  eV     2   -->   2 G_2            
     e( 53 - 54) =      6.33037  eV     2   -->   2 G_2            
     e( 55 - 56) =      6.53154  eV     2   -->   2 G_2            
     e( 57 - 58) =      6.61633  eV     2   -->   2 G_2            
     e( 59 - 60) =      6.69845  eV     2   -->   2 G_2            
     e( 61 - 62) =      7.20310  eV     2   -->   2 G_2            
     e( 63 - 64) =      7.47297  eV     2   -->   2 G_2            
     e( 65 - 66) =      7.66941  eV     2   -->   2 G_2            
     e( 67 - 68) =      8.00267  eV     2   -->   2 G_2            
     e( 69 - 70) =      8.03707  eV     2   -->   2 G_2            
     e( 71 - 72) =      8.51153  eV     2   -->   2 G_2            
     e( 73 - 74) =      8.87389  eV     2   -->   2 G_2            
     e( 75 - 76) =      9.32261  eV     2   -->   2 G_2            
     e( 77 - 78) =      9.42031  eV     2   -->   2 G_2            
     e( 79 - 80) =      9.49111  eV     2   -->   2 G_2            
     e( 81 - 82) =      9.69215  eV     2   -->   2 G_2            
     e( 83 - 84) =     10.79117  eV     2   -->   2 G_2            
     e( 85 - 86) =     10.82933  eV     2   -->   2 G_2            
     e( 87 - 88) =     11.69562  eV     2   -->   2 G_2            
     e( 89 - 90) =     11.96909  eV     2   -->   2 G_2            
     e( 91 - 92) =     12.19401  eV     2   -->   2 G_2            
     e( 93 - 94) =     12.20604  eV     2   -->   2 G_2            
     e( 95 - 96) =     12.42422  eV     2   -->   2 G_2            
     e( 97 - 98) =     12.99592  eV     2   -->   2 G_2            
     e( 99 -100) =     13.47478  eV     2   -->   2 G_2            

 **************************************************************************

 **************************************************************************

                    xk=(   0.00714,   0.00412,   0.00000  )

     Band symmetry, C_1 (1)     double point group:

     e(  1 -  2) =    -12.63144  eV     2   -->   2 G_2            
     e(  3 -  4) =    -12.09673  eV     2   -->   2 G_2            
     e(  5 -  6) =    -11.01769  eV     2   -->   2 G_2            
     e(  7 -  8) =     -8.29193  eV     2   -->   2 G_2            
     e(  9 - 10) =     -6.95003  eV     2   -->   2 G_2            
     e( 11 - 12) =     -2.56685  eV     2   -->   2 G_2            
     e( 13 - 13) =     -2.16245  eV     1   --> G_2            
     e( 14 - 14) =     -2.16217  eV     1   --> G_2            
     e( 15 - 15) =     -1.84845  eV     1   --> G_2            
     e( 16 - 16) =     -1.84826  eV     1   --> G_2            
     e( 17 - 17) =     -1.61574  eV     1   --> G_2            
     e( 18 - 18) =     -1.61510  eV     1   --> G_2            
     e( 19 - 19) =     -1.53098  eV     1   --> G_2            
     e( 20 - 20) =     -1.53059  eV     1   --> G_2            
     e( 21 - 21) =     -1.43354  eV     1   --> G_2            
     e( 22 - 22) =     -1.43301  eV     1   --> G_2            
     e( 23 - 23) =     -1.13966  eV     1   --> G_2            
     e( 24 - 24) =     -1.13951  eV     1   --> G_2            
     e( 25 - 25) =     -0.88747  eV     1   --> G_2            
     e( 26 - 26) =     -0.88737  eV     1   --> G_2            
     e( 27 - 28) =     -0.68793  eV     2   -->   2 G_2            
     e( 29 - 30) =     -0.07680  eV     2   -->   2 G_2            
     e( 31 - 32) =      0.60052  eV     2   -->   2 G_2            
     e( 33 - 33) =      0.97931  eV     1   --> G_2            
     e( 34 - 34) =      0.97952  eV     1   --> G_2            
     e( 35 - 35) =      1.17262  eV     1   --> G_2            
     e( 36 - 36) =      1.17289  eV     1   --> G_2            
     e( 37 - 38) =      1.88988  eV     2   -->   2 G_2            
     e( 39 - 40) =      2.12250  eV     2   -->   2 G_2            
     e( 41 - 42) =      4.15417  eV     2   -->   2 G_2            
     e( 43 - 44) =      4.34155  eV     2   -->   2 G_2            
     e( 45 - 46) =      4.98348  eV     2   -->   2 G_2            
     e( 47 - 48) =      5.29369  eV     2   -->   2 G_2            
     e( 49 - 50) =      5.50478  eV     2   -->   2 G_2            
     e( 51 - 52) =      5.85064  eV     2   -->   2 G_2            
     e( 53 - 54) =      6.33289  eV     2   -->   2 G_2            
     e( 55 - 55) =      6.52889  eV     1   --> G_2            
     e( 56 - 56) =      6.52917  eV     1   --> G_2            
     e( 57 - 57) =      6.61789  eV     1   --> G_2            
     e( 58 - 58) =      6.61838  eV     1   --> G_2            
     e( 59 - 59) =      6.69700  eV     1   --> G_2            
     e( 60 - 60) =      6.69722  eV     1   --> G_2            
     e( 61 - 62) =      7.20110  eV     2   -->   2 G_2            
     e( 63 - 64) =      7.47993  eV     2   -->   2 G_2            
     e( 65 - 66) =      7.67153  eV     2   -->   2 G_2            
     e( 67 - 68) =      8.00006  eV     2   -->   2 G_2            
     e( 69 - 70) =      8.03925  eV     2   -->   2 G_2            
     e( 71 - 72) =      8.51277  eV     2   -->   2 G_2            
     e( 73 - 74) =      8.87545  eV     2   -->   2 G_2            
     e( 75 - 75) =      9.30704  eV     1   --> G_2            
     e( 76 - 76) =      9.30726  eV     1   --> G_2            
     e( 77 - 77) =      9.40865  eV     1   --> G_2            
     e( 78 - 78) =      9.40904  eV     1   --> G_2            
     e( 79 - 79) =      9.51445  eV     1   --> G_2            
     e( 80 - 80) =      9.51462  eV     1   --> G_2            
     e( 81 - 82) =      9.69954  eV     2   -->   2 G_2            
     e( 83 - 84) =     10.79032  eV     2   -->   2 G_2            
     e( 85 - 86) =     10.82988  eV     2   -->   2 G_2            
     e( 87 - 88) =     11.68450  eV     2   -->   2 G_2            
     e( 89 - 90) =     11.97603  eV     2   -->   2 G_2            
     e( 91 - 91) =     12.16605  eV     1   --> G_2            
     e( 92 - 92) =     12.16620  eV     1   --> G_2            
     e( 93 - 94) =     12.23460  eV     2   -->   2 G_2            
     e( 95 - 96) =     12.42765  eV     2   -->   2 G_2            
     e( 97 - 98) =     12.99717  eV     2   -->   2 G_2            
     e( 99 -100) =     13.45191  eV     2   -->   2 G_2            

 **************************************************************************

 **************************************************************************

                    xk=(   0.01429,   0.00825,   0.00000  )

     Band symmetry, C_1 (1)     double point group:

     e(  1 -  2) =    -12.63021  eV     2   -->   2 G_2            
     e(  3 -  4) =    -12.09562  eV     2   -->   2 G_2            
     e(  5 -  6) =    -11.01705  eV     2   -->   2 G_2            
     e(  7 -  8) =     -8.29226  eV     2   -->   2 G_2            
     e(  9 - 10) =     -6.95256  eV     2   -->   2 G_2            
     e( 11 - 12) =     -2.56940  eV     2   -->   2 G_2            
     e( 13 - 13) =     -2.18084  eV     1   --> G_2            
     e( 14 - 14) =     -2.18031  eV     1   --> G_2            
     e( 15 - 15) =     -1.84584  eV     1   --> G_2            
     e( 16 - 16) =     -1.84549  eV     1   --> G_2            
     e( 17 - 17) =     -1.63925  eV     1   --> G_2            
     e( 18 - 18) =     -1.63815  eV     1   --> G_2            
     e( 19 - 19) =     -1.54318  eV     1   --> G_2            
     e( 20 - 20) =     -1.54255  eV     1   --> G_2            
     e( 21 - 21) =     -1.41212  eV     1   --> G_2            
     e( 22 - 22) =     -1.41137  eV     1   --> G_2            
     e( 23 - 23) =     -1.13349  eV     1   --> G_2            
     e( 24 - 24) =     -1.13320  eV     1   --> G_2            
     e( 25 - 25) =     -0.89346  eV     1   --> G_2            
     e( 26 - 26) =     -0.89327  eV     1   --> G_2            
     e( 27 - 27) =     -0.68285  eV     1   --> G_2            
     e( 28 - 28) =     -0.68269  eV     1   --> G_2            
     e( 29 - 29) =     -0.05733  eV     1   --> G_2            
     e( 30 - 30) =     -0.05714  eV     1   --> G_2            
     e( 31 - 31) =      0.59658  eV     1   --> G_2            
     e( 32 - 32) =      0.59676  eV     1   --> G_2            
     e( 33 - 33) =      0.96350  eV     1   --> G_2            
     e( 34 - 34) =      0.96384  eV     1   --> G_2            
     e( 35 - 35) =      1.19349  eV     1   --> G_2            
     e( 36 - 36) =      1.19395  eV     1   --> G_2            
     e( 37 - 37) =      1.89531  eV     1   --> G_2            
     e( 38 - 38) =      1.89549  eV     1   --> G_2            
     e( 39 - 40) =      2.12174  eV     2   -->   2 G_2            
     e( 41 - 42) =      4.15638  eV     2   -->   2 G_2            
     e( 43 - 44) =      4.34181  eV     2   -->   2 G_2            
     e( 45 - 46) =      4.98403  eV     2   -->   2 G_2            
     e( 47 - 48) =      5.28762  eV     2   -->   2 G_2            
     e( 49 - 50) =      5.50392  eV     2   -->   2 G_2            
     e( 51 - 52) =      5.85089  eV     2   -->   2 G_2            
     e( 53 - 54) =      6.34020  eV     2   -->   2 G_2            
     e( 55 - 55) =      6.52184  eV     1   --> G_2            
     e( 56 - 56) =      6.52233  eV     1   --> G_2            
     e( 57 - 57) =      6.62126  eV     1   --> G_2            
     e( 58 - 58) =      6.62219  eV     1   --> G_2            
     e( 59 - 59) =      6.69462  eV     1   --> G_2            
     e( 60 - 60) =      6.69506  eV     1   --> G_2            
     e( 61 - 62) =      7.19568  eV     2   -->   2 G_2            
     e( 63 - 64) =      7.49972  eV     2   -->   2 G_2            
     e( 65 - 66) =      7.67779  eV     2   -->   2 G_2            
     e( 67 - 67) =      7.99295  eV     1   --> G_2            
     e( 68 - 68) =      7.99305  eV     1   --> G_2            
     e( 69 - 69) =      8.04552  eV     1   --> G_2            
     e( 70 - 70) =      8.04565  eV     1   --> G_2            
     e( 71 - 72) =      8.51666  eV     2   -->   2 G_2            
     e( 73 - 74) =      8.87970  eV     2   -->   2 G_2            
     e( 75 - 75) =      9.27117  eV     1   --> G_2            
     e( 76 - 76) =      9.27143  eV     1   --> G_2            
     e( 77 - 77) =      9.38773  eV     1   --> G_2            
     e( 78 - 78) =      9.38811  eV     1   --> G_2            
     e( 79 - 79) =      9.56248  eV     1   --> G_2            
     e( 80 - 80) =      9.56263  eV     1   --> G_2            
     e( 81 - 82) =      9.72020  eV     2   -->   2 G_2            
     e( 83 - 84) =     10.78771  eV     2   -->   2 G_2            
     e( 85 - 86) =     10.83162  eV     2   -->   2 G_2            
     e( 87 - 88) =     11.65542  eV     2   -->   2 G_2            
     e( 89 - 89) =     11.98973  eV     1   --> G_2            
     e( 90 - 90) =     11.98987  eV     1   --> G_2            
     e( 91 - 91) =     12.13950  eV     1   --> G_2            
     e( 92 - 92) =     12.13971  eV     1   --> G_2            
     e( 93 - 94) =     12.26557  eV     2   -->   2 G_2            
     e( 95 - 96) =     12.43881  eV     2   -->   2 G_2            
     e( 97 - 98) =     12.99843  eV     2   -->   2 G_2            
     e( 99 -100) =     13.40014  eV     2   -->   2 G_2            

 **************************************************************************

 **************************************************************************

                    xk=(   0.02143,   0.01237,   0.00000  )

     Band symmetry, C_1 (1)     double point group:

     e(  1 -  2) =    -12.62815  eV     2   -->   2 G_2            
     e(  3 -  4) =    -12.09376  eV     2   -->   2 G_2            
     e(  5 -  6) =    -11.01598  eV     2   -->   2 G_2            
     e(  7 -  8) =     -8.29282  eV     2   -->   2 G_2            
     e(  9 - 10) =     -6.95677  eV     2   -->   2 G_2            
     e( 11 - 12) =     -2.57366  eV     2   -->   2 G_2            
     e( 13 - 13) =     -2.20952  eV     1   --> G_2            
     e( 14 - 14) =     -2.20878  eV     1   --> G_2            
     e( 15 - 15) =     -1.84321  eV     1   --> G_2            
     e( 16 - 16) =     -1.84277  eV     1   --> G_2            
     e( 17 - 17) =     -1.67406  eV     1   --> G_2            
     e( 18 - 18) =     -1.67278  eV     1   --> G_2            
     e( 19 - 19) =     -1.55264  eV     1   --> G_2            
     e( 20 - 20) =     -1.55190  eV     1   --> G_2            
     e( 21 - 21) =     -1.39122  eV     1   --> G_2            
     e( 22 - 22) =     -1.39038  eV     1   --> G_2            
     e( 23 - 23) =     -1.12391  eV     1   --> G_2            
     e( 24 - 24) =     -1.12349  eV     1   --> G_2            
     e( 25 - 25) =     -0.90268  eV     1   --> G_2            
     e( 26 - 26) =     -0.90241  eV     1   --> G_2            
     e( 27 - 27) =     -0.67237  eV     1   --> G_2            
     e( 28 - 28) =     -0.67212  eV     1   --> G_2            
     e( 29 - 29) =     -0.02712  eV     1   --> G_2            
     e( 30 - 30) =     -0.02685  eV     1   --> G_2            
     e( 31 - 31) =      0.58989  eV     1   --> G_2            
     e( 32 - 32) =      0.59014  eV     1   --> G_2            
     e( 33 - 33) =      0.94475  eV     1   --> G_2            
     e( 34 - 34) =      0.94516  eV     1   --> G_2            
     e( 35 - 35) =      1.22136  eV     1   --> G_2            
     e( 36 - 36) =      1.22195  eV     1   --> G_2            
     e( 37 - 37) =      1.90417  eV     1   --> G_2            
     e( 38 - 38) =      1.90445  eV     1   --> G_2            
     e( 39 - 40) =      2.12075  eV     2   -->   2 G_2            
     e( 41 - 42) =      4.16004  eV     2   -->   2 G_2            
     e( 43 - 44) =      4.34223  eV     2   -->   2 G_2            
     e( 45 - 46) =      4.98485  eV     2   -->   2 G_2            
     e( 47 - 48) =      5.27763  eV     2   -->   2 G_2            
     e( 49 - 50) =      5.50269  eV     2   -->   2 G_2            
     e( 51 - 52) =      5.85166  eV     2   -->   2 G_2            
     e( 53 - 54) =      6.35148  eV     2   -->   2 G_2            
     e( 55 - 55) =      6.51141  eV     1   --> G_2            
     e( 56 - 56) =      6.51202  eV     1   --> G_2            
     e( 57 - 57) =      6.62223  eV     1   --> G_2            
     e( 58 - 58) =      6.62343  eV     1   --> G_2            
     e( 59 - 59) =      6.69604  eV     1   --> G_2            
     e( 60 - 60) =      6.69663  eV     1   --> G_2            
     e( 61 - 62) =      7.18807  eV     2   -->   2 G_2            
     e( 63 - 64) =      7.52967  eV     2   -->   2 G_2            
     e( 65 - 66) =      7.68787  eV     2   -->   2 G_2            
     e( 67 - 68) =      7.98245  eV     2   -->   2 G_2            
     e( 69 - 69) =      8.05547  eV     1   --> G_2            
     e( 70 - 70) =      8.05561  eV     1   --> G_2            
     e( 71 - 72) =      8.52360  eV     2   -->   2 G_2            
     e( 73 - 74) =      8.88526  eV     2   -->   2 G_2            
     e( 75 - 75) =      9.22939  eV     1   --> G_2            
     e( 76 - 76) =      9.22962  eV     1   --> G_2            
     e( 77 - 77) =      9.36355  eV     1   --> G_2            
     e( 78 - 78) =      9.36386  eV     1   --> G_2            
     e( 79 - 79) =      9.61846  eV     1   --> G_2            
     e( 80 - 80) =      9.61861  eV     1   --> G_2            
     e( 81 - 81) =      9.75090  eV     1   --> G_2            
     e( 82 - 82) =      9.75103  eV     1   --> G_2            
     e( 83 - 84) =     10.78311  eV     2   -->   2 G_2            
     e( 85 - 86) =     10.83477  eV     2   -->   2 G_2            
     e( 87 - 88) =     11.61607  eV     2   -->   2 G_2            
     e( 89 - 89) =     11.99377  eV     1   --> G_2            
     e( 90 - 90) =     11.99396  eV     1   --> G_2            
     e( 91 - 91) =     12.12879  eV     1   --> G_2            
     e( 92 - 92) =     12.12904  eV     1   --> G_2            
     e( 93 - 94) =     12.29236  eV     2   -->   2 G_2            
     e( 95 - 96) =     12.45906  eV     2   -->   2 G_2            
     e( 97 - 98) =     12.99173  eV     2   -->   2 G_2            
     e( 99 -100) =     13.34732  eV     2   -->   2 G_2            

 **************************************************************************

 **************************************************************************

                    xk=(   0.02857,   0.01650,   0.00000  )

     Band symmetry, C_1 (1)     double point group:

     e(  1 -  2) =    -12.62527  eV     2   -->   2 G_2            
     e(  3 -  4) =    -12.09116  eV     2   -->   2 G_2            
     e(  5 -  6) =    -11.01449  eV     2   -->   2 G_2            
     e(  7 -  8) =     -8.29360  eV     2   -->   2 G_2            
     e(  9 - 10) =     -6.96266  eV     2   -->   2 G_2            
     e( 11 - 12) =     -2.57965  eV     2   -->   2 G_2            
     e( 13 - 13) =     -2.24656  eV     1   --> G_2            
     e( 14 - 14) =     -2.24566  eV     1   --> G_2            
     e( 15 - 15) =     -1.84237  eV     1   --> G_2            
     e( 16 - 16) =     -1.84191  eV     1   --> G_2            
     e( 17 - 17) =     -1.71476  eV     1   --> G_2            
     e( 18 - 18) =     -1.71347  eV     1   --> G_2            
     e( 19 - 19) =     -1.56033  eV     1   --> G_2            
     e( 20 - 20) =     -1.55955  eV     1   --> G_2            
     e( 21 - 21) =     -1.37527  eV     1   --> G_2            
     e( 22 - 22) =     -1.37440  eV     1   --> G_2            
     e( 23 - 23) =     -1.11265  eV     1   --> G_2            
     e( 24 - 24) =     -1.11212  eV     1   --> G_2            
     e( 25 - 25) =     -0.91261  eV     1   --> G_2            
     e( 26 - 26) =     -0.91225  eV     1   --> G_2            
     e( 27 - 27) =     -0.65545  eV     1   --> G_2            
     e( 28 - 28) =     -0.65510  eV     1   --> G_2            
     e( 29 - 29) =      0.01113  eV     1   --> G_2            
     e( 30 - 30) =      0.01148  eV     1   --> G_2            
     e( 31 - 31) =      0.58050  eV     1   --> G_2            
     e( 32 - 32) =      0.58079  eV     1   --> G_2            
     e( 33 - 33) =      0.92774  eV     1   --> G_2            
     e( 34 - 34) =      0.92816  eV     1   --> G_2            
     e( 35 - 35) =      1.25210  eV     1   --> G_2            
     e( 36 - 36) =      1.25277  eV     1   --> G_2            
     e( 37 - 37) =      1.91608  eV     1   --> G_2            
     e( 38 - 38) =      1.91645  eV     1   --> G_2            
     e( 39 - 40) =      2.11996  eV     2   -->   2 G_2            
     e( 41 - 42) =      4.16513  eV     2   -->   2 G_2            
     e( 43 - 44) =      4.34278  eV     2   -->   2 G_2            
     e( 45 - 46) =      4.98573  eV     2   -->   2 G_2            
     e( 47 - 48) =      5.26400  eV     2   -->   2 G_2            
     e( 49 - 50) =      5.50132  eV     2   -->   2 G_2            
     e( 51 - 52) =      5.85339  eV     2   -->   2 G_2            
     e( 53 - 54) =      6.36532  eV     2   -->   2 G_2            
     e( 55 - 55) =      6.49838  eV     1   --> G_2            
     e( 56 - 56) =      6.49904  eV     1   --> G_2            
     e( 57 - 57) =      6.61813  eV     1   --> G_2            
     e( 58 - 58) =      6.61934  eV     1   --> G_2            
     e( 59 - 59) =      6.70542  eV     1   --> G_2            
     e( 60 - 60) =      6.70597  eV     1   --> G_2            
     e( 61 - 62) =      7.17948  eV     2   -->   2 G_2            
     e( 63 - 64) =      7.56636  eV     2   -->   2 G_2            
     e( 65 - 66) =      7.70132  eV     2   -->   2 G_2            
     e( 67 - 68) =      7.96984  eV     2   -->   2 G_2            
     e( 69 - 69) =      8.06918  eV     1   --> G_2            
     e( 70 - 70) =      8.06931  eV     1   --> G_2            
     e( 71 - 72) =      8.53409  eV     2   -->   2 G_2            
     e( 73 - 74) =      8.88982  eV     2   -->   2 G_2            
     e( 75 - 75) =      9.18946  eV     1   --> G_2            
     e( 76 - 76) =      9.18965  eV     1   --> G_2            
     e( 77 - 77) =      9.33756  eV     1   --> G_2            
     e( 78 - 78) =      9.33781  eV     1   --> G_2            
     e( 79 - 79) =      9.67735  eV     1   --> G_2            
     e( 80 - 80) =      9.67754  eV     1   --> G_2            
     e( 81 - 81) =      9.78870  eV     1   --> G_2            
     e( 82 - 82) =      9.78888  eV     1   --> G_2            
     e( 83 - 84) =     10.77634  eV     2   -->   2 G_2            
     e( 85 - 86) =     10.83952  eV     2   -->   2 G_2            
     e( 87 - 88) =     11.57222  eV     2   -->   2 G_2            
     e( 89 - 89) =     11.97842  eV     1   --> G_2            
     e( 90 - 90) =     11.97858  eV     1   --> G_2            
     e( 91 - 91) =     12.13722  eV     1   --> G_2            
     e( 92 - 92) =     12.13744  eV     1   --> G_2            
     e( 93 - 94) =     12.31682  eV     2   -->   2 G_2            
     e( 95 - 96) =     12.48763  eV     2   -->   2 G_2            
     e( 97 - 98) =     12.96528  eV     2   -->   2 G_2            
     e( 99 -100) =     13.31545  eV     2   -->   2 G_2            

 **************************************************************************

 **************************************************************************

                    xk=(   0.03571,   0.02062,   0.00000  )

     Band symmetry, C_1 (1)     double point group:

     e(  1 -  2) =    -12.62158  eV     2   -->   2 G_2            
     e(  3 -  4) =    -12.08783  eV     2   -->   2 G_2            
     e(  5 -  6) =    -11.01257  eV     2   -->   2 G_2            
     e(  7 -  8) =     -8.29462  eV     2   -->   2 G_2            
     e(  9 - 10) =     -6.97022  eV     2   -->   2 G_2            
     e( 11 - 12) =     -2.58743  eV     2   -->   2 G_2            
     e( 13 - 13) =     -2.29026  eV     1   --> G_2            
     e( 14 - 14) =     -2.28921  eV     1   --> G_2            
     e( 15 - 15) =     -1.84504  eV     1   --> G_2            
     e( 16 - 16) =     -1.84462  eV     1   --> G_2            
     e( 17 - 17) =     -1.75753  eV     1   --> G_2            
     e( 18 - 18) =     -1.75636  eV     1   --> G_2            
     e( 19 - 19) =     -1.56791  eV     1   --> G_2            
     e( 20 - 20) =     -1.56709  eV     1   --> G_2            
     e( 21 - 21) =     -1.36592  eV     1   --> G_2            
     e( 22 - 22) =     -1.36508  eV     1   --> G_2            
     e( 23 - 23) =     -1.10256  eV     1   --> G_2            
     e( 24 - 24) =     -1.10197  eV     1   --> G_2            
     e( 25 - 25) =     -0.91879  eV     1   --> G_2            
     e( 26 - 26) =     -0.91837  eV     1   --> G_2            
     e( 27 - 27) =     -0.63235  eV     1   --> G_2            
     e( 28 - 28) =     -0.63191  eV     1   --> G_2            
     e( 29 - 29) =      0.05453  eV     1   --> G_2            
     e( 30 - 30) =      0.05496  eV     1   --> G_2            
     e( 31 - 31) =      0.56900  eV     1   --> G_2            
     e( 32 - 32) =      0.56930  eV     1   --> G_2            
     e( 33 - 33) =      0.91520  eV     1   --> G_2            
     e( 34 - 34) =      0.91561  eV     1   --> G_2            
     e( 35 - 35) =      1.28336  eV     1   --> G_2            
     e( 36 - 36) =      1.28411  eV     1   --> G_2            
     e( 37 - 37) =      1.93042  eV     1   --> G_2            
     e( 38 - 38) =      1.93088  eV     1   --> G_2            
     e( 39 - 40) =      2.12003  eV     2   -->   2 G_2            
     e( 41 - 42) =      4.17164  eV     2   -->   2 G_2            
     e( 43 - 44) =      4.34346  eV     2   -->   2 G_2            
     e( 45 - 46) =      4.98636  eV     2   -->   2 G_2            
     e( 47 - 48) =      5.24724  eV     2   -->   2 G_2            
     e( 49 - 50) =      5.50004  eV     2   -->   2 G_2            
     e( 51 - 52) =      5.85647  eV     2   -->   2 G_2            
     e( 53 - 54) =      6.37923  eV     2   -->   2 G_2            
     e( 55 - 55) =      6.48415  eV     1   --> G_2            
     e( 56 - 56) =      6.48481  eV     1   --> G_2            
     e( 57 - 57) =      6.61109  eV     1   --> G_2            
     e( 58 - 58) =      6.61217  eV     1   --> G_2            
     e( 59 - 59) =      6.72229  eV     1   --> G_2            
     e( 60 - 60) =      6.72272  eV     1   --> G_2            
     e( 61 - 62) =      7.17078  eV     2   -->   2 G_2            
     e( 63 - 64) =      7.60598  eV     2   -->   2 G_2            
     e( 65 - 66) =      7.71758  eV     2   -->   2 G_2            
     e( 67 - 68) =      7.95705  eV     2   -->   2 G_2            
     e( 69 - 69) =      8.08691  eV     1   --> G_2            
     e( 70 - 70) =      8.08704  eV     1   --> G_2            
     e( 71 - 72) =      8.54859  eV     2   -->   2 G_2            
     e( 73 - 73) =      8.89016  eV     1   --> G_2            
     e( 74 - 74) =      8.89026  eV     1   --> G_2            
     e( 75 - 75) =      9.15615  eV     1   --> G_2            
     e( 76 - 76) =      9.15631  eV     1   --> G_2            
     e( 77 - 77) =      9.31130  eV     1   --> G_2            
     e( 78 - 78) =      9.31151  eV     1   --> G_2            
     e( 79 - 79) =      9.73691  eV     1   --> G_2            
     e( 80 - 80) =      9.73715  eV     1   --> G_2            
     e( 81 - 81) =      9.83171  eV     1   --> G_2            
     e( 82 - 82) =      9.83194  eV     1   --> G_2            
     e( 83 - 84) =     10.76730  eV     2   -->   2 G_2            
     e( 85 - 86) =     10.84601  eV     2   -->   2 G_2            
     e( 87 - 88) =     11.52734  eV     2   -->   2 G_2            
     e( 89 - 89) =     11.95042  eV     1   --> G_2            
     e( 90 - 90) =     11.95055  eV     1   --> G_2            
     e( 91 - 91) =     12.15324  eV     1   --> G_2            
     e( 92 - 92) =     12.15340  eV     1   --> G_2            
     e( 93 - 94) =     12.34332  eV     2   -->   2 G_2            
     e( 95 - 96) =     12.52091  eV     2   -->   2 G_2            
     e( 97 - 98) =     12.91440  eV     2   -->   2 G_2            
     e( 99 -100) =     13.31399  eV     2   -->   2 G_2            

 **************************************************************************

 **************************************************************************

                    xk=(   0.04286,   0.02474,   0.00000  )

     Band symmetry, C_1 (1)     double point group:

     e(  1 -  2) =    -12.61706  eV     2   -->   2 G_2            
     e(  3 -  4) =    -12.08375  eV     2   -->   2 G_2            
     e(  5 -  6) =    -11.01023  eV     2   -->   2 G_2            
     e(  7 -  8) =     -8.29589  eV     2   -->   2 G_2            
     e(  9 - 10) =     -6.97944  eV     2   -->   2 G_2            
     e( 11 - 11) =     -2.59710  eV     1   --> G_2            
     e( 12 - 12) =     -2.59697  eV     1   --> G_2            
     e( 13 - 13) =     -2.33915  eV     1   --> G_2            
     e( 14 - 14) =     -2.33796  eV     1   --> G_2            
     e( 15 - 15) =     -1.85379  eV     1   --> G_2            
     e( 16 - 16) =     -1.85330  eV     1   --> G_2            
     e( 17 - 17) =     -1.79880  eV     1   --> G_2            
     e( 18 - 18) =     -1.79796  eV     1   --> G_2            
     e( 19 - 19) =     -1.57650  eV     1   --> G_2            
     e( 20 - 20) =     -1.57562  eV     1   --> G_2            
     e( 21 - 21) =     -1.36377  eV     1   --> G_2            
     e( 22 - 22) =     -1.36296  eV     1   --> G_2            
     e( 23 - 23) =     -1.09646  eV     1   --> G_2            
     e( 24 - 24) =     -1.09589  eV     1   --> G_2            
     e( 25 - 25) =     -0.91652  eV     1   --> G_2            
     e( 26 - 26) =     -0.91610  eV     1   --> G_2            
     e( 27 - 27) =     -0.60434  eV     1   --> G_2            
     e( 28 - 28) =     -0.60383  eV     1   --> G_2            
     e( 29 - 29) =      0.10016  eV     1   --> G_2            
     e( 30 - 30) =      0.10066  eV     1   --> G_2            
     e( 31 - 31) =      0.55688  eV     1   --> G_2            
     e( 32 - 32) =      0.55716  eV     1   --> G_2            
     e( 33 - 33) =      0.90849  eV     1   --> G_2            
     e( 34 - 34) =      0.90886  eV     1   --> G_2            
     e( 35 - 35) =      1.31388  eV     1   --> G_2            
     e( 36 - 36) =      1.31468  eV     1   --> G_2            
     e( 37 - 37) =      1.94619  eV     1   --> G_2            
     e( 38 - 38) =      1.94675  eV     1   --> G_2            
     e( 39 - 40) =      2.12198  eV     2   -->   2 G_2            
     e( 41 - 42) =      4.17951  eV     2   -->   2 G_2            
     e( 43 - 44) =      4.34420  eV     2   -->   2 G_2            
     e( 45 - 46) =      4.98625  eV     2   -->   2 G_2            
     e( 47 - 48) =      5.22818  eV     2   -->   2 G_2            
     e( 49 - 50) =      5.49904  eV     2   -->   2 G_2            
     e( 51 - 52) =      5.86124  eV     2   -->   2 G_2            
     e( 53 - 54) =      6.38815  eV     2   -->   2 G_2            
     e( 55 - 55) =      6.47300  eV     1   --> G_2            
     e( 56 - 56) =      6.47357  eV     1   --> G_2            
     e( 57 - 57) =      6.60457  eV     1   --> G_2            
     e( 58 - 58) =      6.60547  eV     1   --> G_2            
     e( 59 - 59) =      6.74434  eV     1   --> G_2            
     e( 60 - 60) =      6.74465  eV     1   --> G_2            
     e( 61 - 62) =      7.16260  eV     2   -->   2 G_2            
     e( 63 - 64) =      7.64386  eV     2   -->   2 G_2            
     e( 65 - 66) =      7.73632  eV     2   -->   2 G_2            
     e( 67 - 68) =      7.94716  eV     2   -->   2 G_2            
     e( 69 - 69) =      8.10894  eV     1   --> G_2            
     e( 70 - 70) =      8.10906  eV     1   --> G_2            
     e( 71 - 72) =      8.56741  eV     2   -->   2 G_2            
     e( 73 - 73) =      8.88287  eV     1   --> G_2            
     e( 74 - 74) =      8.88300  eV     1   --> G_2            
     e( 75 - 75) =      9.13307  eV     1   --> G_2            
     e( 76 - 76) =      9.13321  eV     1   --> G_2            
     e( 77 - 77) =      9.28610  eV     1   --> G_2            
     e( 78 - 78) =      9.28627  eV     1   --> G_2            
     e( 79 - 79) =      9.79567  eV     1   --> G_2            
     e( 80 - 80) =      9.79595  eV     1   --> G_2            
     e( 81 - 81) =      9.87881  eV     1   --> G_2            
     e( 82 - 82) =      9.87908  eV     1   --> G_2            
     e( 83 - 84) =     10.75602  eV     2   -->   2 G_2            
     e( 85 - 86) =     10.85429  eV     2   -->   2 G_2            
     e( 87 - 88) =     11.48358  eV     2   -->   2 G_2            
     e( 89 - 90) =     11.91758  eV     2   -->   2 G_2            
     e( 91 - 91) =     12.16686  eV     1   --> G_2            
     e( 92 - 92) =     12.16698  eV     1   --> G_2            
     e( 93 - 94) =     12.37468  eV     2   -->   2 G_2            
     e( 95 - 96) =     12.55291  eV     2   -->   2 G_2            
     e( 97 - 98) =     12.84959  eV     2   -->   2 G_2            
     e( 99 -100) =     13.33655  eV     2   -->   2 G_2            

 **************************************************************************

 **************************************************************************

                    xk=(   0.05000,   0.02887,   0.00000  )

     Band symmetry, C_1 (1)     double point group:

     e(  1 -  2) =    -12.61172  eV     2   -->   2 G_2            
     e(  3 -  4) =    -12.07894  eV     2   -->   2 G_2            
     e(  5 -  6) =    -11.00748  eV     2   -->   2 G_2            
     e(  7 -  8) =     -8.29741  eV     2   -->   2 G_2            
     e(  9 - 10) =     -6.99033  eV     2   -->   2 G_2            
     e( 11 - 11) =     -2.60884  eV     1   --> G_2            
     e( 12 - 12) =     -2.60863  eV     1   --> G_2            
     e( 13 - 13) =     -2.39196  eV     1   --> G_2            
     e( 14 - 14) =     -2.39062  eV     1   --> G_2            
     e( 15 - 15) =     -1.87537  eV     1   --> G_2            
     e( 16 - 16) =     -1.87415  eV     1   --> G_2            
     e( 17 - 17) =     -1.83158  eV     1   --> G_2            
     e( 18 - 18) =     -1.83090  eV     1   --> G_2            
     e( 19 - 19) =     -1.58695  eV     1   --> G_2            
     e( 20 - 20) =     -1.58600  eV     1   --> G_2            
     e( 21 - 21) =     -1.36881  eV     1   --> G_2            
     e( 22 - 22) =     -1.36806  eV     1   --> G_2            
     e( 23 - 23) =     -1.09471  eV     1   --> G_2            
     e( 24 - 24) =     -1.09422  eV     1   --> G_2            
     e( 25 - 25) =     -0.90383  eV     1   --> G_2            
     e( 26 - 26) =     -0.90346  eV     1   --> G_2            
     e( 27 - 27) =     -0.57317  eV     1   --> G_2            
     e( 28 - 28) =     -0.57262  eV     1   --> G_2            
     e( 29 - 29) =      0.14490  eV     1   --> G_2            
     e( 30 - 30) =      0.14548  eV     1   --> G_2            
     e( 31 - 31) =      0.54678  eV     1   --> G_2            
     e( 32 - 32) =      0.54701  eV     1   --> G_2            
     e( 33 - 33) =      0.90797  eV     1   --> G_2            
     e( 34 - 34) =      0.90829  eV     1   --> G_2            
     e( 35 - 35) =      1.34295  eV     1   --> G_2            
     e( 36 - 36) =      1.34380  eV     1   --> G_2            
     e( 37 - 37) =      1.96205  eV     1   --> G_2            
     e( 38 - 38) =      1.96272  eV     1   --> G_2            
     e( 39 - 39) =      2.12713  eV     1   --> G_2            
     e( 40 - 40) =      2.12728  eV     1   --> G_2            
     e( 41 - 42) =      4.18870  eV     2   -->   2 G_2            
     e( 43 - 44) =      4.34496  eV     2   -->   2 G_2            
     e( 45 - 46) =      4.98466  eV     2   -->   2 G_2            
     e( 47 - 48) =      5.20804  eV     2   -->   2 G_2            
     e( 49 - 50) =      5.49842  eV     2   -->   2 G_2            
     e( 51 - 52) =      5.86789  eV     2   -->   2 G_2            
     e( 53 - 53) =      6.38428  eV     1   --> G_2            
     e( 54 - 54) =      6.38441  eV     1   --> G_2            
     e( 55 - 55) =      6.47262  eV     1   --> G_2            
     e( 56 - 56) =      6.47303  eV     1   --> G_2            
     e( 57 - 57) =      6.60034  eV     1   --> G_2            
     e( 58 - 58) =      6.60110  eV     1   --> G_2            
     e( 59 - 59) =      6.76997  eV     1   --> G_2            
     e( 60 - 60) =      6.77020  eV     1   --> G_2            
     e( 61 - 62) =      7.15538  eV     2   -->   2 G_2            
     e( 63 - 64) =      7.67359  eV     2   -->   2 G_2            
     e( 65 - 66) =      7.75808  eV     2   -->   2 G_2            
     e( 67 - 68) =      7.94462  eV     2   -->   2 G_2            
     e( 69 - 69) =      8.13545  eV     1   --> G_2            
     e( 70 - 70) =      8.13555  eV     1   --> G_2            
     e( 71 - 72) =      8.59070  eV     2   -->   2 G_2            
     e( 73 - 73) =      8.86617  eV     1   --> G_2            
     e( 74 - 74) =      8.86633  eV     1   --> G_2            
     e( 75 - 75) =      9.12178  eV     1   --> G_2            
     e( 76 - 76) =      9.12189  eV     1   --> G_2            
     e( 77 - 77) =      9.26306  eV     1   --> G_2            
     e( 78 - 78) =      9.26321  eV     1   --> G_2            
     e( 79 - 79) =      9.85252  eV     1   --> G_2            
     e( 80 - 80) =      9.85284  eV     1   --> G_2            
     e( 81 - 81) =      9.92926  eV     1   --> G_2            
     e( 82 - 82) =      9.92956  eV     1   --> G_2            
     e( 83 - 84) =     10.74271  eV     2   -->   2 G_2            
     e( 85 - 86) =     10.86441  eV     2   -->   2 G_2            
     e( 87 - 88) =     11.44241  eV     2   -->   2 G_2            
     e( 89 - 90) =     11.88341  eV     2   -->   2 G_2            
     e( 91 - 92) =     12.17510  eV     2   -->   2 G_2            
     e( 93 - 93) =     12.40935  eV     1   --> G_2            
     e( 94 - 94) =     12.40946  eV     1   --> G_2            
     e( 95 - 96) =     12.57294  eV     2   -->   2 G_2            
     e( 97 - 98) =     12.79129  eV     2   -->   2 G_2            
     e( 99 -100) =     13.37137  eV     2   -->   2 G_2            

 **************************************************************************

 **************************************************************************

                    xk=(   0.05714,   0.03299,   0.00000  )

     Band symmetry, C_1 (1)     double point group:

     e(  1 -  2) =    -12.60557  eV     2   -->   2 G_2            
     e(  3 -  4) =    -12.07339  eV     2   -->   2 G_2            
     e(  5 -  6) =    -11.00432  eV     2   -->   2 G_2            
     e(  7 -  8) =     -8.29920  eV     2   -->   2 G_2            
     e(  9 - 10) =     -7.00287  eV     2   -->   2 G_2            
     e( 11 - 11) =     -2.62306  eV     1   --> G_2            
     e( 12 - 12) =     -2.62272  eV     1   --> G_2            
     e( 13 - 13) =     -2.44741  eV     1   --> G_2            
     e( 14 - 14) =     -2.44588  eV     1   --> G_2            
     e( 15 - 15) =     -1.91263  eV     1   --> G_2            
     e( 16 - 16) =     -1.91104  eV     1   --> G_2            
     e( 17 - 17) =     -1.85201  eV     1   --> G_2            
     e( 18 - 18) =     -1.85114  eV     1   --> G_2            
     e( 19 - 19) =     -1.60010  eV     1   --> G_2            
     e( 20 - 20) =     -1.59902  eV     1   --> G_2            
     e( 21 - 21) =     -1.38046  eV     1   --> G_2            
     e( 22 - 22) =     -1.37977  eV     1   --> G_2            
     e( 23 - 23) =     -1.09484  eV     1   --> G_2            
     e( 24 - 24) =     -1.09443  eV     1   --> G_2            
     e( 25 - 25) =     -0.88233  eV     1   --> G_2            
     e( 26 - 26) =     -0.88203  eV     1   --> G_2            
     e( 27 - 27) =     -0.54085  eV     1   --> G_2            
     e( 28 - 28) =     -0.54027  eV     1   --> G_2            
     e( 29 - 29) =      0.18543  eV     1   --> G_2            
     e( 30 - 30) =      0.18607  eV     1   --> G_2            
     e( 31 - 31) =      0.54240  eV     1   --> G_2            
     e( 32 - 32) =      0.54256  eV     1   --> G_2            
     e( 33 - 33) =      0.91345  eV     1   --> G_2            
     e( 34 - 34) =      0.91370  eV     1   --> G_2            
     e( 35 - 35) =      1.37024  eV     1   --> G_2            
     e( 36 - 36) =      1.37114  eV     1   --> G_2            
     e( 37 - 37) =      1.97643  eV     1   --> G_2            
     e( 38 - 38) =      1.97719  eV     1   --> G_2            
     e( 39 - 39) =      2.13701  eV     1   --> G_2            
     e( 40 - 40) =      2.13721  eV     1   --> G_2            
     e( 41 - 41) =      4.19917  eV     1   --> G_2            
     e( 42 - 42) =      4.19927  eV     1   --> G_2            
     e( 43 - 44) =      4.34566  eV     2   -->   2 G_2            
     e( 45 - 46) =      4.98055  eV     2   -->   2 G_2            
     e( 47 - 48) =      5.18843  eV     2   -->   2 G_2            
     e( 49 - 50) =      5.49824  eV     2   -->   2 G_2            
     e( 51 - 52) =      5.87653  eV     2   -->   2 G_2            
     e( 53 - 53) =      6.36699  eV     1   --> G_2            
     e( 54 - 54) =      6.36718  eV     1   --> G_2            
     e( 55 - 55) =      6.48420  eV     1   --> G_2            
     e( 56 - 56) =      6.48448  eV     1   --> G_2            
     e( 57 - 57) =      6.59874  eV     1   --> G_2            
     e( 58 - 58) =      6.59938  eV     1   --> G_2            
     e( 59 - 59) =      6.79830  eV     1   --> G_2            
     e( 60 - 60) =      6.79848  eV     1   --> G_2            
     e( 61 - 62) =      7.14953  eV     2   -->   2 G_2            
     e( 63 - 64) =      7.68863  eV     2   -->   2 G_2            
     e( 65 - 66) =      7.78379  eV     2   -->   2 G_2            
     e( 67 - 68) =      7.95407  eV     2   -->   2 G_2            
     e( 69 - 70) =      8.16637  eV     2   -->   2 G_2            
     e( 71 - 72) =      8.61841  eV     2   -->   2 G_2            
     e( 73 - 73) =      8.84151  eV     1   --> G_2            
     e( 74 - 74) =      8.84170  eV     1   --> G_2            
     e( 75 - 75) =      9.12052  eV     1   --> G_2            
     e( 76 - 76) =      9.12063  eV     1   --> G_2            
     e( 77 - 77) =      9.24328  eV     1   --> G_2            
     e( 78 - 78) =      9.24341  eV     1   --> G_2            
     e( 79 - 79) =      9.90680  eV     1   --> G_2            
     e( 80 - 80) =      9.90712  eV     1   --> G_2            
     e( 81 - 81) =      9.98217  eV     1   --> G_2            
     e( 82 - 82) =      9.98247  eV     1   --> G_2            
     e( 83 - 84) =     10.72773  eV     2   -->   2 G_2            
     e( 85 - 86) =     10.87635  eV     2   -->   2 G_2            
     e( 87 - 88) =     11.40492  eV     2   -->   2 G_2            
     e( 89 - 90) =     11.84937  eV     2   -->   2 G_2            
     e( 91 - 92) =     12.17748  eV     2   -->   2 G_2            
     e( 93 - 93) =     12.43976  eV     1   --> G_2            
     e( 94 - 94) =     12.43992  eV     1   --> G_2            
     e( 95 - 95) =     12.56633  eV     1   --> G_2            
     e( 96 - 96) =     12.56648  eV     1   --> G_2            
     e( 97 - 98) =     12.76618  eV     2   -->   2 G_2            
     e( 99 -100) =     13.40592  eV     2   -->   2 G_2            

 **************************************************************************

 **************************************************************************

                    xk=(   0.06429,   0.03712,   0.00000  )

     Band symmetry, C_1 (1)     double point group:

     e(  1 -  2) =    -12.59860  eV     2   -->   2 G_2            
     e(  3 -  4) =    -12.06711  eV     2   -->   2 G_2            
     e(  5 -  6) =    -11.00076  eV     2   -->   2 G_2            
     e(  7 -  8) =     -8.30128  eV     2   -->   2 G_2            
     e(  9 - 10) =     -7.01704  eV     2   -->   2 G_2            
     e( 11 - 11) =     -2.64071  eV     1   --> G_2            
     e( 12 - 12) =     -2.64016  eV     1   --> G_2            
     e( 13 - 13) =     -2.50381  eV     1   --> G_2            
     e( 14 - 14) =     -2.50203  eV     1   --> G_2            
     e( 15 - 15) =     -1.95645  eV     1   --> G_2            
     e( 16 - 16) =     -1.95486  eV     1   --> G_2            
     e( 17 - 17) =     -1.86839  eV     1   --> G_2            
     e( 18 - 18) =     -1.86755  eV     1   --> G_2            
     e( 19 - 19) =     -1.61669  eV     1   --> G_2            
     e( 20 - 20) =     -1.61546  eV     1   --> G_2            
     e( 21 - 21) =     -1.39733  eV     1   --> G_2            
     e( 22 - 22) =     -1.39667  eV     1   --> G_2            
     e( 23 - 23) =     -1.09403  eV     1   --> G_2            
     e( 24 - 24) =     -1.09370  eV     1   --> G_2            
     e( 25 - 25) =     -0.85500  eV     1   --> G_2            
     e( 26 - 26) =     -0.85472  eV     1   --> G_2            
     e( 27 - 27) =     -0.50947  eV     1   --> G_2            
     e( 28 - 28) =     -0.50888  eV     1   --> G_2            
     e( 29 - 29) =      0.21860  eV     1   --> G_2            
     e( 30 - 30) =      0.21931  eV     1   --> G_2            
     e( 31 - 31) =      0.54772  eV     1   --> G_2            
     e( 32 - 32) =      0.54790  eV     1   --> G_2            
     e( 33 - 33) =      0.92444  eV     1   --> G_2            
     e( 34 - 34) =      0.92461  eV     1   --> G_2            
     e( 35 - 35) =      1.39567  eV     1   --> G_2            
     e( 36 - 36) =      1.39660  eV     1   --> G_2            
     e( 37 - 37) =      1.98810  eV     1   --> G_2            
     e( 38 - 38) =      1.98894  eV     1   --> G_2            
     e( 39 - 39) =      2.15279  eV     1   --> G_2            
     e( 40 - 40) =      2.15304  eV     1   --> G_2            
     e( 41 - 41) =      4.21085  eV     1   --> G_2            
     e( 42 - 42) =      4.21097  eV     1   --> G_2            
     e( 43 - 43) =      4.34622  eV     1   --> G_2            
     e( 44 - 44) =      4.34632  eV     1   --> G_2            
     e( 45 - 46) =      4.97266  eV     2   -->   2 G_2            
     e( 47 - 48) =      5.17125  eV     2   -->   2 G_2            
     e( 49 - 50) =      5.49853  eV     2   -->   2 G_2            
     e( 51 - 52) =      5.88717  eV     2   -->   2 G_2            
     e( 53 - 53) =      6.34304  eV     1   --> G_2            
     e( 54 - 54) =      6.34326  eV     1   --> G_2            
     e( 55 - 55) =      6.50162  eV     1   --> G_2            
     e( 56 - 56) =      6.50182  eV     1   --> G_2            
     e( 57 - 57) =      6.59936  eV     1   --> G_2            
     e( 58 - 58) =      6.59990  eV     1   --> G_2            
     e( 59 - 59) =      6.82881  eV     1   --> G_2            
     e( 60 - 60) =      6.82895  eV     1   --> G_2            
     e( 61 - 62) =      7.14539  eV     2   -->   2 G_2            
     e( 63 - 64) =      7.68790  eV     2   -->   2 G_2            
     e( 65 - 66) =      7.81222  eV     2   -->   2 G_2            
     e( 67 - 67) =      7.97725  eV     1   --> G_2            
     e( 68 - 68) =      7.97736  eV     1   --> G_2            
     e( 69 - 70) =      8.20129  eV     2   -->   2 G_2            
     e( 71 - 71) =      8.65013  eV     1   --> G_2            
     e( 72 - 72) =      8.65025  eV     1   --> G_2            
     e( 73 - 73) =      8.81270  eV     1   --> G_2            
     e( 74 - 74) =      8.81292  eV     1   --> G_2            
     e( 75 - 75) =      9.12546  eV     1   --> G_2            
     e( 76 - 76) =      9.12556  eV     1   --> G_2            
     e( 77 - 77) =      9.22794  eV     1   --> G_2            
     e( 78 - 78) =      9.22806  eV     1   --> G_2            
     e( 79 - 79) =      9.95830  eV     1   --> G_2            
     e( 80 - 80) =      9.95860  eV     1   --> G_2            
     e( 81 - 81) =     10.03626  eV     1   --> G_2            
     e( 82 - 82) =     10.03654  eV     1   --> G_2            
     e( 83 - 84) =     10.71171  eV     2   -->   2 G_2            
     e( 85 - 86) =     10.89004  eV     2   -->   2 G_2            
     e( 87 - 88) =     11.37195  eV     2   -->   2 G_2            
     e( 89 - 90) =     11.81626  eV     2   -->   2 G_2            
     e( 91 - 92) =     12.17160  eV     2   -->   2 G_2            
     e( 93 - 93) =     12.44417  eV     1   --> G_2            
     e( 94 - 94) =     12.44436  eV     1   --> G_2            
     e( 95 - 95) =     12.55332  eV     1   --> G_2            
     e( 96 - 96) =     12.55348  eV     1   --> G_2            
     e( 97 - 98) =     12.77994  eV     2   -->   2 G_2            
     e( 99 - 99) =     13.41268  eV     1   --> G_2            
     e(100 -100) =     13.41300  eV     1   --> G_2            

 **************************************************************************

 **************************************************************************

                    xk=(   0.07143,   0.04124,   0.00000  )

     Band symmetry, C_1 (1)     double point group:

     e(  1 -  2) =    -12.59082  eV     2   -->   2 G_2            
     e(  3 -  4) =    -12.06011  eV     2   -->   2 G_2            
     e(  5 -  6) =    -10.99680  eV     2   -->   2 G_2            
     e(  7 -  8) =     -8.30365  eV     2   -->   2 G_2            
     e(  9 - 10) =     -7.03284  eV     2   -->   2 G_2            
     e( 11 - 11) =     -2.66405  eV     1   --> G_2            
     e( 12 - 12) =     -2.66321  eV     1   --> G_2            
     e( 13 - 13) =     -2.55821  eV     1   --> G_2            
     e( 14 - 14) =     -2.55612  eV     1   --> G_2            
     e( 15 - 15) =     -2.00230  eV     1   --> G_2            
     e( 16 - 16) =     -2.00078  eV     1   --> G_2            
     e( 17 - 17) =     -1.88504  eV     1   --> G_2            
     e( 18 - 18) =     -1.88428  eV     1   --> G_2            
     e( 19 - 19) =     -1.63730  eV     1   --> G_2            
     e( 20 - 20) =     -1.63590  eV     1   --> G_2            
     e( 21 - 21) =     -1.41744  eV     1   --> G_2            
     e( 22 - 22) =     -1.41677  eV     1   --> G_2            
     e( 23 - 23) =     -1.09094  eV     1   --> G_2            
     e( 24 - 24) =     -1.09064  eV     1   --> G_2            
     e( 25 - 25) =     -0.82426  eV     1   --> G_2            
     e( 26 - 26) =     -0.82395  eV     1   --> G_2            
     e( 27 - 27) =     -0.48121  eV     1   --> G_2            
     e( 28 - 28) =     -0.48062  eV     1   --> G_2            
     e( 29 - 29) =      0.24298  eV     1   --> G_2            
     e( 30 - 30) =      0.24373  eV     1   --> G_2            
     e( 31 - 31) =      0.56541  eV     1   --> G_2            
     e( 32 - 32) =      0.56570  eV     1   --> G_2            
     e( 33 - 34) =      0.94038  eV     2   -->   2 G_2            
     e( 35 - 35) =      1.41934  eV     1   --> G_2            
     e( 36 - 36) =      1.42030  eV     1   --> G_2            
     e( 37 - 37) =      1.99680  eV     1   --> G_2            
     e( 38 - 38) =      1.99770  eV     1   --> G_2            
     e( 39 - 39) =      2.17463  eV     1   --> G_2            
     e( 40 - 40) =      2.17492  eV     1   --> G_2            
     e( 41 - 41) =      4.22369  eV     1   --> G_2            
     e( 42 - 42) =      4.22383  eV     1   --> G_2            
     e( 43 - 43) =      4.34649  eV     1   --> G_2            
     e( 44 - 44) =      4.34662  eV     1   --> G_2            
     e( 45 - 46) =      4.95988  eV     2   -->   2 G_2            
     e( 47 - 47) =      5.15825  eV     1   --> G_2            
     e( 48 - 48) =      5.15836  eV     1   --> G_2            
     e( 49 - 50) =      5.49931  eV     2   -->   2 G_2            
     e( 51 - 52) =      5.89980  eV     2   -->   2 G_2            
     e( 53 - 53) =      6.31718  eV     1   --> G_2            
     e( 54 - 54) =      6.31739  eV     1   --> G_2            
     e( 55 - 55) =      6.52075  eV     1   --> G_2            
     e( 56 - 56) =      6.52091  eV     1   --> G_2            
     e( 57 - 57) =      6.60155  eV     1   --> G_2            
     e( 58 - 58) =      6.60201  eV     1   --> G_2            
     e( 59 - 59) =      6.86113  eV     1   --> G_2            
     e( 60 - 60) =      6.86125  eV     1   --> G_2            
     e( 61 - 62) =      7.14336  eV     2   -->   2 G_2            
     e( 63 - 64) =      7.67581  eV     2   -->   2 G_2            
     e( 65 - 66) =      7.84113  eV     2   -->   2 G_2            
     e( 67 - 67) =      8.01178  eV     1   --> G_2            
     e( 68 - 68) =      8.01191  eV     1   --> G_2            
     e( 69 - 70) =      8.23926  eV     2   -->   2 G_2            
     e( 71 - 71) =      8.68412  eV     1   --> G_2            
     e( 72 - 72) =      8.68430  eV     1   --> G_2            
     e( 73 - 73) =      8.78492  eV     1   --> G_2            
     e( 74 - 74) =      8.78519  eV     1   --> G_2            
     e( 75 - 75) =      9.13267  eV     1   --> G_2            
     e( 76 - 76) =      9.13278  eV     1   --> G_2            
     e( 77 - 77) =      9.21844  eV     1   --> G_2            
     e( 78 - 78) =      9.21856  eV     1   --> G_2            
     e( 79 - 79) =     10.00703  eV     1   --> G_2            
     e( 80 - 80) =     10.00730  eV     1   --> G_2            
     e( 81 - 81) =     10.08998  eV     1   --> G_2            
     e( 82 - 82) =     10.09023  eV     1   --> G_2            
     e( 83 - 84) =     10.69554  eV     2   -->   2 G_2            
     e( 85 - 86) =     10.90534  eV     2   -->   2 G_2            
     e( 87 - 88) =     11.34420  eV     2   -->   2 G_2            
     e( 89 - 90) =     11.78459  eV     2   -->   2 G_2            
     e( 91 - 92) =     12.15041  eV     2   -->   2 G_2            
     e( 93 - 93) =     12.41404  eV     1   --> G_2            
     e( 94 - 94) =     12.41416  eV     1   --> G_2            
     e( 95 - 96) =     12.56941  eV     2   -->   2 G_2            
     e( 97 - 98) =     12.81290  eV     2   -->   2 G_2            
     e( 99 - 99) =     13.33612  eV     1   --> G_2            
     e(100 -100) =     13.33631  eV     1   --> G_2            

 **************************************************************************

 **************************************************************************

                    xk=(   0.07857,   0.04536,   0.00000  )

     Band symmetry, C_1 (1)     double point group:

     e(  1 -  2) =    -12.58222  eV     2   -->   2 G_2            
     e(  3 -  4) =    -12.05238  eV     2   -->   2 G_2            
     e(  5 -  6) =    -10.99245  eV     2   -->   2 G_2            
     e(  7 -  8) =     -8.30634  eV     2   -->   2 G_2            
     e(  9 - 10) =     -7.05024  eV     2   -->   2 G_2            
     e( 11 - 11) =     -2.69768  eV     1   --> G_2            
     e( 12 - 12) =     -2.69666  eV     1   --> G_2            
     e( 13 - 13) =     -2.60523  eV     1   --> G_2            
     e( 14 - 14) =     -2.60294  eV     1   --> G_2            
     e( 15 - 15) =     -2.04912  eV     1   --> G_2            
     e( 16 - 16) =     -2.04768  eV     1   --> G_2            
     e( 17 - 17) =     -1.90277  eV     1   --> G_2            
     e( 18 - 18) =     -1.90208  eV     1   --> G_2            
     e( 19 - 19) =     -1.66219  eV     1   --> G_2            
     e( 20 - 20) =     -1.66062  eV     1   --> G_2            
     e( 21 - 21) =     -1.43873  eV     1   --> G_2            
     e( 22 - 22) =     -1.43802  eV     1   --> G_2            
     e( 23 - 23) =     -1.08547  eV     1   --> G_2            
     e( 24 - 24) =     -1.08520  eV     1   --> G_2            
     e( 25 - 25) =     -0.79176  eV     1   --> G_2            
     e( 26 - 26) =     -0.79140  eV     1   --> G_2            
     e( 27 - 27) =     -0.45819  eV     1   --> G_2            
     e( 28 - 28) =     -0.45760  eV     1   --> G_2            
     e( 29 - 29) =      0.26028  eV     1   --> G_2            
     e( 30 - 30) =      0.26104  eV     1   --> G_2            
     e( 31 - 31) =      0.59506  eV     1   --> G_2            
     e( 32 - 32) =      0.59546  eV     1   --> G_2            
     e( 33 - 34) =      0.96073  eV     2   -->   2 G_2            
     e( 35 - 35) =      1.44153  eV     1   --> G_2            
     e( 36 - 36) =      1.44251  eV     1   --> G_2            
     e( 37 - 37) =      2.00332  eV     1   --> G_2            
     e( 38 - 38) =      2.00425  eV     1   --> G_2            
     e( 39 - 39) =      2.20166  eV     1   --> G_2            
     e( 40 - 40) =      2.20197  eV     1   --> G_2            
     e( 41 - 41) =      4.23763  eV     1   --> G_2            
     e( 42 - 42) =      4.23779  eV     1   --> G_2            
     e( 43 - 43) =      4.34634  eV     1   --> G_2            
     e( 44 - 44) =      4.34649  eV     1   --> G_2            
     e( 45 - 46) =      4.94184  eV     2   -->   2 G_2            
     e( 47 - 47) =      5.15047  eV     1   --> G_2            
     e( 48 - 48) =      5.15057  eV     1   --> G_2            
     e( 49 - 50) =      5.50060  eV     2   -->   2 G_2            
     e( 51 - 52) =      5.91433  eV     2   -->   2 G_2            
     e( 53 - 53) =      6.29171  eV     1   --> G_2            
     e( 54 - 54) =      6.29191  eV     1   --> G_2            
     e( 55 - 55) =      6.53967  eV     1   --> G_2            
     e( 56 - 56) =      6.53980  eV     1   --> G_2            
     e( 57 - 57) =      6.60467  eV     1   --> G_2            
     e( 58 - 58) =      6.60506  eV     1   --> G_2            
     e( 59 - 59) =      6.89496  eV     1   --> G_2            
     e( 60 - 60) =      6.89506  eV     1   --> G_2            
     e( 61 - 62) =      7.14381  eV     2   -->   2 G_2            
     e( 63 - 64) =      7.65742  eV     2   -->   2 G_2            
     e( 65 - 66) =      7.86952  eV     2   -->   2 G_2            
     e( 67 - 67) =      8.05369  eV     1   --> G_2            
     e( 68 - 68) =      8.05383  eV     1   --> G_2            
     e( 69 - 70) =      8.27865  eV     2   -->   2 G_2            
     e( 71 - 71) =      8.71043  eV     1   --> G_2            
     e( 72 - 72) =      8.71065  eV     1   --> G_2            
     e( 73 - 73) =      8.77115  eV     1   --> G_2            
     e( 74 - 74) =      8.77147  eV     1   --> G_2            
     e( 75 - 75) =      9.13938  eV     1   --> G_2            
     e( 76 - 76) =      9.13949  eV     1   --> G_2            
     e( 77 - 77) =      9.21598  eV     1   --> G_2            
     e( 78 - 78) =      9.21609  eV     1   --> G_2            
     e( 79 - 79) =     10.05283  eV     1   --> G_2            
     e( 80 - 80) =     10.05306  eV     1   --> G_2            
     e( 81 - 81) =     10.14179  eV     1   --> G_2            
     e( 82 - 82) =     10.14200  eV     1   --> G_2            
     e( 83 - 84) =     10.68044  eV     2   -->   2 G_2            
     e( 85 - 86) =     10.92202  eV     2   -->   2 G_2            
     e( 87 - 88) =     11.32223  eV     2   -->   2 G_2            
     e( 89 - 90) =     11.75481  eV     2   -->   2 G_2            
     e( 91 - 92) =     12.10492  eV     2   -->   2 G_2            
     e( 93 - 94) =     12.38861  eV     2   -->   2 G_2            
     e( 95 - 96) =     12.59572  eV     2   -->   2 G_2            
     e( 97 - 98) =     12.85256  eV     2   -->   2 G_2            
     e( 99 - 99) =     13.23451  eV     1   --> G_2            
     e(100 -100) =     13.23462  eV     1   --> G_2            

 **************************************************************************

 **************************************************************************

                    xk=(   0.08571,   0.04949,   0.00000  )

     Band symmetry, C_1 (1)     double point group:

     e(  1 -  2) =    -12.57282  eV     2   -->   2 G_2            
     e(  3 -  4) =    -12.04393  eV     2   -->   2 G_2            
     e(  5 -  6) =    -10.98772  eV     2   -->   2 G_2            
     e(  7 -  8) =     -8.30938  eV     2   -->   2 G_2            
     e(  9 - 10) =     -7.06923  eV     2   -->   2 G_2            
     e( 11 - 11) =     -2.74512  eV     1   --> G_2            
     e( 12 - 12) =     -2.74429  eV     1   --> G_2            
     e( 13 - 13) =     -2.64052  eV     1   --> G_2            
     e( 14 - 14) =     -2.63843  eV     1   --> G_2            
     e( 15 - 15) =     -2.09668  eV     1   --> G_2            
     e( 16 - 16) =     -2.09531  eV     1   --> G_2            
     e( 17 - 17) =     -1.92162  eV     1   --> G_2            
     e( 18 - 18) =     -1.92100  eV     1   --> G_2            
     e( 19 - 19) =     -1.69111  eV     1   --> G_2            
     e( 20 - 20) =     -1.68941  eV     1   --> G_2            
     e( 21 - 21) =     -1.45965  eV     1   --> G_2            
     e( 22 - 22) =     -1.45888  eV     1   --> G_2            
     e( 23 - 23) =     -1.07817  eV     1   --> G_2            
     e( 24 - 24) =     -1.07791  eV     1   --> G_2            
     e( 25 - 25) =     -0.75862  eV     1   --> G_2            
     e( 26 - 26) =     -0.75820  eV     1   --> G_2            
     e( 27 - 27) =     -0.44222  eV     1   --> G_2            
     e( 28 - 28) =     -0.44161  eV     1   --> G_2            
     e( 29 - 29) =      0.27465  eV     1   --> G_2            
     e( 30 - 30) =      0.27538  eV     1   --> G_2            
     e( 31 - 31) =      0.63365  eV     1   --> G_2            
     e( 32 - 32) =      0.63414  eV     1   --> G_2            
     e( 33 - 34) =      0.98490  eV     2   -->   2 G_2            
     e( 35 - 35) =      1.46264  eV     1   --> G_2            
     e( 36 - 36) =      1.46363  eV     1   --> G_2            
     e( 37 - 37) =      2.00892  eV     1   --> G_2            
     e( 38 - 38) =      2.00987  eV     1   --> G_2            
     e( 39 - 39) =      2.23251  eV     1   --> G_2            
     e( 40 - 40) =      2.23283  eV     1   --> G_2            
     e( 41 - 41) =      4.25258  eV     1   --> G_2            
     e( 42 - 42) =      4.25277  eV     1   --> G_2            
     e( 43 - 43) =      4.34555  eV     1   --> G_2            
     e( 44 - 44) =      4.34573  eV     1   --> G_2            
     e( 45 - 46) =      4.91924  eV     2   -->   2 G_2            
     e( 47 - 48) =      5.14786  eV     2   -->   2 G_2            
     e( 49 - 50) =      5.50247  eV     2   -->   2 G_2            
     e( 51 - 52) =      5.93068  eV     2   -->   2 G_2            
     e( 53 - 53) =      6.26791  eV     1   --> G_2            
     e( 54 - 54) =      6.26809  eV     1   --> G_2            
     e( 55 - 56) =      6.55708  eV     2   -->   2 G_2            
     e( 57 - 57) =      6.60840  eV     1   --> G_2            
     e( 58 - 58) =      6.60873  eV     1   --> G_2            
     e( 59 - 60) =      6.92998  eV     2   -->   2 G_2            
     e( 61 - 62) =      7.14717  eV     2   -->   2 G_2            
     e( 63 - 64) =      7.63642  eV     2   -->   2 G_2            
     e( 65 - 66) =      7.89709  eV     2   -->   2 G_2            
     e( 67 - 67) =      8.09986  eV     1   --> G_2            
     e( 68 - 68) =      8.10002  eV     1   --> G_2            
     e( 69 - 70) =      8.31702  eV     2   -->   2 G_2            
     e( 71 - 72) =      8.70679  eV     2   -->   2 G_2            
     e( 73 - 73) =      8.79660  eV     1   --> G_2            
     e( 74 - 74) =      8.79676  eV     1   --> G_2            
     e( 75 - 75) =      9.14501  eV     1   --> G_2            
     e( 76 - 76) =      9.14512  eV     1   --> G_2            
     e( 77 - 77) =      9.22043  eV     1   --> G_2            
     e( 78 - 78) =      9.22053  eV     1   --> G_2            
     e( 79 - 79) =     10.09514  eV     1   --> G_2            
     e( 80 - 80) =     10.09533  eV     1   --> G_2            
     e( 81 - 81) =     10.19034  eV     1   --> G_2            
     e( 82 - 82) =     10.19051  eV     1   --> G_2            
     e( 83 - 84) =     10.66793  eV     2   -->   2 G_2            
     e( 85 - 86) =     10.93979  eV     2   -->   2 G_2            
     e( 87 - 87) =     11.30641  eV     1   --> G_2            
     e( 88 - 88) =     11.30651  eV     1   --> G_2            
     e( 89 - 90) =     11.72736  eV     2   -->   2 G_2            
     e( 91 - 92) =     12.03548  eV     2   -->   2 G_2            
     e( 93 - 94) =     12.38466  eV     2   -->   2 G_2            
     e( 95 - 96) =     12.61867  eV     2   -->   2 G_2            
     e( 97 - 98) =     12.89185  eV     2   -->   2 G_2            
     e( 99 -100) =     13.13231  eV     2   -->   2 G_2            

 **************************************************************************

 **************************************************************************

                    xk=(   0.09286,   0.05361,   0.00000  )

     Band symmetry, C_1 (1)     double point group:

     e(  1 -  2) =    -12.56261  eV     2   -->   2 G_2            
     e(  3 -  4) =    -12.03476  eV     2   -->   2 G_2            
     e(  5 -  6) =    -10.98261  eV     2   -->   2 G_2            
     e(  7 -  8) =     -8.31278  eV     2   -->   2 G_2            
     e(  9 - 10) =     -7.08979  eV     2   -->   2 G_2            
     e( 11 - 11) =     -2.80303  eV     1   --> G_2            
     e( 12 - 12) =     -2.80252  eV     1   --> G_2            
     e( 13 - 13) =     -2.66718  eV     1   --> G_2            
     e( 14 - 14) =     -2.66543  eV     1   --> G_2            
     e( 15 - 15) =     -2.14497  eV     1   --> G_2            
     e( 16 - 16) =     -2.14368  eV     1   --> G_2            
     e( 17 - 17) =     -1.94154  eV     1   --> G_2            
     e( 18 - 18) =     -1.94098  eV     1   --> G_2            
     e( 19 - 19) =     -1.72336  eV     1   --> G_2            
     e( 20 - 20) =     -1.72155  eV     1   --> G_2            
     e( 21 - 21) =     -1.47933  eV     1   --> G_2            
     e( 22 - 22) =     -1.47853  eV     1   --> G_2            
     e( 23 - 23) =     -1.06974  eV     1   --> G_2            
     e( 24 - 24) =     -1.06949  eV     1   --> G_2            
     e( 25 - 25) =     -0.72577  eV     1   --> G_2            
     e( 26 - 26) =     -0.72528  eV     1   --> G_2            
     e( 27 - 27) =     -0.43439  eV     1   --> G_2            
     e( 28 - 28) =     -0.43375  eV     1   --> G_2            
     e( 29 - 29) =      0.29034  eV     1   --> G_2            
     e( 30 - 30) =      0.29102  eV     1   --> G_2            
     e( 31 - 31) =      0.67757  eV     1   --> G_2            
     e( 32 - 32) =      0.67811  eV     1   --> G_2            
     e( 33 - 33) =      1.01232  eV     1   --> G_2            
     e( 34 - 34) =      1.01245  eV     1   --> G_2            
     e( 35 - 35) =      1.48326  eV     1   --> G_2            
     e( 36 - 36) =      1.48425  eV     1   --> G_2            
     e( 37 - 37) =      2.01486  eV     1   --> G_2            
     e( 38 - 38) =      2.01582  eV     1   --> G_2            
     e( 39 - 39) =      2.26586  eV     1   --> G_2            
     e( 40 - 40) =      2.26618  eV     1   --> G_2            
     e( 41 - 41) =      4.26844  eV     1   --> G_2            
     e( 42 - 42) =      4.26868  eV     1   --> G_2            
     e( 43 - 43) =      4.34389  eV     1   --> G_2            
     e( 44 - 44) =      4.34411  eV     1   --> G_2            
     e( 45 - 46) =      4.89350  eV     2   -->   2 G_2            
     e( 47 - 48) =      5.14966  eV     2   -->   2 G_2            
     e( 49 - 50) =      5.50501  eV     2   -->   2 G_2            
     e( 51 - 52) =      5.94878  eV     2   -->   2 G_2            
     e( 53 - 53) =      6.24656  eV     1   --> G_2            
     e( 54 - 54) =      6.24673  eV     1   --> G_2            
     e( 55 - 56) =      6.57116  eV     2   -->   2 G_2            
     e( 57 - 57) =      6.61344  eV     1   --> G_2            
     e( 58 - 58) =      6.61371  eV     1   --> G_2            
     e( 59 - 60) =      6.96577  eV     2   -->   2 G_2            
     e( 61 - 62) =      7.15390  eV     2   -->   2 G_2            
     e( 63 - 64) =      7.61525  eV     2   -->   2 G_2            
     e( 65 - 66) =      7.92362  eV     2   -->   2 G_2            
     e( 67 - 67) =      8.14835  eV     1   --> G_2            
     e( 68 - 68) =      8.14851  eV     1   --> G_2            
     e( 69 - 70) =      8.35110  eV     2   -->   2 G_2            
     e( 71 - 72) =      8.69369  eV     2   -->   2 G_2            
     e( 73 - 73) =      8.84347  eV     1   --> G_2            
     e( 74 - 74) =      8.84358  eV     1   --> G_2            
     e( 75 - 75) =      9.15129  eV     1   --> G_2            
     e( 76 - 76) =      9.15140  eV     1   --> G_2            
     e( 77 - 78) =      9.23001  eV     2   -->   2 G_2            
     e( 79 - 79) =     10.13288  eV     1   --> G_2            
     e( 80 - 80) =     10.13304  eV     1   --> G_2            
     e( 81 - 81) =     10.23462  eV     1   --> G_2            
     e( 82 - 82) =     10.23475  eV     1   --> G_2            
     e( 83 - 84) =     10.65976  eV     2   -->   2 G_2            
     e( 85 - 86) =     10.95830  eV     2   -->   2 G_2            
     e( 87 - 87) =     11.29681  eV     1   --> G_2            
     e( 88 - 88) =     11.29693  eV     1   --> G_2            
     e( 89 - 90) =     11.70267  eV     2   -->   2 G_2            
     e( 91 - 92) =     11.95163  eV     2   -->   2 G_2            
     e( 93 - 94) =     12.39830  eV     2   -->   2 G_2            
     e( 95 - 96) =     12.63402  eV     2   -->   2 G_2            
     e( 97 - 98) =     12.91223  eV     2   -->   2 G_2            
     e( 99 -100) =     13.04833  eV     2   -->   2 G_2            

 **************************************************************************

 **************************************************************************

                    xk=(   0.10000,   0.05774,   0.00000  )

     Band symmetry, C_1 (1)     double point group:

     e(  1 -  2) =    -12.55159  eV     2   -->   2 G_2            
     e(  3 -  4) =    -12.02489  eV     2   -->   2 G_2            
     e(  5 -  6) =    -10.97715  eV     2   -->   2 G_2            
     e(  7 -  8) =     -8.31656  eV     2   -->   2 G_2            
     e(  9 - 10) =     -7.11188  eV     2   -->   2 G_2            
     e( 11 - 11) =     -2.86632  eV     1   --> G_2            
     e( 12 - 12) =     -2.86604  eV     1   --> G_2            
     e( 13 - 13) =     -2.69004  eV     1   --> G_2            
     e( 14 - 14) =     -2.68853  eV     1   --> G_2            
     e( 15 - 15) =     -2.19405  eV     1   --> G_2            
     e( 16 - 16) =     -2.19282  eV     1   --> G_2            
     e( 17 - 17) =     -1.96253  eV     1   --> G_2            
     e( 18 - 18) =     -1.96202  eV     1   --> G_2            
     e( 19 - 19) =     -1.75787  eV     1   --> G_2            
     e( 20 - 20) =     -1.75599  eV     1   --> G_2            
     e( 21 - 21) =     -1.49749  eV     1   --> G_2            
     e( 22 - 22) =     -1.49667  eV     1   --> G_2            
     e( 23 - 23) =     -1.06083  eV     1   --> G_2            
     e( 24 - 24) =     -1.06060  eV     1   --> G_2            
     e( 25 - 25) =     -0.69418  eV     1   --> G_2            
     e( 26 - 26) =     -0.69363  eV     1   --> G_2            
     e( 27 - 27) =     -0.43472  eV     1   --> G_2            
     e( 28 - 28) =     -0.43403  eV     1   --> G_2            
     e( 29 - 29) =      0.31011  eV     1   --> G_2            
     e( 30 - 30) =      0.31074  eV     1   --> G_2            
     e( 31 - 31) =      0.72398  eV     1   --> G_2            
     e( 32 - 32) =      0.72456  eV     1   --> G_2            
     e( 33 - 33) =      1.04218  eV     1   --> G_2            
     e( 34 - 34) =      1.04238  eV     1   --> G_2            
     e( 35 - 35) =      1.50410  eV     1   --> G_2            
     e( 36 - 36) =      1.50509  eV     1   --> G_2            
     e( 37 - 37) =      2.02219  eV     1   --> G_2            
     e( 38 - 38) =      2.02314  eV     1   --> G_2            
     e( 39 - 39) =      2.30061  eV     1   --> G_2            
     e( 40 - 40) =      2.30091  eV     1   --> G_2            
     e( 41 - 41) =      4.28507  eV     1   --> G_2            
     e( 42 - 42) =      4.28538  eV     1   --> G_2            
     e( 43 - 43) =      4.34107  eV     1   --> G_2            
     e( 44 - 44) =      4.34137  eV     1   --> G_2            
     e( 45 - 46) =      4.86631  eV     2   -->   2 G_2            
     e( 47 - 48) =      5.15490  eV     2   -->   2 G_2            
     e( 49 - 50) =      5.50832  eV     2   -->   2 G_2            
     e( 51 - 52) =      5.96853  eV     2   -->   2 G_2            
     e( 53 - 53) =      6.22819  eV     1   --> G_2            
     e( 54 - 54) =      6.22835  eV     1   --> G_2            
     e( 55 - 56) =      6.57893  eV     2   -->   2 G_2            
     e( 57 - 57) =      6.62190  eV     1   --> G_2            
     e( 58 - 58) =      6.62210  eV     1   --> G_2            
     e( 59 - 60) =      7.00177  eV     2   -->   2 G_2            
     e( 61 - 62) =      7.16455  eV     2   -->   2 G_2            
     e( 63 - 64) =      7.59556  eV     2   -->   2 G_2            
     e( 65 - 66) =      7.94885  eV     2   -->   2 G_2            
     e( 67 - 67) =      8.19784  eV     1   --> G_2            
     e( 68 - 68) =      8.19801  eV     1   --> G_2            
     e( 69 - 70) =      8.37712  eV     2   -->   2 G_2            
     e( 71 - 72) =      8.68859  eV     2   -->   2 G_2            
     e( 73 - 73) =      8.89750  eV     1   --> G_2            
     e( 74 - 74) =      8.89761  eV     1   --> G_2            
     e( 75 - 75) =      9.16064  eV     1   --> G_2            
     e( 76 - 76) =      9.16077  eV     1   --> G_2            
     e( 77 - 78) =      9.24279  eV     2   -->   2 G_2            
     e( 79 - 79) =     10.16450  eV     1   --> G_2            
     e( 80 - 80) =     10.16461  eV     1   --> G_2            
     e( 81 - 82) =     10.27420  eV     2   -->   2 G_2            
     e( 83 - 84) =     10.65764  eV     2   -->   2 G_2            
     e( 85 - 86) =     10.97728  eV     2   -->   2 G_2            
     e( 87 - 87) =     11.29289  eV     1   --> G_2            
     e( 88 - 88) =     11.29303  eV     1   --> G_2            
     e( 89 - 90) =     11.68110  eV     2   -->   2 G_2            
     e( 91 - 92) =     11.86222  eV     2   -->   2 G_2            
     e( 93 - 94) =     12.42360  eV     2   -->   2 G_2            
     e( 95 - 96) =     12.64035  eV     2   -->   2 G_2            
     e( 97 - 98) =     12.86122  eV     2   -->   2 G_2            
     e( 99 -100) =     13.02288  eV     2   -->   2 G_2            

 **************************************************************************

 **************************************************************************

                    xk=(   0.10714,   0.06186,   0.00000  )

     Band symmetry, C_1 (1)     double point group:

     e(  1 -  2) =    -12.53978  eV     2   -->   2 G_2            
     e(  3 -  4) =    -12.01430  eV     2   -->   2 G_2            
     e(  5 -  6) =    -10.97133  eV     2   -->   2 G_2            
     e(  7 -  8) =     -8.32076  eV     2   -->   2 G_2            
     e(  9 - 10) =     -7.13549  eV     2   -->   2 G_2            
     e( 11 - 11) =     -2.93223  eV     1   --> G_2            
     e( 12 - 12) =     -2.93206  eV     1   --> G_2            
     e( 13 - 13) =     -2.71144  eV     1   --> G_2            
     e( 14 - 14) =     -2.71011  eV     1   --> G_2            
     e( 15 - 15) =     -2.24395  eV     1   --> G_2            
     e( 16 - 16) =     -2.24280  eV     1   --> G_2            
     e( 17 - 17) =     -1.98467  eV     1   --> G_2            
     e( 18 - 18) =     -1.98421  eV     1   --> G_2            
     e( 19 - 19) =     -1.79349  eV     1   --> G_2            
     e( 20 - 20) =     -1.79157  eV     1   --> G_2            
[...]
     e( 79 - 79) =      9.62768  eV     1   --> G_2            
     e( 80 - 80) =      9.62781  eV     1   --> G_2            
     e( 81 - 81) =      9.85202  eV     1   --> G_2            
     e( 82 - 82) =      9.85212  eV     1   --> G_2            
     e( 83 - 84) =     10.77754  eV     2   -->   2 G_2            
     e( 85 - 86) =     10.86030  eV     2   -->   2 G_2            
     e( 87 - 88) =     11.54567  eV     2   -->   2 G_2            
     e( 89 - 90) =     11.98629  eV     2   -->   2 G_2            
     e( 91 - 91) =     12.10274  eV     1   --> G_2            
     e( 92 - 92) =     12.10285  eV     1   --> G_2            
     e( 93 - 94) =     12.24388  eV     2   -->   2 G_2            
     e( 95 - 96) =     12.56099  eV     2   -->   2 G_2            
     e( 97 - 98) =     13.00144  eV     2   -->   2 G_2            
     e( 99 -100) =     13.32023  eV     2   -->   2 G_2            

 **************************************************************************

 **************************************************************************

                    xk=(   0.01429,   0.02540,   0.00000  )

     Band symmetry, C_1 (1)     double point group:

     e(  1 -  2) =    -12.62673  eV     2   -->   2 G_2            
     e(  3 -  4) =    -12.09244  eV     2   -->   2 G_2            
     e(  5 -  6) =    -11.01517  eV     2   -->   2 G_2            
     e(  7 -  8) =     -8.29291  eV     2   -->   2 G_2            
     e(  9 - 10) =     -6.95867  eV     2   -->   2 G_2            
     e( 11 - 12) =     -2.57530  eV     2   -->   2 G_2            
     e( 13 - 13) =     -2.21697  eV     1   --> G_2            
     e( 14 - 14) =     -2.21611  eV     1   --> G_2            
     e( 15 - 15) =     -1.84039  eV     1   --> G_2            
     e( 16 - 16) =     -1.83983  eV     1   --> G_2            
     e( 17 - 17) =     -1.68707  eV     1   --> G_2            
     e( 18 - 18) =     -1.68587  eV     1   --> G_2            
     e( 19 - 19) =     -1.57121  eV     1   --> G_2            
     e( 20 - 20) =     -1.57059  eV     1   --> G_2            
     e( 21 - 21) =     -1.39549  eV     1   --> G_2            
     e( 22 - 22) =     -1.39409  eV     1   --> G_2            
     e( 23 - 23) =     -1.11687  eV     1   --> G_2            
     e( 24 - 24) =     -1.11643  eV     1   --> G_2            
     e( 25 - 25) =     -0.90835  eV     1   --> G_2            
     e( 26 - 26) =     -0.90803  eV     1   --> G_2            
     e( 27 - 27) =     -0.66396  eV     1   --> G_2            
     e( 28 - 28) =     -0.66349  eV     1   --> G_2            
     e( 29 - 29) =     -0.01876  eV     1   --> G_2            
     e( 30 - 30) =     -0.01832  eV     1   --> G_2            
     e( 31 - 31) =      0.60324  eV     1   --> G_2            
     e( 32 - 32) =      0.60342  eV     1   --> G_2            
     e( 33 - 33) =      0.92462  eV     1   --> G_2            
     e( 34 - 34) =      0.92512  eV     1   --> G_2            
     e( 35 - 35) =      1.23398  eV     1   --> G_2            
     e( 36 - 36) =      1.23436  eV     1   --> G_2            
     e( 37 - 37) =      1.91251  eV     1   --> G_2            
     e( 38 - 38) =      1.91266  eV     1   --> G_2            
     e( 39 - 39) =      2.12292  eV     1   --> G_2            
     e( 40 - 40) =      2.12304  eV     1   --> G_2            
     e( 41 - 42) =      4.16264  eV     2   -->   2 G_2            
     e( 43 - 44) =      4.34305  eV     2   -->   2 G_2            
     e( 45 - 46) =      4.98514  eV     2   -->   2 G_2            
     e( 47 - 48) =      5.28714  eV     2   -->   2 G_2            
     e( 49 - 50) =      5.50339  eV     2   -->   2 G_2            
     e( 51 - 52) =      5.81862  eV     2   -->   2 G_2            
     e( 53 - 54) =      6.36979  eV     2   -->   2 G_2            
     e( 55 - 55) =      6.51511  eV     1   --> G_2            
     e( 56 - 56) =      6.51576  eV     1   --> G_2            
     e( 57 - 57) =      6.61852  eV     1   --> G_2            
     e( 58 - 58) =      6.61961  eV     1   --> G_2            
     e( 59 - 59) =      6.69215  eV     1   --> G_2            
     e( 60 - 60) =      6.69271  eV     1   --> G_2            
     e( 61 - 62) =      7.19433  eV     2   -->   2 G_2            
     e( 63 - 64) =      7.52249  eV     2   -->   2 G_2            
     e( 65 - 66) =      7.69150  eV     2   -->   2 G_2            
     e( 67 - 67) =      7.99071  eV     1   --> G_2            
     e( 68 - 68) =      7.99082  eV     1   --> G_2            
     e( 69 - 69) =      8.07095  eV     1   --> G_2            
     e( 70 - 70) =      8.07112  eV     1   --> G_2            
     e( 71 - 72) =      8.54105  eV     2   -->   2 G_2            
     e( 73 - 74) =      8.86159  eV     2   -->   2 G_2            
     e( 75 - 75) =      9.20055  eV     1   --> G_2            
     e( 76 - 76) =      9.20067  eV     1   --> G_2            
     e( 77 - 77) =      9.41905  eV     1   --> G_2            
     e( 78 - 78) =      9.41924  eV     1   --> G_2            
     e( 79 - 79) =      9.57422  eV     1   --> G_2            
     e( 80 - 80) =      9.57434  eV     1   --> G_2            
     e( 81 - 82) =      9.79433  eV     2   -->   2 G_2            
     e( 83 - 84) =     10.78306  eV     2   -->   2 G_2            
     e( 85 - 86) =     10.84712  eV     2   -->   2 G_2            
     e( 87 - 88) =     11.59647  eV     2   -->   2 G_2            
     e( 89 - 89) =     12.03132  eV     1   --> G_2            
     e( 90 - 90) =     12.03154  eV     1   --> G_2            
     e( 91 - 91) =     12.08913  eV     1   --> G_2            
     e( 92 - 92) =     12.08940  eV     1   --> G_2            
     e( 93 - 94) =     12.22731  eV     2   -->   2 G_2            
     e( 95 - 96) =     12.51217  eV     2   -->   2 G_2            
     e( 97 - 98) =     13.02173  eV     2   -->   2 G_2            
     e( 99 -100) =     13.34433  eV     2   -->   2 G_2            

 **************************************************************************

 **************************************************************************

                    xk=(   0.00952,   0.01694,   0.00000  )

     Band symmetry, C_1 (1)     double point group:

     e(  1 -  2) =    -12.62957  eV     2   -->   2 G_2            
     e(  3 -  4) =    -12.09503  eV     2   -->   2 G_2            
     e(  5 -  6) =    -11.01669  eV     2   -->   2 G_2            
     e(  7 -  8) =     -8.29231  eV     2   -->   2 G_2            
     e(  9 - 10) =     -6.95341  eV     2   -->   2 G_2            
     e( 11 - 12) =     -2.57012  eV     2   -->   2 G_2            
     e( 13 - 13) =     -2.18448  eV     1   --> G_2            
     e( 14 - 14) =     -2.18386  eV     1   --> G_2            
     e( 15 - 15) =     -1.84399  eV     1   --> G_2            
     e( 16 - 16) =     -1.84357  eV     1   --> G_2            
     e( 17 - 17) =     -1.64505  eV     1   --> G_2            
     e( 18 - 18) =     -1.64406  eV     1   --> G_2            
     e( 19 - 19) =     -1.55458  eV     1   --> G_2            
     e( 20 - 20) =     -1.55403  eV     1   --> G_2            
     e( 21 - 21) =     -1.41152  eV     1   --> G_2            
     e( 22 - 22) =     -1.41026  eV     1   --> G_2            
     e( 23 - 23) =     -1.13032  eV     1   --> G_2            
     e( 24 - 24) =     -1.13002  eV     1   --> G_2            
     e( 25 - 25) =     -0.89536  eV     1   --> G_2            
     e( 26 - 26) =     -0.89515  eV     1   --> G_2            
     e( 27 - 27) =     -0.68023  eV     1   --> G_2            
     e( 28 - 28) =     -0.67992  eV     1   --> G_2            
     e( 29 - 29) =     -0.05261  eV     1   --> G_2            
     e( 30 - 30) =     -0.05230  eV     1   --> G_2            
     e( 31 - 31) =      0.60250  eV     1   --> G_2            
     e( 32 - 32) =      0.60263  eV     1   --> G_2            
     e( 33 - 33) =      0.95186  eV     1   --> G_2            
     e( 34 - 34) =      0.95227  eV     1   --> G_2            
     e( 35 - 35) =      1.20149  eV     1   --> G_2            
     e( 36 - 36) =      1.20180  eV     1   --> G_2            
     e( 37 - 37) =      1.89924  eV     1   --> G_2            
     e( 38 - 38) =      1.89934  eV     1   --> G_2            
     e( 39 - 40) =      2.12251  eV     2   -->   2 G_2            
     e( 41 - 42) =      4.15754  eV     2   -->   2 G_2            
     e( 43 - 44) =      4.34217  eV     2   -->   2 G_2            
     e( 45 - 46) =      4.98419  eV     2   -->   2 G_2            
     e( 47 - 48) =      5.29208  eV     2   -->   2 G_2            
     e( 49 - 50) =      5.50424  eV     2   -->   2 G_2            
     e( 51 - 52) =      5.83503  eV     2   -->   2 G_2            
     e( 53 - 54) =      6.34956  eV     2   -->   2 G_2            
     e( 55 - 55) =      6.52351  eV     1   --> G_2            
     e( 56 - 56) =      6.52401  eV     1   --> G_2            
     e( 57 - 57) =      6.61886  eV     1   --> G_2            
     e( 58 - 58) =      6.61968  eV     1   --> G_2            
     e( 59 - 59) =      6.69325  eV     1   --> G_2            
     e( 60 - 60) =      6.69365  eV     1   --> G_2            
     e( 61 - 62) =      7.19842  eV     2   -->   2 G_2            
     e( 63 - 64) =      7.49632  eV     2   -->   2 G_2            
     e( 65 - 66) =      7.68019  eV     2   -->   2 G_2            
     e( 67 - 67) =      7.99583  eV     1   --> G_2            
     e( 68 - 68) =      7.99596  eV     1   --> G_2            
     e( 69 - 69) =      8.05275  eV     1   --> G_2            
     e( 70 - 70) =      8.05291  eV     1   --> G_2            
     e( 71 - 72) =      8.52452  eV     2   -->   2 G_2            
     e( 73 - 74) =      8.86862  eV     2   -->   2 G_2            
     e( 75 - 75) =      9.25332  eV     1   --> G_2            
     e( 76 - 76) =      9.25347  eV     1   --> G_2            
     e( 77 - 77) =      9.42858  eV     1   --> G_2            
     e( 78 - 78) =      9.42888  eV     1   --> G_2            
     e( 79 - 79) =      9.52827  eV     1   --> G_2            
     e( 80 - 80) =      9.52843  eV     1   --> G_2            
     e( 81 - 82) =      9.74346  eV     2   -->   2 G_2            
     e( 83 - 84) =     10.78736  eV     2   -->   2 G_2            
     e( 85 - 86) =     10.83743  eV     2   -->   2 G_2            
     e( 87 - 88) =     11.64393  eV     2   -->   2 G_2            
     e( 89 - 90) =     12.01093  eV     2   -->   2 G_2            
     e( 91 - 91) =     12.13243  eV     1   --> G_2            
     e( 92 - 92) =     12.13263  eV     1   --> G_2            
     e( 93 - 94) =     12.21581  eV     2   -->   2 G_2            
     e( 95 - 96) =     12.46933  eV     2   -->   2 G_2            
     e( 97 - 98) =     13.01542  eV     2   -->   2 G_2            
     e( 99 -100) =     13.39551  eV     2   -->   2 G_2            

 **************************************************************************

 **************************************************************************

                    xk=(   0.00476,   0.00847,   0.00000  )

     Band symmetry, C_1 (1)     double point group:

     e(  1 -  2) =    -12.63128  eV     2   -->   2 G_2            
     e(  3 -  4) =    -12.09659  eV     2   -->   2 G_2            
     e(  5 -  6) =    -11.01760  eV     2   -->   2 G_2            
     e(  7 -  8) =     -8.29194  eV     2   -->   2 G_2            
     e(  9 - 10) =     -6.95025  eV     2   -->   2 G_2            
     e( 11 - 12) =     -2.56703  eV     2   -->   2 G_2            
     e( 13 - 13) =     -2.16343  eV     1   --> G_2            
     e( 14 - 14) =     -2.16311  eV     1   --> G_2            
     e( 15 - 15) =     -1.84791  eV     1   --> G_2            
     e( 16 - 16) =     -1.84768  eV     1   --> G_2            
     e( 17 - 17) =     -1.61694  eV     1   --> G_2            
     e( 18 - 18) =     -1.61639  eV     1   --> G_2            
     e( 19 - 19) =     -1.53530  eV     1   --> G_2            
     e( 20 - 20) =     -1.53487  eV     1   --> G_2            
     e( 21 - 21) =     -1.43236  eV     1   --> G_2            
     e( 22 - 22) =     -1.43146  eV     1   --> G_2            
     e( 23 - 23) =     -1.13887  eV     1   --> G_2            
     e( 24 - 24) =     -1.13872  eV     1   --> G_2            
     e( 25 - 25) =     -0.88777  eV     1   --> G_2            
     e( 26 - 26) =     -0.88766  eV     1   --> G_2            
     e( 27 - 27) =     -0.68757  eV     1   --> G_2            
     e( 28 - 28) =     -0.68742  eV     1   --> G_2            
     e( 29 - 29) =     -0.07545  eV     1   --> G_2            
     e( 30 - 30) =     -0.07529  eV     1   --> G_2            
     e( 31 - 32) =      0.60200  eV     2   -->   2 G_2            
     e( 33 - 33) =      0.97566  eV     1   --> G_2            
     e( 34 - 34) =      0.97591  eV     1   --> G_2            
     e( 35 - 35) =      1.17533  eV     1   --> G_2            
     e( 36 - 36) =      1.17552  eV     1   --> G_2            
     e( 37 - 38) =      1.89090  eV     2   -->   2 G_2            
     e( 39 - 40) =      2.12266  eV     2   -->   2 G_2            
     e( 41 - 42) =      4.15446  eV     2   -->   2 G_2            
     e( 43 - 44) =      4.34164  eV     2   -->   2 G_2            
     e( 45 - 46) =      4.98352  eV     2   -->   2 G_2            
     e( 47 - 48) =      5.29484  eV     2   -->   2 G_2            
     e( 49 - 50) =      5.50486  eV     2   -->   2 G_2            
     e( 51 - 52) =      5.84648  eV     2   -->   2 G_2            
     e( 53 - 54) =      6.33543  eV     2   -->   2 G_2            
     e( 55 - 55) =      6.52936  eV     1   --> G_2            
     e( 56 - 56) =      6.52964  eV     1   --> G_2            
     e( 57 - 57) =      6.61712  eV     1   --> G_2            
     e( 58 - 58) =      6.61756  eV     1   --> G_2            
     e( 59 - 59) =      6.69673  eV     1   --> G_2            
     e( 60 - 60) =      6.69693  eV     1   --> G_2            
     e( 61 - 62) =      7.20179  eV     2   -->   2 G_2            
     e( 63 - 64) =      7.47902  eV     2   -->   2 G_2            
     e( 65 - 66) =      7.67225  eV     2   -->   2 G_2            
     e( 67 - 67) =      8.00062  eV     1   --> G_2            
     e( 68 - 68) =      8.00072  eV     1   --> G_2            
     e( 69 - 69) =      8.04115  eV     1   --> G_2            
     e( 70 - 70) =      8.04127  eV     1   --> G_2            
     e( 71 - 72) =      8.51475  eV     2   -->   2 G_2            
     e( 73 - 74) =      8.87260  eV     2   -->   2 G_2            
     e( 75 - 75) =      9.29994  eV     1   --> G_2            
     e( 76 - 76) =      9.30010  eV     1   --> G_2            
     e( 77 - 77) =      9.42806  eV     1   --> G_2            
     e( 78 - 78) =      9.42841  eV     1   --> G_2            
     e( 79 - 79) =      9.49850  eV     1   --> G_2            
     e( 80 - 80) =      9.49868  eV     1   --> G_2            
     e( 81 - 82) =      9.70629  eV     2   -->   2 G_2            
     e( 83 - 84) =     10.79017  eV     2   -->   2 G_2            
     e( 85 - 86) =     10.83139  eV     2   -->   2 G_2            
     e( 87 - 88) =     11.68086  eV     2   -->   2 G_2            
     e( 89 - 90) =     11.98170  eV     2   -->   2 G_2            
     e( 91 - 91) =     12.17577  eV     1   --> G_2            
     e( 92 - 92) =     12.17599  eV     1   --> G_2            
     e( 93 - 93) =     12.20887  eV     1   --> G_2            
     e( 94 - 94) =     12.20905  eV     1   --> G_2            
     e( 95 - 96) =     12.43711  eV     2   -->   2 G_2            
     e( 97 - 98) =     13.00197  eV     2   -->   2 G_2            
     e( 99 -100) =     13.44987  eV     2   -->   2 G_2            

 **************************************************************************

 **************************************************************************

                    xk=(   0.00000,   0.00000,   0.00000  )

     Band symmetry, C_1 (1)     double point group:

     e(  1 -  2) =    -12.63185  eV     2   -->   2 G_2            
     e(  3 -  4) =    -12.09710  eV     2   -->   2 G_2            
     e(  5 -  6) =    -11.01791  eV     2   -->   2 G_2            
     e(  7 -  8) =     -8.29182  eV     2   -->   2 G_2            
     e(  9 - 10) =     -6.94919  eV     2   -->   2 G_2            
     e( 11 - 12) =     -2.56600  eV     2   -->   2 G_2            
     e( 13 - 14) =     -2.15600  eV     2   -->   2 G_2            
     e( 15 - 16) =     -1.84947  eV     2   -->   2 G_2            
     e( 17 - 18) =     -1.60751  eV     2   -->   2 G_2            
     e( 19 - 20) =     -1.52329  eV     2   -->   2 G_2            
     e( 21 - 22) =     -1.44410  eV     2   -->   2 G_2            
     e( 23 - 24) =     -1.14173  eV     2   -->   2 G_2            
     e( 25 - 26) =     -0.88543  eV     2   -->   2 G_2            
     e( 27 - 28) =     -0.68932  eV     2   -->   2 G_2            
     e( 29 - 30) =     -0.08352  eV     2   -->   2 G_2            
     e( 31 - 32) =      0.60185  eV     2   -->   2 G_2            
     e( 33 - 34) =      0.98586  eV     2   -->   2 G_2            
     e( 35 - 36) =      1.16463  eV     2   -->   2 G_2            
     e( 37 - 38) =      1.88808  eV     2   -->   2 G_2            
     e( 39 - 40) =      2.12278  eV     2   -->   2 G_2            
     e( 41 - 42) =      4.15344  eV     2   -->   2 G_2            
     e( 43 - 44) =      4.34147  eV     2   -->   2 G_2            
     e( 45 - 46) =      4.98328  eV     2   -->   2 G_2            
     e( 47 - 48) =      5.29572  eV     2   -->   2 G_2            
     e( 49 - 50) =      5.50510  eV     2   -->   2 G_2            
     e( 51 - 52) =      5.85061  eV     2   -->   2 G_2            
     e( 53 - 54) =      6.33037  eV     2   -->   2 G_2            
     e( 55 - 56) =      6.53154  eV     2   -->   2 G_2            
     e( 57 - 58) =      6.61633  eV     2   -->   2 G_2            
     e( 59 - 60) =      6.69845  eV     2   -->   2 G_2            
     e( 61 - 62) =      7.20310  eV     2   -->   2 G_2            
     e( 63 - 64) =      7.47297  eV     2   -->   2 G_2            
     e( 65 - 66) =      7.66941  eV     2   -->   2 G_2            
     e( 67 - 68) =      8.00267  eV     2   -->   2 G_2            
     e( 69 - 70) =      8.03707  eV     2   -->   2 G_2            
     e( 71 - 72) =      8.51153  eV     2   -->   2 G_2            
     e( 73 - 74) =      8.87389  eV     2   -->   2 G_2            
     e( 75 - 76) =      9.32261  eV     2   -->   2 G_2            
     e( 77 - 78) =      9.42031  eV     2   -->   2 G_2            
     e( 79 - 80) =      9.49111  eV     2   -->   2 G_2            
     e( 81 - 82) =      9.69215  eV     2   -->   2 G_2            
     e( 83 - 84) =     10.79117  eV     2   -->   2 G_2            
     e( 85 - 86) =     10.82933  eV     2   -->   2 G_2            
     e( 87 - 88) =     11.69562  eV     2   -->   2 G_2            
     e( 89 - 90) =     11.96909  eV     2   -->   2 G_2            
     e( 91 - 92) =     12.19401  eV     2   -->   2 G_2            
     e( 93 - 94) =     12.20604  eV     2   -->   2 G_2            
     e( 95 - 96) =     12.42422  eV     2   -->   2 G_2            
     e( 97 - 98) =     12.99592  eV     2   -->   2 G_2            
     e( 99 -100) =     13.47478  eV     2   -->   2 G_2            

 **************************************************************************

     BANDS        :  21m 3.86s CPU  20m 2.24s WALL


   This run was terminated on:   0: 6:37  23Aug2025            

=------------------------------------------------------------------------------=
   JOB DONE.
=------------------------------------------------------------------------------=
