
     Program BANDS v.7.4.1 starts on 22Aug2025 at 22:36:39 

     This program is part of the open-source Quantum ESPRESSO suite
     for quantum simulation of materials; please cite
         "P. Giannozzi et al., J. Phys.:Condens. Matter 21 395502 (2009);
         "P. Giannozzi et al., J. Phys.:Condens. Matter 29 465901 (2017);
         "P. Giannozzi et al., J. Chem. Phys. 152 154105 (2020);
          URL http://www.quantum-espresso.org", 
     in publications or presentations arising from this work. More details at
     http://www.quantum-espresso.org/quote

     Parallel version (MPI & OpenMP), running on      48 processor cores
     Number of MPI processes:                24
     Threads/MPI process:                     2

     MPI processes distributed on     2 nodes
     R & G space division:  proc/nbgrp/npool/nimage =      24
     1463 MiB available memory on the printing compute node when the environment starts


     Reading xml data from directory:

     tmp/Sb2Te3-uatsx-c5-soc-3.0.save/
Error reading attribute index: expected integer, found *
Error reading attribute index: expected integer, found *

     IMPORTANT: XC functional enforced from input :
     Exchange-correlation= PBE
                           (   1   4   3   4   0   0   0)
     Any further DFT definition will be discarded
     Please, verify this is what you really want


     Parallelization info
     --------------------
     sticks:   dense  smooth     PW     G-vecs:    dense   smooth      PW
     Min         137      54     15                32297     8156    1215
     Max         138      55     16                32316     8181    1230
     Sum        3307    1319    371               775399   196125   29317

     Using Slab Decomposition

     Reading collected, re-writing distributed wavefunctions
     high-symmetry point:  0.0000 0.0000 0.0000   x coordinate   0.0000
     high-symmetry point:  0.5000 0.2887 0.0000   x coordinate   0.5774
     high-symmetry point:  0.3333 0.5889 0.0000   x coordinate   0.9207
     high-symmetry point:  0.0000 0.0000 0.0000   x coordinate   1.5974

     Plottable bands (eV) written to file ./bands/Sb2Te3-uatsx-c5-soc-3.0.bands.gnu
     Bands written to file ./bands/Sb2Te3-uatsx-c5-soc-3.0.bands

 **************************************************************************

                    xk=(   0.00000,   0.00000,   0.00000  )

     double point group C_1 (1)    
     there are  2 classes and  1 irreducible representations
     the character table:

       E     -E   
                  
G_2    1.00 -1.00

     the symmetry operations in each class and the name of the first element:

     E             1
                                                                 
     -E           -1
                                                                 

     Band symmetry, C_1 (1)     double point group:

     e(  1 -  2) =    -35.57127  eV     2   -->   2 G_2            
     e(  3 -  4) =    -35.56806  eV     2   -->   2 G_2            
     e(  5 -  6) =    -35.54010  eV     2   -->   2 G_2            
     e(  7 -  8) =    -35.53690  eV     2   -->   2 G_2            
     e(  9 - 10) =    -35.45990  eV     2   -->   2 G_2            
     e( 11 - 12) =    -35.42781  eV     2   -->   2 G_2            
     e( 13 - 14) =    -34.11245  eV     2   -->   2 G_2            
     e( 15 - 16) =    -34.10922  eV     2   -->   2 G_2            
     e( 17 - 18) =    -34.08615  eV     2   -->   2 G_2            
     e( 19 - 20) =    -34.08300  eV     2   -->   2 G_2            
     e( 21 - 22) =    -34.07196  eV     2   -->   2 G_2            
     e( 23 - 24) =    -34.06873  eV     2   -->   2 G_2            
     e( 25 - 26) =    -33.99788  eV     2   -->   2 G_2            
     e( 27 - 28) =    -33.98184  eV     2   -->   2 G_2            
     e( 29 - 30) =    -33.95591  eV     2   -->   2 G_2            
     e( 31 - 32) =    -28.20864  eV     2   -->   2 G_2            
     e( 33 - 34) =    -28.20655  eV     2   -->   2 G_2            
     e( 35 - 36) =    -28.20022  eV     2   -->   2 G_2            
     e( 37 - 38) =    -28.19815  eV     2   -->   2 G_2            
     e( 39 - 40) =    -26.96930  eV     2   -->   2 G_2            
     e( 41 - 42) =    -26.96720  eV     2   -->   2 G_2            
     e( 43 - 44) =    -26.96041  eV     2   -->   2 G_2            
     e( 45 - 46) =    -26.95834  eV     2   -->   2 G_2            
     e( 47 - 48) =    -26.95794  eV     2   -->   2 G_2            
     e( 49 - 50) =    -26.95589  eV     2   -->   2 G_2            
     e( 51 - 52) =    -10.67002  eV     2   -->   2 G_2            
     e( 53 - 54) =    -10.13582  eV     2   -->   2 G_2            
     e( 55 - 56) =     -9.05931  eV     2   -->   2 G_2            
     e( 57 - 58) =     -6.31496  eV     2   -->   2 G_2            
     e( 59 - 60) =     -4.94554  eV     2   -->   2 G_2            
     e( 61 - 62) =     -0.57020  eV     2   -->   2 G_2            
     e( 63 - 64) =     -0.12576  eV     2   -->   2 G_2            
     e( 65 - 66) =      0.15415  eV     2   -->   2 G_2            
     e( 67 - 68) =      0.41063  eV     2   -->   2 G_2            
     e( 69 - 70) =      0.47697  eV     2   -->   2 G_2            
     e( 71 - 72) =      0.58272  eV     2   -->   2 G_2            
     e( 73 - 74) =      0.85590  eV     2   -->   2 G_2            
     e( 75 - 76) =      1.15797  eV     2   -->   2 G_2            
     e( 77 - 78) =      1.32996  eV     2   -->   2 G_2            
     e( 79 - 80) =      1.98080  eV     2   -->   2 G_2            
     e( 81 - 82) =      2.63253  eV     2   -->   2 G_2            
     e( 83 - 84) =      2.99266  eV     2   -->   2 G_2            
     e( 85 - 86) =      3.19287  eV     2   -->   2 G_2            
     e( 87 - 88) =      3.92264  eV     2   -->   2 G_2            
     e( 89 - 90) =      4.11669  eV     2   -->   2 G_2            
     e( 91 - 92) =      6.15406  eV     2   -->   2 G_2            
     e( 93 - 94) =      6.34106  eV     2   -->   2 G_2            
     e( 95 - 96) =      6.95864  eV     2   -->   2 G_2            
     e( 97 - 98) =      7.38463  eV     2   -->   2 G_2            
     e( 99 -100) =      7.53878  eV     2   -->   2 G_2            
     e(101 -102) =      7.81101  eV     2   -->   2 G_2            
     e(103 -104) =      8.33008  eV     2   -->   2 G_2            
     e(105 -106) =      8.54605  eV     2   -->   2 G_2            
     e(107 -108) =      8.65669  eV     2   -->   2 G_2            
     e(109 -110) =      8.74184  eV     2   -->   2 G_2            
     e(111 -112) =      9.14680  eV     2   -->   2 G_2            
     e(113 -114) =      9.50259  eV     2   -->   2 G_2            
     e(115 -116) =      9.65397  eV     2   -->   2 G_2            
     e(117 -118) =      9.97974  eV     2   -->   2 G_2            
     e(119 -120) =     10.05196  eV     2   -->   2 G_2            
     e(121 -122) =     10.47773  eV     2   -->   2 G_2            
     e(123 -124) =     10.91894  eV     2   -->   2 G_2            
     e(125 -126) =     11.30527  eV     2   -->   2 G_2            
     e(127 -128) =     11.44302  eV     2   -->   2 G_2            
     e(129 -130) =     11.44738  eV     2   -->   2 G_2            
     e(131 -132) =     11.65642  eV     2   -->   2 G_2            
     e(133 -134) =     12.77966  eV     2   -->   2 G_2            
     e(135 -136) =     12.79823  eV     2   -->   2 G_2            
     e(137 -138) =     13.73736  eV     2   -->   2 G_2            
     e(139 -140) =     14.00530  eV     2   -->   2 G_2            
     e(141 -142) =     14.12939  eV     2   -->   2 G_2            
     e(143 -144) =     14.18382  eV     2   -->   2 G_2            
     e(145 -146) =     14.37343  eV     2   -->   2 G_2            
     e(147 -148) =     15.00145  eV     2   -->   2 G_2            
     e(149 -150) =     15.56715  eV     2   -->   2 G_2            
     e(151 -152) =     15.90935  eV     2   -->   2 G_2            
     e(153 -154) =     15.93178  eV     2   -->   2 G_2            
     e(155 -156) =     16.00438  eV     2   -->   2 G_2            
     e(157 -158) =     16.14998  eV     2   -->   2 G_2            
     e(159 -160) =     16.29486  eV     2   -->   2 G_2            
     e(161 -162) =     16.61060  eV     2   -->   2 G_2            
     e(163 -164) =     16.89080  eV     2   -->   2 G_2            
     e(165 -166) =     16.91361  eV     2   -->   2 G_2            
     e(167 -168) =     16.95480  eV     2   -->   2 G_2            
     e(169 -170) =     17.20426  eV     2   -->   2 G_2            
     e(171 -172) =     17.20658  eV     2   -->   2 G_2            
     e(173 -174) =     17.27974  eV     2   -->   2 G_2            
     e(175 -176) =     17.29528  eV     2   -->   2 G_2            
     e(177 -178) =     17.49430  eV     2   -->   2 G_2            
     e(179 -180) =     17.50058  eV     2   -->   2 G_2            
     e(181 -182) =     17.60191  eV     2   -->   2 G_2            
     e(183 -184) =     17.74764  eV     2   -->   2 G_2            
     e(185 -186) =     17.80114  eV     2   -->   2 G_2            
     e(187 -188) =     18.05716  eV     2   -->   2 G_2            
     e(189 -190) =     18.80531  eV     2   -->   2 G_2            
     e(191 -192) =     18.87103  eV     2   -->   2 G_2            
     e(193 -194) =     18.95875  eV     2   -->   2 G_2            
     e(195 -196) =     19.16988  eV     2   -->   2 G_2            
     e(197 -198) =     19.17048  eV     2   -->   2 G_2            
     e(199 -200) =     19.25701  eV     2   -->   2 G_2            

 **************************************************************************

 **************************************************************************

                    xk=(   0.00714,   0.00412,   0.00000  )

     Band symmetry, C_1 (1)     double point group:

     e(  1 -  2) =    -35.57127  eV     2   -->   2 G_2            
     e(  3 -  4) =    -35.56806  eV     2   -->   2 G_2            
     e(  5 -  6) =    -35.54010  eV     2   -->   2 G_2            
     e(  7 -  8) =    -35.53690  eV     2   -->   2 G_2            
     e(  9 - 10) =    -35.45990  eV     2   -->   2 G_2            
     e( 11 - 12) =    -35.42781  eV     2   -->   2 G_2            
     e( 13 - 14) =    -34.11245  eV     2   -->   2 G_2            
     e( 15 - 16) =    -34.10922  eV     2   -->   2 G_2            
     e( 17 - 18) =    -34.08615  eV     2   -->   2 G_2            
     e( 19 - 20) =    -34.08300  eV     2   -->   2 G_2            
     e( 21 - 22) =    -34.07196  eV     2   -->   2 G_2            
     e( 23 - 24) =    -34.06873  eV     2   -->   2 G_2            
     e( 25 - 26) =    -33.99788  eV     2   -->   2 G_2            
     e( 27 - 28) =    -33.98184  eV     2   -->   2 G_2            
     e( 29 - 30) =    -33.95591  eV     2   -->   2 G_2            
     e( 31 - 32) =    -28.20864  eV     2   -->   2 G_2            
     e( 33 - 34) =    -28.20655  eV     2   -->   2 G_2            
     e( 35 - 36) =    -28.20022  eV     2   -->   2 G_2            
     e( 37 - 38) =    -28.19815  eV     2   -->   2 G_2            
     e( 39 - 40) =    -26.96930  eV     2   -->   2 G_2            
     e( 41 - 42) =    -26.96720  eV     2   -->   2 G_2            
     e( 43 - 44) =    -26.96041  eV     2   -->   2 G_2            
     e( 45 - 46) =    -26.95834  eV     2   -->   2 G_2            
     e( 47 - 48) =    -26.95794  eV     2   -->   2 G_2            
     e( 49 - 50) =    -26.95589  eV     2   -->   2 G_2            
     e( 51 - 52) =    -10.66960  eV     2   -->   2 G_2            
     e( 53 - 54) =    -10.13544  eV     2   -->   2 G_2            
     e( 55 - 56) =     -9.05908  eV     2   -->   2 G_2            
     e( 57 - 58) =     -6.31505  eV     2   -->   2 G_2            
     e( 59 - 60) =     -4.94635  eV     2   -->   2 G_2            
     e( 61 - 62) =     -0.57100  eV     2   -->   2 G_2            
     e( 63 - 63) =     -0.13215  eV     1   --> G_2            
     e( 64 - 64) =     -0.13196  eV     1   --> G_2            
     e( 65 - 65) =      0.15513  eV     1   --> G_2            
     e( 66 - 66) =      0.15538  eV     1   --> G_2            
     e( 67 - 67) =      0.40570  eV     1   --> G_2            
     e( 68 - 68) =      0.40632  eV     1   --> G_2            
     e( 69 - 69) =      0.46559  eV     1   --> G_2            
     e( 70 - 70) =      0.46628  eV     1   --> G_2            
     e( 71 - 71) =      0.59226  eV     1   --> G_2            
     e( 72 - 72) =      0.59349  eV     1   --> G_2            
     e( 73 - 73) =      0.85836  eV     1   --> G_2            
     e( 74 - 74) =      0.85858  eV     1   --> G_2            
     e( 75 - 75) =      1.15523  eV     1   --> G_2            
     e( 76 - 76) =      1.15540  eV     1   --> G_2            
     e( 77 - 77) =      1.33215  eV     1   --> G_2            
     e( 78 - 78) =      1.33227  eV     1   --> G_2            
     e( 79 - 79) =      1.98719  eV     1   --> G_2            
     e( 80 - 80) =      1.98735  eV     1   --> G_2            
     e( 81 - 81) =      2.63160  eV     1   --> G_2            
     e( 82 - 82) =      2.63176  eV     1   --> G_2            
     e( 83 - 83) =      2.98638  eV     1   --> G_2            
     e( 84 - 84) =      2.98677  eV     1   --> G_2            
     e( 85 - 85) =      3.20001  eV     1   --> G_2            
     e( 86 - 86) =      3.20051  eV     1   --> G_2            
     e( 87 - 87) =      3.92463  eV     1   --> G_2            
     e( 88 - 88) =      3.92478  eV     1   --> G_2            
     e( 89 - 90) =      4.11636  eV     2   -->   2 G_2            
     e( 91 - 92) =      6.15482  eV     2   -->   2 G_2            
     e( 93 - 94) =      6.34118  eV     2   -->   2 G_2            
     e( 95 - 96) =      6.95880  eV     2   -->   2 G_2            
     e( 97 - 98) =      7.38217  eV     2   -->   2 G_2            
     e( 99 -100) =      7.53860  eV     2   -->   2 G_2            
     e(101 -102) =      7.81119  eV     2   -->   2 G_2            
     e(103 -104) =      8.33289  eV     2   -->   2 G_2            
     e(105 -105) =      8.54403  eV     1   --> G_2            
     e(106 -106) =      8.54422  eV     1   --> G_2            
     e(107 -107) =      8.65607  eV     1   --> G_2            
     e(108 -108) =      8.65643  eV     1   --> G_2            
     e(109 -109) =      8.74165  eV     1   --> G_2            
     e(110 -110) =      8.74180  eV     1   --> G_2            
     e(111 -112) =      9.14533  eV     2   -->   2 G_2            
     e(113 -114) =      9.50889  eV     2   -->   2 G_2            
     e(115 -116) =      9.65614  eV     2   -->   2 G_2            
     e(117 -118) =      9.97777  eV     2   -->   2 G_2            
     e(119 -120) =     10.05422  eV     2   -->   2 G_2            
     e(121 -122) =     10.47963  eV     2   -->   2 G_2            
     e(123 -124) =     10.91930  eV     2   -->   2 G_2            
     e(125 -125) =     11.29613  eV     1   --> G_2            
     e(126 -126) =     11.29650  eV     1   --> G_2            
     e(127 -127) =     11.39561  eV     1   --> G_2            
     e(128 -128) =     11.39625  eV     1   --> G_2            
     e(129 -129) =     11.50028  eV     1   --> G_2            
     e(130 -130) =     11.50061  eV     1   --> G_2            
     e(131 -131) =     11.66367  eV     1   --> G_2            
     e(132 -132) =     11.66380  eV     1   --> G_2            
     e(133 -134) =     12.77710  eV     2   -->   2 G_2            
     e(135 -136) =     12.80091  eV     2   -->   2 G_2            
     e(137 -138) =     13.72561  eV     2   -->   2 G_2            
     e(139 -139) =     14.00823  eV     1   --> G_2            
     e(140 -140) =     14.00846  eV     1   --> G_2            
     e(141 -141) =     14.11474  eV     1   --> G_2            
     e(142 -142) =     14.11514  eV     1   --> G_2            
     e(143 -143) =     14.20315  eV     1   --> G_2            
     e(144 -144) =     14.20330  eV     1   --> G_2            
     e(145 -146) =     14.37696  eV     2   -->   2 G_2            
     e(147 -148) =     15.00360  eV     2   -->   2 G_2            
     e(149 -150) =     15.54581  eV     2   -->   2 G_2            
     e(151 -152) =     15.87961  eV     2   -->   2 G_2            
     e(153 -153) =     15.97003  eV     1   --> G_2            
     e(154 -154) =     15.97033  eV     1   --> G_2            
     e(155 -155) =     16.00128  eV     1   --> G_2            
     e(156 -156) =     16.00152  eV     1   --> G_2            
     e(157 -158) =     16.16190  eV     2   -->   2 G_2            
     e(159 -160) =     16.29596  eV     2   -->   2 G_2            
     e(161 -162) =     16.61013  eV     2   -->   2 G_2            
     e(163 -164) =     16.79137  eV     2   -->   2 G_2            
     e(165 -166) =     16.92581  eV     2   -->   2 G_2            
     e(167 -168) =     17.01225  eV     2   -->   2 G_2            
     e(169 -170) =     17.16423  eV     2   -->   2 G_2            
     e(171 -172) =     17.18977  eV     2   -->   2 G_2            
     e(173 -174) =     17.29617  eV     2   -->   2 G_2            
     e(175 -176) =     17.35150  eV     2   -->   2 G_2            
     e(177 -178) =     17.47091  eV     2   -->   2 G_2            
     e(179 -180) =     17.51952  eV     2   -->   2 G_2            
     e(181 -182) =     17.60635  eV     2   -->   2 G_2            
     e(183 -184) =     17.76200  eV     2   -->   2 G_2            
     e(185 -186) =     17.80616  eV     2   -->   2 G_2            
     e(187 -188) =     18.06832  eV     2   -->   2 G_2            
     e(189 -190) =     18.73794  eV     2   -->   2 G_2            
     e(191 -192) =     18.84550  eV     2   -->   2 G_2            
     e(193 -194) =     19.00157  eV     2   -->   2 G_2            
     e(195 -195) =     19.13906  eV     1   --> G_2            
     e(196 -196) =     19.13922  eV     1   --> G_2            
     e(197 -197) =     19.19748  eV     1   --> G_2            
     e(198 -198) =     19.19760  eV     1   --> G_2            
     e(199 -200) =     19.26412  eV     2   -->   2 G_2            

 **************************************************************************

 **************************************************************************

                    xk=(   0.01429,   0.00825,   0.00000  )

     Band symmetry, C_1 (1)     double point group:

     e(  1 -  2) =    -35.57127  eV     2   -->   2 G_2            
     e(  3 -  4) =    -35.56806  eV     2   -->   2 G_2            
     e(  5 -  6) =    -35.54010  eV     2   -->   2 G_2            
     e(  7 -  8) =    -35.53690  eV     2   -->   2 G_2            
     e(  9 - 10) =    -35.45990  eV     2   -->   2 G_2            
     e( 11 - 12) =    -35.42781  eV     2   -->   2 G_2            
     e( 13 - 14) =    -34.11245  eV     2   -->   2 G_2            
     e( 15 - 16) =    -34.10922  eV     2   -->   2 G_2            
     e( 17 - 18) =    -34.08615  eV     2   -->   2 G_2            
     e( 19 - 20) =    -34.08300  eV     2   -->   2 G_2            
     e( 21 - 22) =    -34.07196  eV     2   -->   2 G_2            
     e( 23 - 24) =    -34.06873  eV     2   -->   2 G_2            
     e( 25 - 26) =    -33.99788  eV     2   -->   2 G_2            
     e( 27 - 28) =    -33.98184  eV     2   -->   2 G_2            
     e( 29 - 30) =    -33.95591  eV     2   -->   2 G_2            
     e( 31 - 32) =    -28.20864  eV     2   -->   2 G_2            
     e( 33 - 34) =    -28.20655  eV     2   -->   2 G_2            
     e( 35 - 36) =    -28.20022  eV     2   -->   2 G_2            
     e( 37 - 38) =    -28.19816  eV     2   -->   2 G_2            
     e( 39 - 40) =    -26.96930  eV     2   -->   2 G_2            
     e( 41 - 42) =    -26.96720  eV     2   -->   2 G_2            
     e( 43 - 44) =    -26.96042  eV     2   -->   2 G_2            
     e( 45 - 46) =    -26.95835  eV     2   -->   2 G_2            
     e( 47 - 48) =    -26.95795  eV     2   -->   2 G_2            
     e( 49 - 50) =    -26.95589  eV     2   -->   2 G_2            
     e( 51 - 52) =    -10.66834  eV     2   -->   2 G_2            
     e( 53 - 54) =    -10.13429  eV     2   -->   2 G_2            
     e( 55 - 56) =     -9.05839  eV     2   -->   2 G_2            
     e( 57 - 58) =     -6.31531  eV     2   -->   2 G_2            
     e( 59 - 60) =     -4.94878  eV     2   -->   2 G_2            
     e( 61 - 62) =     -0.57337  eV     2   -->   2 G_2            
     e( 63 - 63) =     -0.15038  eV     1   --> G_2            
     e( 64 - 64) =     -0.15004  eV     1   --> G_2            
     e( 65 - 65) =      0.15763  eV     1   --> G_2            
     e( 66 - 66) =      0.15810  eV     1   --> G_2            
     e( 67 - 67) =      0.38777  eV     1   --> G_2            
     e( 68 - 68) =      0.38923  eV     1   --> G_2            
     e( 69 - 69) =      0.44626  eV     1   --> G_2            
     e( 70 - 70) =      0.44712  eV     1   --> G_2            
     e( 71 - 71) =      0.61226  eV     1   --> G_2            
     e( 72 - 72) =      0.61404  eV     1   --> G_2            
     e( 73 - 73) =      0.86578  eV     1   --> G_2            
     e( 74 - 74) =      0.86622  eV     1   --> G_2            
     e( 75 - 75) =      1.14729  eV     1   --> G_2            
     e( 76 - 76) =      1.14763  eV     1   --> G_2            
     e( 77 - 77) =      1.33950  eV     1   --> G_2            
     e( 78 - 78) =      1.33976  eV     1   --> G_2            
     e( 79 - 79) =      2.00579  eV     1   --> G_2            
     e( 80 - 80) =      2.00609  eV     1   --> G_2            
     e( 81 - 81) =      2.62891  eV     1   --> G_2            
     e( 82 - 82) =      2.62921  eV     1   --> G_2            
     e( 83 - 83) =      2.97099  eV     1   --> G_2            
     e( 84 - 84) =      2.97163  eV     1   --> G_2            
     e( 85 - 85) =      3.21919  eV     1   --> G_2            
     e( 86 - 86) =      3.22006  eV     1   --> G_2            
     e( 87 - 87) =      3.93069  eV     1   --> G_2            
     e( 88 - 88) =      3.93097  eV     1   --> G_2            
     e( 89 - 90) =      4.11549  eV     2   -->   2 G_2            
     e( 91 - 92) =      6.15711  eV     2   -->   2 G_2            
     e( 93 - 94) =      6.34154  eV     2   -->   2 G_2            
     e( 95 - 96) =      6.95927  eV     2   -->   2 G_2            
     e( 97 - 98) =      7.37485  eV     2   -->   2 G_2            
     e( 99 -100) =      7.53816  eV     2   -->   2 G_2            
     e(101 -102) =      7.81184  eV     2   -->   2 G_2            
     e(103 -104) =      8.34110  eV     2   -->   2 G_2            
     e(105 -105) =      8.53820  eV     1   --> G_2            
     e(106 -106) =      8.53856  eV     1   --> G_2            
     e(107 -107) =      8.65351  eV     1   --> G_2            
     e(108 -108) =      8.65416  eV     1   --> G_2            
     e(109 -109) =      8.74276  eV     1   --> G_2            
     e(110 -110) =      8.74304  eV     1   --> G_2            
     e(111 -112) =      9.14130  eV     2   -->   2 G_2            
     e(113 -114) =      9.52693  eV     2   -->   2 G_2            
     e(115 -116) =      9.66258  eV     2   -->   2 G_2            
     e(117 -118) =      9.97219  eV     2   -->   2 G_2            
     e(119 -120) =     10.06095  eV     2   -->   2 G_2            
     e(121 -122) =     10.48540  eV     2   -->   2 G_2            
     e(123 -124) =     10.92001  eV     2   -->   2 G_2            
     e(125 -125) =     11.27092  eV     1   --> G_2            
     e(126 -126) =     11.27152  eV     1   --> G_2            
     e(127 -127) =     11.35469  eV     1   --> G_2            
     e(128 -128) =     11.35543  eV     1   --> G_2            
     e(129 -129) =     11.55882  eV     1   --> G_2            
     e(130 -130) =     11.55915  eV     1   --> G_2            
     e(131 -131) =     11.68426  eV     1   --> G_2            
     e(132 -132) =     11.68453  eV     1   --> G_2            
     e(133 -134) =     12.77145  eV     2   -->   2 G_2            
     e(135 -136) =     12.80698  eV     2   -->   2 G_2            
     e(137 -138) =     13.69481  eV     2   -->   2 G_2            
     e(139 -139) =     14.00468  eV     1   --> G_2            
     e(140 -140) =     14.00506  eV     1   --> G_2            
     e(141 -141) =     14.10429  eV     1   --> G_2            
     e(142 -142) =     14.10485  eV     1   --> G_2            
     e(143 -143) =     14.23584  eV     1   --> G_2            
     e(144 -144) =     14.23597  eV     1   --> G_2            
     e(145 -146) =     14.38857  eV     2   -->   2 G_2            
     e(147 -148) =     15.00818  eV     2   -->   2 G_2            
     e(149 -150) =     15.49473  eV     2   -->   2 G_2            
     e(151 -152) =     15.84583  eV     2   -->   2 G_2            
     e(153 -153) =     15.96666  eV     1   --> G_2            
     e(154 -154) =     15.96676  eV     1   --> G_2            
     e(155 -155) =     16.05148  eV     1   --> G_2            
     e(156 -156) =     16.05159  eV     1   --> G_2            
     e(157 -158) =     16.18701  eV     2   -->   2 G_2            
     e(159 -160) =     16.30123  eV     2   -->   2 G_2            
     e(161 -162) =     16.60248  eV     2   -->   2 G_2            
     e(163 -164) =     16.69418  eV     2   -->   2 G_2            
     e(165 -166) =     16.85072  eV     2   -->   2 G_2            
     e(167 -168) =     17.08592  eV     2   -->   2 G_2            
     e(169 -170) =     17.12055  eV     2   -->   2 G_2            
     e(171 -172) =     17.19464  eV     2   -->   2 G_2            
     e(173 -174) =     17.31019  eV     2   -->   2 G_2            
     e(175 -176) =     17.38900  eV     2   -->   2 G_2            
     e(177 -178) =     17.49491  eV     2   -->   2 G_2            
     e(179 -180) =     17.54264  eV     2   -->   2 G_2            
     e(181 -182) =     17.61498  eV     2   -->   2 G_2            
     e(183 -183) =     17.79645  eV     1   --> G_2            
     e(184 -184) =     17.79661  eV     1   --> G_2            
     e(185 -185) =     17.82984  eV     1   --> G_2            
     e(186 -186) =     17.83000  eV     1   --> G_2            
     e(187 -188) =     18.09772  eV     2   -->   2 G_2            
     e(189 -190) =     18.63328  eV     2   -->   2 G_2            
     e(191 -192) =     18.75999  eV     2   -->   2 G_2            
     e(193 -193) =     19.02634  eV     1   --> G_2            
     e(194 -194) =     19.02645  eV     1   --> G_2            
     e(195 -196) =     19.14615  eV     2   -->   2 G_2            
     e(197 -198) =     19.22281  eV     2   -->   2 G_2            
     e(199 -200) =     19.25950  eV     2   -->   2 G_2            

 **************************************************************************

 **************************************************************************

                    xk=(   0.02143,   0.01237,   0.00000  )

     Band symmetry, C_1 (1)     double point group:

     e(  1 -  2) =    -35.57127  eV     2   -->   2 G_2            
     e(  3 -  4) =    -35.56806  eV     2   -->   2 G_2            
     e(  5 -  6) =    -35.54010  eV     2   -->   2 G_2            
     e(  7 -  8) =    -35.53690  eV     2   -->   2 G_2            
     e(  9 - 10) =    -35.45990  eV     2   -->   2 G_2            
     e( 11 - 12) =    -35.42781  eV     2   -->   2 G_2            
     e( 13 - 14) =    -34.11244  eV     2   -->   2 G_2            
     e( 15 - 16) =    -34.10922  eV     2   -->   2 G_2            
     e( 17 - 18) =    -34.08615  eV     2   -->   2 G_2            
     e( 19 - 20) =    -34.08300  eV     2   -->   2 G_2            
     e( 21 - 22) =    -34.07196  eV     2   -->   2 G_2            
     e( 23 - 24) =    -34.06873  eV     2   -->   2 G_2            
     e( 25 - 26) =    -33.99788  eV     2   -->   2 G_2            
     e( 27 - 28) =    -33.98184  eV     2   -->   2 G_2            
     e( 29 - 30) =    -33.95591  eV     2   -->   2 G_2            
     e( 31 - 32) =    -28.20864  eV     2   -->   2 G_2            
     e( 33 - 34) =    -28.20655  eV     2   -->   2 G_2            
     e( 35 - 36) =    -28.20022  eV     2   -->   2 G_2            
     e( 37 - 38) =    -28.19816  eV     2   -->   2 G_2            
     e( 39 - 40) =    -26.96929  eV     2   -->   2 G_2            
     e( 41 - 42) =    -26.96720  eV     2   -->   2 G_2            
     e( 43 - 44) =    -26.96042  eV     2   -->   2 G_2            
     e( 45 - 46) =    -26.95836  eV     2   -->   2 G_2            
     e( 47 - 48) =    -26.95795  eV     2   -->   2 G_2            
     e( 49 - 50) =    -26.95589  eV     2   -->   2 G_2            
     e( 51 - 52) =    -10.66624  eV     2   -->   2 G_2            
     e( 53 - 54) =    -10.13237  eV     2   -->   2 G_2            
     e( 55 - 56) =     -9.05725  eV     2   -->   2 G_2            
     e( 57 - 58) =     -6.31574  eV     2   -->   2 G_2            
     e( 59 - 60) =     -4.95284  eV     2   -->   2 G_2            
     e( 61 - 62) =     -0.57735  eV     2   -->   2 G_2            
     e( 63 - 63) =     -0.17875  eV     1   --> G_2            
     e( 64 - 64) =     -0.17828  eV     1   --> G_2            
     e( 65 - 65) =      0.15999  eV     1   --> G_2            
     e( 66 - 66) =      0.16062  eV     1   --> G_2            
     e( 67 - 67) =      0.35428  eV     1   --> G_2            
     e( 68 - 68) =      0.35621  eV     1   --> G_2            
     e( 69 - 69) =      0.43297  eV     1   --> G_2            
     e( 70 - 70) =      0.43400  eV     1   --> G_2            
     e( 71 - 71) =      0.63137  eV     1   --> G_2            
     e( 72 - 72) =      0.63335  eV     1   --> G_2            
     e( 73 - 73) =      0.87739  eV     1   --> G_2            
     e( 74 - 74) =      0.87801  eV     1   --> G_2            
     e( 75 - 75) =      1.13508  eV     1   --> G_2            
     e( 76 - 76) =      1.13558  eV     1   --> G_2            
     e( 77 - 77) =      1.35320  eV     1   --> G_2            
     e( 78 - 78) =      1.35361  eV     1   --> G_2            
     e( 79 - 79) =      2.03462  eV     1   --> G_2            
     e( 80 - 80) =      2.03505  eV     1   --> G_2            
     e( 81 - 81) =      2.62430  eV     1   --> G_2            
     e( 82 - 82) =      2.62474  eV     1   --> G_2            
     e( 83 - 83) =      2.95223  eV     1   --> G_2            
     e( 84 - 84) =      2.95297  eV     1   --> G_2            
     e( 85 - 85) =      3.24528  eV     1   --> G_2            
     e( 86 - 86) =      3.24638  eV     1   --> G_2            
     e( 87 - 87) =      3.94053  eV     1   --> G_2            
     e( 88 - 88) =      3.94096  eV     1   --> G_2            
     e( 89 - 90) =      4.11439  eV     2   -->   2 G_2            
     e( 91 - 92) =      6.16092  eV     2   -->   2 G_2            
     e( 93 - 94) =      6.34214  eV     2   -->   2 G_2            
     e( 95 - 96) =      6.95996  eV     2   -->   2 G_2            
     e( 97 - 98) =      7.36281  eV     2   -->   2 G_2            
     e( 99 -100) =      7.53763  eV     2   -->   2 G_2            
     e(101 -102) =      7.81329  eV     2   -->   2 G_2            
     e(103 -104) =      8.35402  eV     2   -->   2 G_2            
     e(105 -105) =      8.52855  eV     1   --> G_2            
     e(106 -106) =      8.52904  eV     1   --> G_2            
     e(107 -107) =      8.64727  eV     1   --> G_2            
     e(108 -108) =      8.64810  eV     1   --> G_2            
     e(109 -109) =      8.74832  eV     1   --> G_2            
     e(110 -110) =      8.74865  eV     1   --> G_2            
     e(111 -112) =      9.13548  eV     2   -->   2 G_2            
     e(113 -114) =      9.55426  eV     2   -->   2 G_2            
     e(115 -116) =      9.67299  eV     2   -->   2 G_2            
     e(117 -118) =      9.96389  eV     2   -->   2 G_2            
     e(119 -120) =     10.07206  eV     2   -->   2 G_2            
     e(121 -122) =     10.49527  eV     2   -->   2 G_2            
     e(123 -124) =     10.91984  eV     2   -->   2 G_2            
     e(125 -125) =     11.23607  eV     1   --> G_2            
     e(126 -126) =     11.23668  eV     1   --> G_2            
     e(127 -127) =     11.32122  eV     1   --> G_2            
     e(128 -128) =     11.32189  eV     1   --> G_2            
     e(129 -129) =     11.61879  eV     1   --> G_2            
     e(130 -130) =     11.61925  eV     1   --> G_2            
     e(131 -131) =     11.71543  eV     1   --> G_2            
     e(132 -132) =     11.71585  eV     1   --> G_2            
     e(133 -134) =     12.76445  eV     2   -->   2 G_2            
     e(135 -136) =     12.81468  eV     2   -->   2 G_2            
     e(137 -138) =     13.65291  eV     2   -->   2 G_2            
     e(139 -139) =     13.98067  eV     1   --> G_2            
     e(140 -140) =     13.98097  eV     1   --> G_2            
     e(141 -141) =     14.11647  eV     1   --> G_2            
     e(142 -142) =     14.11694  eV     1   --> G_2            
     e(143 -144) =     14.26842  eV     2   -->   2 G_2            
     e(145 -146) =     14.41002  eV     2   -->   2 G_2            
     e(147 -148) =     15.00908  eV     2   -->   2 G_2            
     e(149 -150) =     15.43708  eV     2   -->   2 G_2            
     e(151 -152) =     15.80960  eV     2   -->   2 G_2            
     e(153 -154) =     15.94123  eV     2   -->   2 G_2            
     e(155 -156) =     16.12268  eV     2   -->   2 G_2            
     e(157 -158) =     16.20515  eV     2   -->   2 G_2            
     e(159 -160) =     16.31743  eV     2   -->   2 G_2            
     e(161 -162) =     16.54943  eV     2   -->   2 G_2            
     e(163 -164) =     16.65604  eV     2   -->   2 G_2            
     e(165 -166) =     16.75015  eV     2   -->   2 G_2            
     e(167 -168) =     17.06702  eV     2   -->   2 G_2            
     e(169 -170) =     17.09980  eV     2   -->   2 G_2            
     e(171 -172) =     17.27593  eV     2   -->   2 G_2            
     e(173 -174) =     17.29737  eV     2   -->   2 G_2            
     e(175 -176) =     17.36854  eV     2   -->   2 G_2            
     e(177 -178) =     17.55944  eV     2   -->   2 G_2            
     e(179 -180) =     17.58279  eV     2   -->   2 G_2            
     e(181 -182) =     17.64611  eV     2   -->   2 G_2            
     e(183 -183) =     17.84511  eV     1   --> G_2            
     e(184 -184) =     17.84529  eV     1   --> G_2            
     e(185 -185) =     17.87579  eV     1   --> G_2            
     e(186 -186) =     17.87597  eV     1   --> G_2            
     e(187 -188) =     18.13645  eV     2   -->   2 G_2            
     e(189 -190) =     18.52992  eV     2   -->   2 G_2            
     e(191 -192) =     18.65348  eV     2   -->   2 G_2            
     e(193 -194) =     18.97812  eV     2   -->   2 G_2            
     e(195 -196) =     19.18336  eV     2   -->   2 G_2            
     e(197 -198) =     19.20940  eV     2   -->   2 G_2            
     e(199 -200) =     19.29674  eV     2   -->   2 G_2            

 **************************************************************************

 **************************************************************************

                    xk=(   0.02857,   0.01650,   0.00000  )

     Band symmetry, C_1 (1)     double point group:

     e(  1 -  2) =    -35.57127  eV     2   -->   2 G_2            
     e(  3 -  4) =    -35.56806  eV     2   -->   2 G_2            
     e(  5 -  6) =    -35.54010  eV     2   -->   2 G_2            
     e(  7 -  8) =    -35.53690  eV     2   -->   2 G_2            
     e(  9 - 10) =    -35.45990  eV     2   -->   2 G_2            
     e( 11 - 12) =    -35.42781  eV     2   -->   2 G_2            
     e( 13 - 14) =    -34.11244  eV     2   -->   2 G_2            
     e( 15 - 16) =    -34.10922  eV     2   -->   2 G_2            
     e( 17 - 18) =    -34.08615  eV     2   -->   2 G_2            
     e( 19 - 20) =    -34.08300  eV     2   -->   2 G_2            
     e( 21 - 22) =    -34.07196  eV     2   -->   2 G_2            
     e( 23 - 24) =    -34.06873  eV     2   -->   2 G_2            
     e( 25 - 26) =    -33.99788  eV     2   -->   2 G_2            
     e( 27 - 28) =    -33.98184  eV     2   -->   2 G_2            
     e( 29 - 30) =    -33.95590  eV     2   -->   2 G_2            
     e( 31 - 32) =    -28.20864  eV     2   -->   2 G_2            
     e( 33 - 34) =    -28.20655  eV     2   -->   2 G_2            
     e( 35 - 36) =    -28.20023  eV     2   -->   2 G_2            
     e( 37 - 38) =    -28.19816  eV     2   -->   2 G_2            
     e( 39 - 40) =    -26.96929  eV     2   -->   2 G_2            
     e( 41 - 42) =    -26.96719  eV     2   -->   2 G_2            
     e( 43 - 44) =    -26.96043  eV     2   -->   2 G_2            
     e( 45 - 46) =    -26.95837  eV     2   -->   2 G_2            
     e( 47 - 48) =    -26.95795  eV     2   -->   2 G_2            
     e( 49 - 50) =    -26.95589  eV     2   -->   2 G_2            
     e( 51 - 52) =    -10.66330  eV     2   -->   2 G_2            
     e( 53 - 54) =    -10.12969  eV     2   -->   2 G_2            
     e( 55 - 56) =     -9.05565  eV     2   -->   2 G_2            
     e( 57 - 58) =     -6.31635  eV     2   -->   2 G_2            
     e( 59 - 60) =     -4.95851  eV     2   -->   2 G_2            
     e( 61 - 62) =     -0.58297  eV     2   -->   2 G_2            
     e( 63 - 63) =     -0.21530  eV     1   --> G_2            
     e( 64 - 64) =     -0.21474  eV     1   --> G_2            
     e( 65 - 65) =      0.16043  eV     1   --> G_2            
     e( 66 - 66) =      0.16115  eV     1   --> G_2            
     e( 67 - 67) =      0.31179  eV     1   --> G_2            
     e( 68 - 68) =      0.31381  eV     1   --> G_2            
     e( 69 - 69) =      0.42405  eV     1   --> G_2            
     e( 70 - 70) =      0.42515  eV     1   --> G_2            
     e( 71 - 71) =      0.64518  eV     1   --> G_2            
     e( 72 - 72) =      0.64722  eV     1   --> G_2            
     e( 73 - 73) =      0.89132  eV     1   --> G_2            
     e( 74 - 74) =      0.89210  eV     1   --> G_2            
     e( 75 - 75) =      1.12139  eV     1   --> G_2            
     e( 76 - 76) =      1.12206  eV     1   --> G_2            
     e( 77 - 77) =      1.37358  eV     1   --> G_2            
     e( 78 - 78) =      1.37412  eV     1   --> G_2            
     e( 79 - 79) =      2.07096  eV     1   --> G_2            
     e( 80 - 80) =      2.07150  eV     1   --> G_2            
     e( 81 - 81) =      2.61780  eV     1   --> G_2            
     e( 82 - 82) =      2.61833  eV     1   --> G_2            
     e( 83 - 83) =      2.93477  eV     1   --> G_2            
     e( 84 - 84) =      2.93552  eV     1   --> G_2            
     e( 85 - 85) =      3.27430  eV     1   --> G_2            
     e( 86 - 86) =      3.27555  eV     1   --> G_2            
     e( 87 - 87) =      3.95363  eV     1   --> G_2            
     e( 88 - 88) =      3.95420  eV     1   --> G_2            
     e( 89 - 89) =      4.11358  eV     1   --> G_2            
     e( 90 - 90) =      4.11369  eV     1   --> G_2            
     e( 91 - 92) =      6.16621  eV     2   -->   2 G_2            
     e( 93 - 94) =      6.34295  eV     2   -->   2 G_2            
     e( 95 - 96) =      6.96070  eV     2   -->   2 G_2            
     e( 97 - 98) =      7.34641  eV     2   -->   2 G_2            
     e( 99 -100) =      7.53722  eV     2   -->   2 G_2            
     e(101 -102) =      7.81593  eV     2   -->   2 G_2            
     e(103 -104) =      8.37056  eV     2   -->   2 G_2            
     e(105 -105) =      8.51485  eV     1   --> G_2            
     e(106 -106) =      8.51542  eV     1   --> G_2            
     e(107 -107) =      8.63784  eV     1   --> G_2            
     e(108 -108) =      8.63873  eV     1   --> G_2            
     e(109 -109) =      8.75998  eV     1   --> G_2            
     e(110 -110) =      8.76027  eV     1   --> G_2            
     e(111 -112) =      9.12876  eV     2   -->   2 G_2            
     e(113 -114) =      9.58750  eV     2   -->   2 G_2            
     e(115 -116) =      9.68693  eV     2   -->   2 G_2            
     e(117 -118) =      9.95430  eV     2   -->   2 G_2            
     e(119 -120) =     10.08758  eV     2   -->   2 G_2            
     e(121 -122) =     10.50953  eV     2   -->   2 G_2            
     e(123 -123) =     10.91678  eV     1   --> G_2            
     e(124 -124) =     10.91689  eV     1   --> G_2            
     e(125 -125) =     11.19992  eV     1   --> G_2            
     e(126 -126) =     11.20044  eV     1   --> G_2            
     e(127 -127) =     11.29213  eV     1   --> G_2            
     e(128 -128) =     11.29267  eV     1   --> G_2            
     e(129 -129) =     11.67870  eV     1   --> G_2            
     e(130 -130) =     11.67933  eV     1   --> G_2            
     e(131 -131) =     11.75469  eV     1   --> G_2            
     e(132 -132) =     11.75529  eV     1   --> G_2            
     e(133 -134) =     12.75650  eV     2   -->   2 G_2            
     e(135 -136) =     12.82361  eV     2   -->   2 G_2            
     e(137 -138) =     13.60583  eV     2   -->   2 G_2            
     e(139 -139) =     13.94531  eV     1   --> G_2            
     e(140 -140) =     13.94552  eV     1   --> G_2            
     e(141 -141) =     14.13704  eV     1   --> G_2            
     e(142 -142) =     14.13739  eV     1   --> G_2            
     e(143 -144) =     14.30094  eV     2   -->   2 G_2            
     e(145 -146) =     14.44100  eV     2   -->   2 G_2            
     e(147 -148) =     14.99593  eV     2   -->   2 G_2            
     e(149 -150) =     15.39305  eV     2   -->   2 G_2            
     e(151 -152) =     15.77027  eV     2   -->   2 G_2            
     e(153 -154) =     15.91047  eV     2   -->   2 G_2            
     e(155 -155) =     16.18293  eV     1   --> G_2            
     e(156 -156) =     16.18311  eV     1   --> G_2            
     e(157 -157) =     16.20369  eV     1   --> G_2            
     e(158 -158) =     16.20390  eV     1   --> G_2            
     e(159 -160) =     16.34936  eV     2   -->   2 G_2            
     e(161 -162) =     16.47255  eV     2   -->   2 G_2            
     e(163 -164) =     16.63695  eV     2   -->   2 G_2            
     e(165 -166) =     16.67403  eV     2   -->   2 G_2            
     e(167 -168) =     17.01442  eV     2   -->   2 G_2            
     e(169 -170) =     17.09192  eV     2   -->   2 G_2            
     e(171 -172) =     17.26132  eV     2   -->   2 G_2            
     e(173 -174) =     17.32133  eV     2   -->   2 G_2            
     e(175 -176) =     17.40038  eV     2   -->   2 G_2            
     e(177 -178) =     17.56898  eV     2   -->   2 G_2            
     e(179 -180) =     17.63735  eV     2   -->   2 G_2            
     e(181 -182) =     17.74018  eV     2   -->   2 G_2            
     e(183 -183) =     17.91044  eV     1   --> G_2            
     e(184 -184) =     17.91065  eV     1   --> G_2            
     e(185 -185) =     17.93156  eV     1   --> G_2            
     e(186 -186) =     17.93177  eV     1   --> G_2            
     e(187 -188) =     18.17260  eV     2   -->   2 G_2            
     e(189 -190) =     18.44273  eV     2   -->   2 G_2            
     e(191 -192) =     18.54025  eV     2   -->   2 G_2            
     e(193 -194) =     18.91821  eV     2   -->   2 G_2            
     e(195 -196) =     19.13835  eV     2   -->   2 G_2            
     e(197 -198) =     19.22146  eV     2   -->   2 G_2            
     e(199 -200) =     19.32084  eV     2   -->   2 G_2            

 **************************************************************************

 **************************************************************************

                    xk=(   0.03571,   0.02062,   0.00000  )

     Band symmetry, C_1 (1)     double point group:

     e(  1 -  2) =    -35.57127  eV     2   -->   2 G_2            
     e(  3 -  4) =    -35.56806  eV     2   -->   2 G_2            
     e(  5 -  6) =    -35.54010  eV     2   -->   2 G_2            
     e(  7 -  8) =    -35.53690  eV     2   -->   2 G_2            
     e(  9 - 10) =    -35.45990  eV     2   -->   2 G_2            
     e( 11 - 12) =    -35.42780  eV     2   -->   2 G_2            
     e( 13 - 14) =    -34.11244  eV     2   -->   2 G_2            
     e( 15 - 16) =    -34.10921  eV     2   -->   2 G_2            
     e( 17 - 18) =    -34.08615  eV     2   -->   2 G_2            
     e( 19 - 20) =    -34.08300  eV     2   -->   2 G_2            
     e( 21 - 22) =    -34.07196  eV     2   -->   2 G_2            
     e( 23 - 24) =    -34.06873  eV     2   -->   2 G_2            
     e( 25 - 26) =    -33.99788  eV     2   -->   2 G_2            
     e( 27 - 28) =    -33.98184  eV     2   -->   2 G_2            
     e( 29 - 30) =    -33.95590  eV     2   -->   2 G_2            
     e( 31 - 32) =    -28.20864  eV     2   -->   2 G_2            
     e( 33 - 34) =    -28.20655  eV     2   -->   2 G_2            
     e( 35 - 36) =    -28.20023  eV     2   -->   2 G_2            
     e( 37 - 38) =    -28.19817  eV     2   -->   2 G_2            
     e( 39 - 40) =    -26.96928  eV     2   -->   2 G_2            
     e( 41 - 42) =    -26.96719  eV     2   -->   2 G_2            
     e( 43 - 44) =    -26.96044  eV     2   -->   2 G_2            
     e( 45 - 46) =    -26.95838  eV     2   -->   2 G_2            
     e( 47 - 48) =    -26.95795  eV     2   -->   2 G_2            
     e( 49 - 50) =    -26.95589  eV     2   -->   2 G_2            
     e( 51 - 52) =    -10.65952  eV     2   -->   2 G_2            
     e( 53 - 54) =    -10.12625  eV     2   -->   2 G_2            
     e( 55 - 56) =     -9.05360  eV     2   -->   2 G_2            
     e( 57 - 58) =     -6.31715  eV     2   -->   2 G_2            
     e( 59 - 60) =     -4.96580  eV     2   -->   2 G_2            
     e( 61 - 61) =     -0.59031  eV     1   --> G_2            
     e( 62 - 62) =     -0.59020  eV     1   --> G_2            
     e( 63 - 63) =     -0.25836  eV     1   --> G_2            
     e( 64 - 64) =     -0.25772  eV     1   --> G_2            
     e( 65 - 65) =      0.15746  eV     1   --> G_2            
     e( 66 - 66) =      0.15822  eV     1   --> G_2            
     e( 67 - 67) =      0.26594  eV     1   --> G_2            
     e( 68 - 68) =      0.26789  eV     1   --> G_2            
     e( 69 - 69) =      0.41600  eV     1   --> G_2            
     e( 70 - 70) =      0.41712  eV     1   --> G_2            
     e( 71 - 71) =      0.65232  eV     1   --> G_2            
     e( 72 - 72) =      0.65432  eV     1   --> G_2            
     e( 73 - 73) =      0.90446  eV     1   --> G_2            
     e( 74 - 74) =      0.90537  eV     1   --> G_2            
     e( 75 - 75) =      1.11087  eV     1   --> G_2            
     e( 76 - 76) =      1.11169  eV     1   --> G_2            
     e( 77 - 77) =      1.39979  eV     1   --> G_2            
     e( 78 - 78) =      1.40043  eV     1   --> G_2            
     e( 79 - 79) =      2.11181  eV     1   --> G_2            
     e( 80 - 80) =      2.11244  eV     1   --> G_2            
     e( 81 - 81) =      2.60994  eV     1   --> G_2            
     e( 82 - 82) =      2.61053  eV     1   --> G_2            
     e( 83 - 83) =      2.92164  eV     1   --> G_2            
     e( 84 - 84) =      2.92234  eV     1   --> G_2            
     e( 85 - 85) =      3.30393  eV     1   --> G_2            
     e( 86 - 86) =      3.30527  eV     1   --> G_2            
     e( 87 - 87) =      3.96907  eV     1   --> G_2            
     e( 88 - 88) =      3.96977  eV     1   --> G_2            
     e( 89 - 89) =      4.11400  eV     1   --> G_2            
     e( 90 - 90) =      4.11413  eV     1   --> G_2            
     e( 91 - 92) =      6.17297  eV     2   -->   2 G_2            
     e( 93 - 94) =      6.34395  eV     2   -->   2 G_2            
     e( 95 - 96) =      6.96125  eV     2   -->   2 G_2            
     e( 97 - 98) =      7.32627  eV     2   -->   2 G_2            
     e( 99 -100) =      7.53707  eV     2   -->   2 G_2            
     e(101 -102) =      7.82014  eV     2   -->   2 G_2            
     e(103 -104) =      8.38912  eV     2   -->   2 G_2            
     e(105 -105) =      8.49719  eV     1   --> G_2            
     e(106 -106) =      8.49777  eV     1   --> G_2            
     e(107 -107) =      8.62796  eV     1   --> G_2            
     e(108 -108) =      8.62881  eV     1   --> G_2            
     e(109 -109) =      8.77714  eV     1   --> G_2            
     e(110 -110) =      8.77739  eV     1   --> G_2            
     e(111 -112) =      9.12186  eV     2   -->   2 G_2            
     e(113 -114) =      9.62256  eV     2   -->   2 G_2            
     e(115 -116) =      9.70387  eV     2   -->   2 G_2            
     e(117 -118) =      9.94572  eV     2   -->   2 G_2            
     e(119 -120) =     10.10761  eV     2   -->   2 G_2            
     e(121 -122) =     10.52847  eV     2   -->   2 G_2            
     e(123 -123) =     10.90829  eV     1   --> G_2            
     e(124 -124) =     10.90844  eV     1   --> G_2            
     e(125 -125) =     11.16846  eV     1   --> G_2            
     e(126 -126) =     11.16888  eV     1   --> G_2            
     e(127 -127) =     11.26611  eV     1   --> G_2            
     e(128 -128) =     11.26654  eV     1   --> G_2            
     e(129 -129) =     11.73712  eV     1   --> G_2            
     e(130 -130) =     11.73793  eV     1   --> G_2            
     e(131 -131) =     11.80046  eV     1   --> G_2            
     e(132 -132) =     11.80123  eV     1   --> G_2            
     e(133 -134) =     12.74763  eV     2   -->   2 G_2            
     e(135 -136) =     12.83376  eV     2   -->   2 G_2            
     e(137 -138) =     13.55714  eV     2   -->   2 G_2            
     e(139 -139) =     13.90665  eV     1   --> G_2            
     e(140 -140) =     13.90680  eV     1   --> G_2            
     e(141 -141) =     14.15488  eV     1   --> G_2            
     e(142 -142) =     14.15514  eV     1   --> G_2            
     e(143 -144) =     14.33639  eV     2   -->   2 G_2            
     e(145 -146) =     14.47821  eV     2   -->   2 G_2            
     e(147 -148) =     14.95953  eV     2   -->   2 G_2            
     e(149 -150) =     15.37625  eV     2   -->   2 G_2            
     e(151 -152) =     15.72929  eV     2   -->   2 G_2            
     e(153 -154) =     15.87300  eV     2   -->   2 G_2            
     e(155 -156) =     16.15812  eV     2   -->   2 G_2            
     e(157 -157) =     16.24125  eV     1   --> G_2            
     e(158 -158) =     16.24137  eV     1   --> G_2            
     e(159 -159) =     16.37973  eV     1   --> G_2            
     e(160 -160) =     16.37987  eV     1   --> G_2            
     e(161 -162) =     16.42210  eV     2   -->   2 G_2            
     e(163 -164) =     16.54233  eV     2   -->   2 G_2            
     e(165 -166) =     16.70167  eV     2   -->   2 G_2            
     e(167 -168) =     16.96510  eV     2   -->   2 G_2            
     e(169 -170) =     17.07128  eV     2   -->   2 G_2            
     e(171 -172) =     17.22033  eV     2   -->   2 G_2            
     e(173 -174) =     17.29976  eV     2   -->   2 G_2            
     e(175 -176) =     17.49668  eV     2   -->   2 G_2            
     e(177 -178) =     17.56094  eV     2   -->   2 G_2            
     e(179 -180) =     17.71400  eV     2   -->   2 G_2            
     e(181 -182) =     17.83970  eV     2   -->   2 G_2            
     e(183 -184) =     17.97507  eV     2   -->   2 G_2            
     e(185 -186) =     18.00052  eV     2   -->   2 G_2            
     e(187 -188) =     18.18975  eV     2   -->   2 G_2            
     e(189 -190) =     18.39181  eV     2   -->   2 G_2            
     e(191 -192) =     18.43144  eV     2   -->   2 G_2            
     e(193 -194) =     18.85713  eV     2   -->   2 G_2            
     e(195 -196) =     19.08930  eV     2   -->   2 G_2            
     e(197 -198) =     19.19696  eV     2   -->   2 G_2            
     e(199 -200) =     19.29675  eV     2   -->   2 G_2            

 **************************************************************************

 **************************************************************************

                    xk=(   0.04286,   0.02474,   0.00000  )

     Band symmetry, C_1 (1)     double point group:

     e(  1 -  2) =    -35.57126  eV     2   -->   2 G_2            
     e(  3 -  4) =    -35.56805  eV     2   -->   2 G_2            
     e(  5 -  6) =    -35.54010  eV     2   -->   2 G_2            
     e(  7 -  8) =    -35.53690  eV     2   -->   2 G_2            
     e(  9 - 10) =    -35.45990  eV     2   -->   2 G_2            
     e( 11 - 12) =    -35.42780  eV     2   -->   2 G_2            
     e( 13 - 14) =    -34.11244  eV     2   -->   2 G_2            
     e( 15 - 16) =    -34.10921  eV     2   -->   2 G_2            
     e( 17 - 18) =    -34.08615  eV     2   -->   2 G_2            
     e( 19 - 20) =    -34.08300  eV     2   -->   2 G_2            
     e( 21 - 22) =    -34.07196  eV     2   -->   2 G_2            
     e( 23 - 24) =    -34.06873  eV     2   -->   2 G_2            
     e( 25 - 26) =    -33.99788  eV     2   -->   2 G_2            
     e( 27 - 28) =    -33.98184  eV     2   -->   2 G_2            
     e( 29 - 30) =    -33.95590  eV     2   -->   2 G_2            
     e( 31 - 32) =    -28.20864  eV     2   -->   2 G_2            
     e( 33 - 34) =    -28.20654  eV     2   -->   2 G_2            
     e( 35 - 36) =    -28.20023  eV     2   -->   2 G_2            
     e( 37 - 38) =    -28.19817  eV     2   -->   2 G_2            
     e( 39 - 40) =    -26.96927  eV     2   -->   2 G_2            
     e( 41 - 42) =    -26.96718  eV     2   -->   2 G_2            
     e( 43 - 44) =    -26.96045  eV     2   -->   2 G_2            
     e( 45 - 46) =    -26.95839  eV     2   -->   2 G_2            
     e( 47 - 48) =    -26.95795  eV     2   -->   2 G_2            
     e( 49 - 50) =    -26.95589  eV     2   -->   2 G_2            
     e( 51 - 52) =    -10.65490  eV     2   -->   2 G_2            
     e( 53 - 54) =    -10.12205  eV     2   -->   2 G_2            
     e( 55 - 56) =     -9.05110  eV     2   -->   2 G_2            
     e( 57 - 58) =     -6.31814  eV     2   -->   2 G_2            
     e( 59 - 60) =     -4.97470  eV     2   -->   2 G_2            
     e( 61 - 61) =     -0.59947  eV     1   --> G_2            
     e( 62 - 62) =     -0.59935  eV     1   --> G_2            
     e( 63 - 63) =     -0.30654  eV     1   --> G_2            
     e( 64 - 64) =     -0.30581  eV     1   --> G_2            
     e( 65 - 65) =      0.14972  eV     1   --> G_2            
     e( 66 - 66) =      0.15042  eV     1   --> G_2            
     e( 67 - 67) =      0.21989  eV     1   --> G_2            
     e( 68 - 68) =      0.22159  eV     1   --> G_2            
     e( 69 - 69) =      0.40729  eV     1   --> G_2            
     e( 70 - 70) =      0.40841  eV     1   --> G_2            
     e( 71 - 71) =      0.65237  eV     1   --> G_2            
     e( 72 - 72) =      0.65427  eV     1   --> G_2            
     e( 73 - 73) =      0.91352  eV     1   --> G_2            
     e( 74 - 74) =      0.91449  eV     1   --> G_2            
     e( 75 - 75) =      1.10861  eV     1   --> G_2            
     e( 76 - 76) =      1.10952  eV     1   --> G_2            
     e( 77 - 77) =      1.43026  eV     1   --> G_2            
     e( 78 - 78) =      1.43096  eV     1   --> G_2            
     e( 79 - 79) =      2.15404  eV     1   --> G_2            
     e( 80 - 80) =      2.15474  eV     1   --> G_2            
     e( 81 - 81) =      2.60226  eV     1   --> G_2            
     e( 82 - 82) =      2.60286  eV     1   --> G_2            
     e( 83 - 83) =      2.91451  eV     1   --> G_2            
     e( 84 - 84) =      2.91511  eV     1   --> G_2            
     e( 85 - 85) =      3.33286  eV     1   --> G_2            
     e( 86 - 86) =      3.33425  eV     1   --> G_2            
     e( 87 - 87) =      3.98532  eV     1   --> G_2            
     e( 88 - 88) =      3.98616  eV     1   --> G_2            
     e( 89 - 89) =      4.11712  eV     1   --> G_2            
     e( 90 - 90) =      4.11727  eV     1   --> G_2            
     e( 91 - 92) =      6.18114  eV     2   -->   2 G_2            
     e( 93 - 94) =      6.34511  eV     2   -->   2 G_2            
     e( 95 - 96) =      6.96123  eV     2   -->   2 G_2            
     e( 97 - 98) =      7.30333  eV     2   -->   2 G_2            
     e( 99 -100) =      7.53728  eV     2   -->   2 G_2            
     e(101 -102) =      7.82615  eV     2   -->   2 G_2            
     e(103 -104) =      8.40649  eV     2   -->   2 G_2            
     e(105 -105) =      8.47793  eV     1   --> G_2            
     e(106 -106) =      8.47848  eV     1   --> G_2            
     e(107 -107) =      8.62012  eV     1   --> G_2            
     e(108 -108) =      8.62088  eV     1   --> G_2            
     e(109 -109) =      8.79858  eV     1   --> G_2            
     e(110 -110) =      8.79878  eV     1   --> G_2            
     e(111 -112) =      9.11537  eV     2   -->   2 G_2            
     e(113 -114) =      9.65429  eV     2   -->   2 G_2            
     e(115 -116) =      9.72351  eV     2   -->   2 G_2            
     e(117 -118) =      9.94164  eV     2   -->   2 G_2            
     e(119 -120) =     10.13223  eV     2   -->   2 G_2            
     e(121 -122) =     10.55231  eV     2   -->   2 G_2            
     e(123 -123) =     10.89235  eV     1   --> G_2            
     e(124 -124) =     10.89254  eV     1   --> G_2            
     e(125 -125) =     11.14463  eV     1   --> G_2            
     e(126 -126) =     11.14498  eV     1   --> G_2            
     e(127 -127) =     11.24362  eV     1   --> G_2            
     e(128 -128) =     11.24395  eV     1   --> G_2            
     e(129 -129) =     11.79305  eV     1   --> G_2            
     e(130 -130) =     11.79396  eV     1   --> G_2            
     e(131 -131) =     11.85157  eV     1   --> G_2            
     e(132 -132) =     11.85244  eV     1   --> G_2            
     e(133 -134) =     12.73780  eV     2   -->   2 G_2            
     e(135 -136) =     12.84524  eV     2   -->   2 G_2            
     e(137 -138) =     13.50912  eV     2   -->   2 G_2            
     e(139 -139) =     13.86753  eV     1   --> G_2            
     e(140 -140) =     13.86765  eV     1   --> G_2            
     e(141 -141) =     14.16776  eV     1   --> G_2            
     e(142 -142) =     14.16796  eV     1   --> G_2            
     e(143 -144) =     14.37555  eV     2   -->   2 G_2            
     e(145 -146) =     14.51672  eV     2   -->   2 G_2            
     e(147 -148) =     14.90219  eV     2   -->   2 G_2            
     e(149 -150) =     15.38691  eV     2   -->   2 G_2            
     e(151 -152) =     15.68795  eV     2   -->   2 G_2            
     e(153 -154) =     15.82648  eV     2   -->   2 G_2            
     e(155 -156) =     16.09750  eV     2   -->   2 G_2            
     e(157 -158) =     16.26833  eV     2   -->   2 G_2            
     e(159 -160) =     16.33319  eV     2   -->   2 G_2            
     e(161 -161) =     16.44833  eV     1   --> G_2            
     e(162 -162) =     16.44855  eV     1   --> G_2            
     e(163 -163) =     16.48535  eV     1   --> G_2            
     e(164 -164) =     16.48556  eV     1   --> G_2            
     e(165 -166) =     16.74273  eV     2   -->   2 G_2            
     e(167 -168) =     16.92509  eV     2   -->   2 G_2            
     e(169 -170) =     17.03875  eV     2   -->   2 G_2            
     e(171 -172) =     17.17699  eV     2   -->   2 G_2            
     e(173 -174) =     17.27441  eV     2   -->   2 G_2            
     e(175 -176) =     17.55944  eV     2   -->   2 G_2            
     e(177 -178) =     17.59354  eV     2   -->   2 G_2            
     e(179 -180) =     17.79865  eV     2   -->   2 G_2            
     e(181 -182) =     17.91650  eV     2   -->   2 G_2            
     e(183 -184) =     18.00147  eV     2   -->   2 G_2            
     e(185 -186) =     18.10065  eV     2   -->   2 G_2            
     e(187 -188) =     18.20149  eV     2   -->   2 G_2            
     e(189 -190) =     18.30184  eV     2   -->   2 G_2            
     e(191 -192) =     18.42127  eV     2   -->   2 G_2            
     e(193 -194) =     18.79677  eV     2   -->   2 G_2            
     e(195 -196) =     19.04033  eV     2   -->   2 G_2            
     e(197 -198) =     19.15830  eV     2   -->   2 G_2            
     e(199 -200) =     19.25277  eV     2   -->   2 G_2            

 **************************************************************************

 **************************************************************************

                    xk=(   0.05000,   0.02887,   0.00000  )

     Band symmetry, C_1 (1)     double point group:

     e(  1 -  2) =    -35.57126  eV     2   -->   2 G_2            
     e(  3 -  4) =    -35.56805  eV     2   -->   2 G_2            
     e(  5 -  6) =    -35.54010  eV     2   -->   2 G_2            
     e(  7 -  8) =    -35.53690  eV     2   -->   2 G_2            
     e(  9 - 10) =    -35.45990  eV     2   -->   2 G_2            
     e( 11 - 12) =    -35.42780  eV     2   -->   2 G_2            
     e( 13 - 14) =    -34.11243  eV     2   -->   2 G_2            
     e( 15 - 16) =    -34.10921  eV     2   -->   2 G_2            
     e( 17 - 18) =    -34.08615  eV     2   -->   2 G_2            
     e( 19 - 20) =    -34.08300  eV     2   -->   2 G_2            
     e( 21 - 22) =    -34.07196  eV     2   -->   2 G_2            
     e( 23 - 24) =    -34.06872  eV     2   -->   2 G_2            
     e( 25 - 26) =    -33.99788  eV     2   -->   2 G_2            
     e( 27 - 28) =    -33.98184  eV     2   -->   2 G_2            
     e( 29 - 30) =    -33.95589  eV     2   -->   2 G_2            
     e( 31 - 32) =    -28.20864  eV     2   -->   2 G_2            
     e( 33 - 34) =    -28.20654  eV     2   -->   2 G_2            
     e( 35 - 36) =    -28.20024  eV     2   -->   2 G_2            
     e( 37 - 38) =    -28.19817  eV     2   -->   2 G_2            
     e( 39 - 40) =    -26.96927  eV     2   -->   2 G_2            
     e( 41 - 42) =    -26.96717  eV     2   -->   2 G_2            
     e( 43 - 44) =    -26.96046  eV     2   -->   2 G_2            
     e( 45 - 46) =    -26.95840  eV     2   -->   2 G_2            
     e( 47 - 48) =    -26.95795  eV     2   -->   2 G_2            
     e( 49 - 50) =    -26.95589  eV     2   -->   2 G_2            
     e( 51 - 52) =    -10.64944  eV     2   -->   2 G_2            
     e( 53 - 54) =    -10.11708  eV     2   -->   2 G_2            
     e( 55 - 56) =     -9.04816  eV     2   -->   2 G_2            
     e( 57 - 58) =     -6.31934  eV     2   -->   2 G_2            
     e( 59 - 60) =     -4.98520  eV     2   -->   2 G_2            
     e( 61 - 61) =     -0.61067  eV     1   --> G_2            
     e( 62 - 62) =     -0.61054  eV     1   --> G_2            
     e( 63 - 63) =     -0.35864  eV     1   --> G_2            
     e( 64 - 64) =     -0.35783  eV     1   --> G_2            
     e( 65 - 65) =      0.13382  eV     1   --> G_2            
     e( 66 - 66) =      0.13467  eV     1   --> G_2            
     e( 67 - 67) =      0.17798  eV     1   --> G_2            
     e( 68 - 68) =      0.17899  eV     1   --> G_2            
     e( 69 - 69) =      0.39704  eV     1   --> G_2            
     e( 70 - 70) =      0.39815  eV     1   --> G_2            
     e( 71 - 71) =      0.64527  eV     1   --> G_2            
     e( 72 - 72) =      0.64701  eV     1   --> G_2            
     e( 73 - 73) =      0.91726  eV     1   --> G_2            
     e( 74 - 74) =      0.91821  eV     1   --> G_2            
     e( 75 - 75) =      1.11747  eV     1   --> G_2            
     e( 76 - 76) =      1.11835  eV     1   --> G_2            
     e( 77 - 77) =      1.46304  eV     1   --> G_2            
     e( 78 - 78) =      1.46376  eV     1   --> G_2            
     e( 79 - 79) =      2.19438  eV     1   --> G_2            
     e( 80 - 80) =      2.19512  eV     1   --> G_2            
     e( 81 - 81) =      2.59744  eV     1   --> G_2            
     e( 82 - 82) =      2.59799  eV     1   --> G_2            
     e( 83 - 83) =      2.91398  eV     1   --> G_2            
     e( 84 - 84) =      2.91443  eV     1   --> G_2            
     e( 85 - 85) =      3.36039  eV     1   --> G_2            
     e( 86 - 86) =      3.36183  eV     1   --> G_2            
     e( 87 - 87) =      4.00027  eV     1   --> G_2            
     e( 88 - 88) =      4.00124  eV     1   --> G_2            
     e( 89 - 89) =      4.12497  eV     1   --> G_2            
     e( 90 - 90) =      4.12519  eV     1   --> G_2            
     e( 91 - 92) =      6.19067  eV     2   -->   2 G_2            
     e( 93 - 94) =      6.34638  eV     2   -->   2 G_2            
     e( 95 - 96) =      6.96013  eV     2   -->   2 G_2            
     e( 97 - 98) =      7.27879  eV     2   -->   2 G_2            
     e( 99 -100) =      7.53784  eV     2   -->   2 G_2            
     e(101 -102) =      7.83413  eV     2   -->   2 G_2            
     e(103 -103) =      8.41232  eV     1   --> G_2            
     e(104 -104) =      8.41243  eV     1   --> G_2            
     e(105 -105) =      8.46762  eV     1   --> G_2            
     e(106 -106) =      8.46803  eV     1   --> G_2            
     e(107 -107) =      8.61528  eV     1   --> G_2            
     e(108 -108) =      8.61595  eV     1   --> G_2            
     e(109 -109) =      8.82329  eV     1   --> G_2            
     e(110 -110) =      8.82345  eV     1   --> G_2            
     e(111 -112) =      9.10979  eV     2   -->   2 G_2            
     e(113 -114) =      9.67652  eV     2   -->   2 G_2            
     e(115 -115) =      9.74612  eV     1   --> G_2            
     e(116 -116) =      9.74624  eV     1   --> G_2            
     e(117 -118) =      9.94657  eV     2   -->   2 G_2            
     e(119 -120) =     10.16136  eV     2   -->   2 G_2            
     e(121 -121) =     10.58121  eV     1   --> G_2            
     e(122 -122) =     10.58132  eV     1   --> G_2            
     e(123 -123) =     10.86878  eV     1   --> G_2            
     e(124 -124) =     10.86900  eV     1   --> G_2            
     e(125 -125) =     11.12831  eV     1   --> G_2            
     e(126 -126) =     11.12858  eV     1   --> G_2            
     e(127 -127) =     11.22590  eV     1   --> G_2            
     e(128 -128) =     11.22615  eV     1   --> G_2            
     e(129 -129) =     11.84643  eV     1   --> G_2            
     e(130 -130) =     11.84734  eV     1   --> G_2            
     e(131 -131) =     11.90635  eV     1   --> G_2            
     e(132 -132) =     11.90721  eV     1   --> G_2            
     e(133 -134) =     12.72706  eV     2   -->   2 G_2            
     e(135 -136) =     12.85808  eV     2   -->   2 G_2            
     e(137 -138) =     13.46339  eV     2   -->   2 G_2            
     e(139 -140) =     13.82907  eV     2   -->   2 G_2            
     e(141 -141) =     14.17717  eV     1   --> G_2            
     e(142 -142) =     14.17732  eV     1   --> G_2            
     e(143 -143) =     14.41612  eV     1   --> G_2            
     e(144 -144) =     14.41625  eV     1   --> G_2            
     e(145 -146) =     14.54939  eV     2   -->   2 G_2            
     e(147 -148) =     14.83837  eV     2   -->   2 G_2            
     e(149 -150) =     15.41452  eV     2   -->   2 G_2            
     e(151 -152) =     15.64664  eV     2   -->   2 G_2            
     e(153 -154) =     15.76987  eV     2   -->   2 G_2            
     e(155 -156) =     16.02867  eV     2   -->   2 G_2            
     e(157 -158) =     16.22947  eV     2   -->   2 G_2            
     e(159 -160) =     16.29615  eV     2   -->   2 G_2            
     e(161 -161) =     16.46012  eV     1   --> G_2            
     e(162 -162) =     16.46032  eV     1   --> G_2            
     e(163 -163) =     16.50579  eV     1   --> G_2            
     e(164 -164) =     16.50597  eV     1   --> G_2            
     e(165 -166) =     16.77628  eV     2   -->   2 G_2            
     e(167 -168) =     16.91010  eV     2   -->   2 G_2            
     e(169 -170) =     16.99899  eV     2   -->   2 G_2            
     e(171 -172) =     17.13522  eV     2   -->   2 G_2            
     e(173 -174) =     17.24440  eV     2   -->   2 G_2            
     e(175 -176) =     17.57533  eV     2   -->   2 G_2            
     e(177 -178) =     17.67707  eV     2   -->   2 G_2            
     e(179 -180) =     17.87041  eV     2   -->   2 G_2            
     e(181 -182) =     17.92712  eV     2   -->   2 G_2            
     e(183 -184) =     18.04674  eV     2   -->   2 G_2            
     e(185 -186) =     18.18723  eV     2   -->   2 G_2            
     e(187 -188) =     18.21605  eV     2   -->   2 G_2            
     e(189 -190) =     18.25203  eV     2   -->   2 G_2            
     e(191 -192) =     18.46927  eV     2   -->   2 G_2            
     e(193 -194) =     18.73810  eV     2   -->   2 G_2            
     e(195 -196) =     18.99319  eV     2   -->   2 G_2            
     e(197 -198) =     19.11482  eV     2   -->   2 G_2            
     e(199 -200) =     19.20423  eV     2   -->   2 G_2            

 **************************************************************************

 **************************************************************************

                    xk=(   0.05714,   0.03299,   0.00000  )

     Band symmetry, C_1 (1)     double point group:

     e(  1 -  2) =    -35.57126  eV     2   -->   2 G_2            
     e(  3 -  4) =    -35.56805  eV     2   -->   2 G_2            
     e(  5 -  6) =    -35.54010  eV     2   -->   2 G_2            
     e(  7 -  8) =    -35.53690  eV     2   -->   2 G_2            
     e(  9 - 10) =    -35.45990  eV     2   -->   2 G_2            
     e( 11 - 12) =    -35.42780  eV     2   -->   2 G_2            
     e( 13 - 14) =    -34.11243  eV     2   -->   2 G_2            
     e( 15 - 16) =    -34.10920  eV     2   -->   2 G_2            
     e( 17 - 18) =    -34.08615  eV     2   -->   2 G_2            
     e( 19 - 20) =    -34.08300  eV     2   -->   2 G_2            
     e( 21 - 22) =    -34.07196  eV     2   -->   2 G_2            
     e( 23 - 24) =    -34.06872  eV     2   -->   2 G_2            
     e( 25 - 26) =    -33.99787  eV     2   -->   2 G_2            
     e( 27 - 28) =    -33.98184  eV     2   -->   2 G_2            
     e( 29 - 30) =    -33.95589  eV     2   -->   2 G_2            
     e( 31 - 32) =    -28.20863  eV     2   -->   2 G_2            
     e( 33 - 34) =    -28.20654  eV     2   -->   2 G_2            
     e( 35 - 36) =    -28.20024  eV     2   -->   2 G_2            
     e( 37 - 38) =    -28.19818  eV     2   -->   2 G_2            
     e( 39 - 40) =    -26.96926  eV     2   -->   2 G_2            
     e( 41 - 42) =    -26.96716  eV     2   -->   2 G_2            
     e( 43 - 44) =    -26.96046  eV     2   -->   2 G_2            
     e( 45 - 46) =    -26.95841  eV     2   -->   2 G_2            
     e( 47 - 48) =    -26.95795  eV     2   -->   2 G_2            
     e( 49 - 50) =    -26.95589  eV     2   -->   2 G_2            
     e( 51 - 52) =    -10.64314  eV     2   -->   2 G_2            
     e( 53 - 54) =    -10.11136  eV     2   -->   2 G_2            
     e( 55 - 56) =     -9.04477  eV     2   -->   2 G_2            
     e( 57 - 58) =     -6.32077  eV     2   -->   2 G_2            
     e( 59 - 60) =     -4.99731  eV     2   -->   2 G_2            
     e( 61 - 61) =     -0.62427  eV     1   --> G_2            
     e( 62 - 62) =     -0.62411  eV     1   --> G_2            
     e( 63 - 63) =     -0.41352  eV     1   --> G_2            
     e( 64 - 64) =     -0.41260  eV     1   --> G_2            
     e( 65 - 65) =      0.10201  eV     1   --> G_2            
     e( 66 - 66) =      0.10378  eV     1   --> G_2            
     e( 67 - 67) =      0.14806  eV     1   --> G_2            
     e( 68 - 68) =      0.14880  eV     1   --> G_2            
     e( 69 - 69) =      0.38453  eV     1   --> G_2            
     e( 70 - 70) =      0.38561  eV     1   --> G_2            
     e( 71 - 71) =      0.63137  eV     1   --> G_2            
     e( 72 - 72) =      0.63290  eV     1   --> G_2            
     e( 73 - 73) =      0.91769  eV     1   --> G_2            
     e( 74 - 74) =      0.91857  eV     1   --> G_2            
     e( 75 - 75) =      1.13643  eV     1   --> G_2            
     e( 76 - 76) =      1.13724  eV     1   --> G_2            
     e( 77 - 77) =      1.49604  eV     1   --> G_2            
     e( 78 - 78) =      1.49675  eV     1   --> G_2            
     e( 79 - 79) =      2.22964  eV     1   --> G_2            
     e( 80 - 80) =      2.23039  eV     1   --> G_2            
     e( 81 - 81) =      2.59898  eV     1   --> G_2            
     e( 82 - 82) =      2.59948  eV     1   --> G_2            
     e( 83 - 83) =      2.91992  eV     1   --> G_2            
     e( 84 - 84) =      2.92022  eV     1   --> G_2            
     e( 85 - 85) =      3.38625  eV     1   --> G_2            
     e( 86 - 86) =      3.38770  eV     1   --> G_2            
     e( 87 - 87) =      4.01183  eV     1   --> G_2            
     e( 88 - 88) =      4.01291  eV     1   --> G_2            
     e( 89 - 89) =      4.13954  eV     1   --> G_2            
     e( 90 - 90) =      4.13987  eV     1   --> G_2            
     e( 91 - 92) =      6.20152  eV     2   -->   2 G_2            
     e( 93 - 94) =      6.34769  eV     2   -->   2 G_2            
     e( 95 - 96) =      6.95723  eV     2   -->   2 G_2            
     e( 97 - 98) =      7.25410  eV     2   -->   2 G_2            
     e( 99 -100) =      7.53872  eV     2   -->   2 G_2            
     e(101 -102) =      7.84412  eV     2   -->   2 G_2            
     e(103 -103) =      8.39563  eV     1   --> G_2            
     e(104 -104) =      8.39585  eV     1   --> G_2            
     e(105 -105) =      8.47811  eV     1   --> G_2            
     e(106 -106) =      8.47835  eV     1   --> G_2            
     e(107 -107) =      8.61324  eV     1   --> G_2            
     e(108 -108) =      8.61382  eV     1   --> G_2            
     e(109 -109) =      8.85056  eV     1   --> G_2            
     e(110 -110) =      8.85069  eV     1   --> G_2            
     e(111 -112) =      9.10555  eV     2   -->   2 G_2            
     e(113 -114) =      9.68484  eV     2   -->   2 G_2            
     e(115 -115) =      9.77168  eV     1   --> G_2            
     e(116 -116) =      9.77179  eV     1   --> G_2            
     e(117 -117) =      9.96406  eV     1   --> G_2            
     e(118 -118) =      9.96417  eV     1   --> G_2            
     e(119 -120) =     10.19463  eV     2   -->   2 G_2            
     e(121 -121) =     10.61522  eV     1   --> G_2            
     e(122 -122) =     10.61536  eV     1   --> G_2            
     e(123 -123) =     10.83958  eV     1   --> G_2            
     e(124 -124) =     10.83983  eV     1   --> G_2            
     e(125 -125) =     11.11691  eV     1   --> G_2            
     e(126 -126) =     11.11712  eV     1   --> G_2            
     e(127 -127) =     11.21437  eV     1   --> G_2            
     e(128 -128) =     11.21455  eV     1   --> G_2            
     e(129 -129) =     11.89789  eV     1   --> G_2            
     e(130 -130) =     11.89873  eV     1   --> G_2            
     e(131 -131) =     11.96256  eV     1   --> G_2            
     e(132 -132) =     11.96335  eV     1   --> G_2            
     e(133 -134) =     12.71561  eV     2   -->   2 G_2            
     e(135 -136) =     12.87230  eV     2   -->   2 G_2            
     e(137 -138) =     13.42128  eV     2   -->   2 G_2            
     e(139 -140) =     13.79184  eV     2   -->   2 G_2            
     e(141 -141) =     14.18464  eV     1   --> G_2            
     e(142 -142) =     14.18478  eV     1   --> G_2            
     e(143 -143) =     14.45296  eV     1   --> G_2            
     e(144 -144) =     14.45316  eV     1   --> G_2            
     e(145 -145) =     14.56311  eV     1   --> G_2            
     e(146 -146) =     14.56329  eV     1   --> G_2            
     e(147 -148) =     14.79140  eV     2   -->   2 G_2            
     e(149 -150) =     15.44484  eV     2   -->   2 G_2            
     e(151 -152) =     15.60440  eV     2   -->   2 G_2            
     e(153 -154) =     15.70708  eV     2   -->   2 G_2            
     e(155 -156) =     15.96410  eV     2   -->   2 G_2            
     e(157 -158) =     16.13263  eV     2   -->   2 G_2            
     e(159 -160) =     16.30153  eV     2   -->   2 G_2            
     e(161 -161) =     16.46457  eV     1   --> G_2            
     e(162 -162) =     16.46468  eV     1   --> G_2            
     e(163 -164) =     16.54640  eV     2   -->   2 G_2            
     e(165 -166) =     16.77931  eV     2   -->   2 G_2            
     e(167 -168) =     16.92898  eV     2   -->   2 G_2            
     e(169 -170) =     16.96514  eV     2   -->   2 G_2            
     e(171 -172) =     17.10007  eV     2   -->   2 G_2            
     e(173 -174) =     17.21057  eV     2   -->   2 G_2            
     e(175 -176) =     17.59293  eV     2   -->   2 G_2            
     e(177 -178) =     17.74397  eV     2   -->   2 G_2            
     e(179 -180) =     17.85067  eV     2   -->   2 G_2            
     e(181 -182) =     17.97142  eV     2   -->   2 G_2            
     e(183 -184) =     18.09646  eV     2   -->   2 G_2            
     e(185 -186) =     18.12524  eV     2   -->   2 G_2            
     e(187 -188) =     18.32146  eV     2   -->   2 G_2            
     e(189 -190) =     18.33707  eV     2   -->   2 G_2            
     e(191 -192) =     18.53105  eV     2   -->   2 G_2            
     e(193 -194) =     18.68275  eV     2   -->   2 G_2            
     e(195 -196) =     18.94964  eV     2   -->   2 G_2            
     e(197 -198) =     19.07112  eV     2   -->   2 G_2            
     e(199 -200) =     19.15585  eV     2   -->   2 G_2            

 **************************************************************************

 **************************************************************************

                    xk=(   0.06429,   0.03712,   0.00000  )

     Band symmetry, C_1 (1)     double point group:

     e(  1 -  2) =    -35.57125  eV     2   -->   2 G_2            
     e(  3 -  4) =    -35.56805  eV     2   -->   2 G_2            
[...]
     e(113 -114) =      9.52477  eV     2   -->   2 G_2            
     e(115 -116) =      9.66641  eV     2   -->   2 G_2            
     e(117 -118) =      9.97459  eV     2   -->   2 G_2            
     e(119 -120) =     10.06755  eV     2   -->   2 G_2            
     e(121 -122) =     10.49231  eV     2   -->   2 G_2            
     e(123 -124) =     10.90986  eV     2   -->   2 G_2            
     e(125 -125) =     11.25125  eV     1   --> G_2            
     e(126 -126) =     11.25164  eV     1   --> G_2            
     e(127 -127) =     11.38754  eV     1   --> G_2            
     e(128 -128) =     11.38815  eV     1   --> G_2            
     e(129 -129) =     11.53111  eV     1   --> G_2            
     e(130 -130) =     11.53135  eV     1   --> G_2            
     e(131 -131) =     11.71096  eV     1   --> G_2            
     e(132 -132) =     11.71118  eV     1   --> G_2            
     e(133 -134) =     12.77069  eV     2   -->   2 G_2            
     e(135 -136) =     12.81237  eV     2   -->   2 G_2            
     e(137 -138) =     13.68423  eV     2   -->   2 G_2            
     e(139 -139) =     14.03095  eV     1   --> G_2            
     e(140 -140) =     14.03152  eV     1   --> G_2            
     e(141 -141) =     14.07555  eV     1   --> G_2            
     e(142 -142) =     14.07630  eV     1   --> G_2            
     e(143 -143) =     14.20432  eV     1   --> G_2            
     e(144 -144) =     14.20446  eV     1   --> G_2            
     e(145 -146) =     14.42098  eV     2   -->   2 G_2            
     e(147 -148) =     15.02200  eV     2   -->   2 G_2            
     e(149 -150) =     15.48945  eV     2   -->   2 G_2            
     e(151 -151) =     15.88111  eV     1   --> G_2            
     e(152 -152) =     15.88135  eV     1   --> G_2            
     e(153 -153) =     15.92931  eV     1   --> G_2            
     e(154 -154) =     15.92956  eV     1   --> G_2            
     e(155 -155) =     16.03967  eV     1   --> G_2            
     e(156 -156) =     16.03977  eV     1   --> G_2            
     e(157 -158) =     16.15287  eV     2   -->   2 G_2            
     e(159 -160) =     16.32828  eV     2   -->   2 G_2            
     e(161 -162) =     16.61095  eV     2   -->   2 G_2            
     e(163 -164) =     16.70347  eV     2   -->   2 G_2            
     e(165 -166) =     16.85575  eV     2   -->   2 G_2            
     e(167 -168) =     17.07774  eV     2   -->   2 G_2            
     e(169 -170) =     17.14164  eV     2   -->   2 G_2            
     e(171 -172) =     17.19980  eV     2   -->   2 G_2            
     e(173 -174) =     17.23879  eV     2   -->   2 G_2            
     e(175 -176) =     17.44846  eV     2   -->   2 G_2            
     e(177 -178) =     17.46410  eV     2   -->   2 G_2            
     e(179 -180) =     17.48596  eV     2   -->   2 G_2            
     e(181 -182) =     17.53432  eV     2   -->   2 G_2            
     e(183 -184) =     17.81934  eV     2   -->   2 G_2            
     e(185 -186) =     17.90932  eV     2   -->   2 G_2            
     e(187 -188) =     18.18094  eV     2   -->   2 G_2            
     e(189 -190) =     18.63016  eV     2   -->   2 G_2            
     e(191 -192) =     18.76901  eV     2   -->   2 G_2            
     e(193 -193) =     19.05288  eV     1   --> G_2            
     e(194 -194) =     19.05310  eV     1   --> G_2            
     e(195 -195) =     19.10893  eV     1   --> G_2            
     e(196 -196) =     19.10907  eV     1   --> G_2            
     e(197 -198) =     19.14655  eV     2   -->   2 G_2            
     e(199 -200) =     19.29829  eV     2   -->   2 G_2            

 **************************************************************************

 **************************************************************************

                    xk=(   0.00476,   0.00841,   0.00000  )

     Band symmetry, C_1 (1)     double point group:

     e(  1 -  2) =    -35.57127  eV     2   -->   2 G_2            
     e(  3 -  4) =    -35.56806  eV     2   -->   2 G_2            
     e(  5 -  6) =    -35.54010  eV     2   -->   2 G_2            
     e(  7 -  8) =    -35.53690  eV     2   -->   2 G_2            
     e(  9 - 10) =    -35.45990  eV     2   -->   2 G_2            
     e( 11 - 12) =    -35.42781  eV     2   -->   2 G_2            
     e( 13 - 14) =    -34.11245  eV     2   -->   2 G_2            
     e( 15 - 16) =    -34.10922  eV     2   -->   2 G_2            
     e( 17 - 18) =    -34.08615  eV     2   -->   2 G_2            
     e( 19 - 20) =    -34.08300  eV     2   -->   2 G_2            
     e( 21 - 22) =    -34.07196  eV     2   -->   2 G_2            
     e( 23 - 24) =    -34.06873  eV     2   -->   2 G_2            
     e( 25 - 26) =    -33.99788  eV     2   -->   2 G_2            
     e( 27 - 28) =    -33.98184  eV     2   -->   2 G_2            
     e( 29 - 30) =    -33.95591  eV     2   -->   2 G_2            
     e( 31 - 32) =    -28.20864  eV     2   -->   2 G_2            
     e( 33 - 34) =    -28.20655  eV     2   -->   2 G_2            
     e( 35 - 36) =    -28.20022  eV     2   -->   2 G_2            
     e( 37 - 38) =    -28.19816  eV     2   -->   2 G_2            
     e( 39 - 40) =    -26.96930  eV     2   -->   2 G_2            
     e( 41 - 42) =    -26.96720  eV     2   -->   2 G_2            
     e( 43 - 44) =    -26.96041  eV     2   -->   2 G_2            
     e( 45 - 46) =    -26.95834  eV     2   -->   2 G_2            
     e( 47 - 48) =    -26.95795  eV     2   -->   2 G_2            
     e( 49 - 50) =    -26.95589  eV     2   -->   2 G_2            
     e( 51 - 52) =    -10.66945  eV     2   -->   2 G_2            
     e( 53 - 54) =    -10.13529  eV     2   -->   2 G_2            
     e( 55 - 56) =     -9.05899  eV     2   -->   2 G_2            
     e( 57 - 58) =     -6.31506  eV     2   -->   2 G_2            
     e( 59 - 60) =     -4.94657  eV     2   -->   2 G_2            
     e( 61 - 62) =     -0.57117  eV     2   -->   2 G_2            
     e( 63 - 63) =     -0.13325  eV     1   --> G_2            
     e( 64 - 64) =     -0.13298  eV     1   --> G_2            
     e( 65 - 65) =      0.15552  eV     1   --> G_2            
     e( 66 - 66) =      0.15575  eV     1   --> G_2            
     e( 67 - 67) =      0.40471  eV     1   --> G_2            
     e( 68 - 68) =      0.40528  eV     1   --> G_2            
     e( 69 - 69) =      0.46156  eV     1   --> G_2            
     e( 70 - 70) =      0.46231  eV     1   --> G_2            
     e( 71 - 71) =      0.59332  eV     1   --> G_2            
     e( 72 - 72) =      0.59462  eV     1   --> G_2            
     e( 73 - 73) =      0.85930  eV     1   --> G_2            
     e( 74 - 74) =      0.85950  eV     1   --> G_2            
     e( 75 - 75) =      1.15462  eV     1   --> G_2            
     e( 76 - 76) =      1.15477  eV     1   --> G_2            
     e( 77 - 77) =      1.33282  eV     1   --> G_2            
     e( 78 - 78) =      1.33306  eV     1   --> G_2            
     e( 79 - 79) =      1.98858  eV     1   --> G_2            
     e( 80 - 80) =      1.98878  eV     1   --> G_2            
     e( 81 - 81) =      2.63287  eV     1   --> G_2            
     e( 82 - 82) =      2.63298  eV     1   --> G_2            
     e( 83 - 83) =      2.98330  eV     1   --> G_2            
     e( 84 - 84) =      2.98371  eV     1   --> G_2            
     e( 85 - 85) =      3.20236  eV     1   --> G_2            
     e( 86 - 86) =      3.20278  eV     1   --> G_2            
     e( 87 - 88) =      3.92559  eV     2   -->   2 G_2            
     e( 89 - 90) =      4.11650  eV     2   -->   2 G_2            
     e( 91 - 92) =      6.15511  eV     2   -->   2 G_2            
     e( 93 - 94) =      6.34126  eV     2   -->   2 G_2            
     e( 95 - 96) =      6.95884  eV     2   -->   2 G_2            
     e( 97 - 98) =      7.38345  eV     2   -->   2 G_2            
     e( 99 -100) =      7.53868  eV     2   -->   2 G_2            
     e(101 -102) =      7.80726  eV     2   -->   2 G_2            
     e(103 -104) =      8.33526  eV     2   -->   2 G_2            
     e(105 -105) =      8.54440  eV     1   --> G_2            
     e(106 -106) =      8.54460  eV     1   --> G_2            
     e(107 -107) =      8.65548  eV     1   --> G_2            
     e(108 -108) =      8.65581  eV     1   --> G_2            
     e(109 -109) =      8.74106  eV     1   --> G_2            
     e(110 -110) =      8.74120  eV     1   --> G_2            
     e(111 -112) =      9.14561  eV     2   -->   2 G_2            
     e(113 -114) =      9.50837  eV     2   -->   2 G_2            
     e(115 -116) =      9.65722  eV     2   -->   2 G_2            
     e(117 -118) =      9.97826  eV     2   -->   2 G_2            
     e(119 -120) =     10.05592  eV     2   -->   2 G_2            
     e(121 -122) =     10.48136  eV     2   -->   2 G_2            
     e(123 -124) =     10.91667  eV     2   -->   2 G_2            
     e(125 -125) =     11.28994  eV     1   --> G_2            
     e(126 -126) =     11.29028  eV     1   --> G_2            
     e(127 -127) =     11.41175  eV     1   --> G_2            
     e(128 -128) =     11.41244  eV     1   --> G_2            
     e(129 -129) =     11.48566  eV     1   --> G_2            
     e(130 -130) =     11.48597  eV     1   --> G_2            
     e(131 -131) =     11.67140  eV     1   --> G_2            
     e(132 -132) =     11.67154  eV     1   --> G_2            
     e(133 -134) =     12.77657  eV     2   -->   2 G_2            
     e(135 -136) =     12.80259  eV     2   -->   2 G_2            
     e(137 -138) =     13.72222  eV     2   -->   2 G_2            
     e(139 -139) =     14.01639  eV     1   --> G_2            
     e(140 -140) =     14.01656  eV     1   --> G_2            
     e(141 -141) =     14.10886  eV     1   --> G_2            
     e(142 -142) =     14.10922  eV     1   --> G_2            
     e(143 -143) =     14.19139  eV     1   --> G_2            
     e(144 -144) =     14.19155  eV     1   --> G_2            
     e(145 -146) =     14.38666  eV     2   -->   2 G_2            
     e(147 -148) =     15.00745  eV     2   -->   2 G_2            
     e(149 -150) =     15.54376  eV     2   -->   2 G_2            
     e(151 -151) =     15.89712  eV     1   --> G_2            
     e(152 -152) =     15.89726  eV     1   --> G_2            
     e(153 -153) =     15.95832  eV     1   --> G_2            
     e(154 -154) =     15.95857  eV     1   --> G_2            
     e(155 -155) =     15.99124  eV     1   --> G_2            
     e(156 -156) =     15.99140  eV     1   --> G_2            
     e(157 -158) =     16.15244  eV     2   -->   2 G_2            
     e(159 -160) =     16.30489  eV     2   -->   2 G_2            
     e(161 -162) =     16.61360  eV     2   -->   2 G_2            
     e(163 -164) =     16.79442  eV     2   -->   2 G_2            
     e(165 -166) =     16.92828  eV     2   -->   2 G_2            
     e(167 -168) =     17.00567  eV     2   -->   2 G_2            
     e(169 -170) =     17.16098  eV     2   -->   2 G_2            
     e(171 -172) =     17.22295  eV     2   -->   2 G_2            
     e(173 -174) =     17.25576  eV     2   -->   2 G_2            
     e(175 -176) =     17.35552  eV     2   -->   2 G_2            
     e(177 -178) =     17.47784  eV     2   -->   2 G_2            
     e(179 -180) =     17.51251  eV     2   -->   2 G_2            
     e(181 -182) =     17.56080  eV     2   -->   2 G_2            
     e(183 -183) =     17.78284  eV     1   --> G_2            
     e(184 -184) =     17.78298  eV     1   --> G_2            
     e(185 -185) =     17.82147  eV     1   --> G_2            
     e(186 -186) =     17.82161  eV     1   --> G_2            
     e(187 -188) =     18.09377  eV     2   -->   2 G_2            
     e(189 -190) =     18.73460  eV     2   -->   2 G_2            
     e(191 -192) =     18.85507  eV     2   -->   2 G_2            
     e(193 -194) =     19.00003  eV     2   -->   2 G_2            
     e(195 -195) =     19.13602  eV     1   --> G_2            
     e(196 -196) =     19.13627  eV     1   --> G_2            
     e(197 -197) =     19.16835  eV     1   --> G_2            
     e(198 -198) =     19.16857  eV     1   --> G_2            
     e(199 -200) =     19.29147  eV     2   -->   2 G_2            

 **************************************************************************

 **************************************************************************

                    xk=(   0.00000,   0.00000,   0.00000  )

     Band symmetry, C_1 (1)     double point group:

     e(  1 -  2) =    -35.57127  eV     2   -->   2 G_2            
     e(  3 -  4) =    -35.56806  eV     2   -->   2 G_2            
     e(  5 -  6) =    -35.54010  eV     2   -->   2 G_2            
     e(  7 -  8) =    -35.53690  eV     2   -->   2 G_2            
     e(  9 - 10) =    -35.45990  eV     2   -->   2 G_2            
     e( 11 - 12) =    -35.42781  eV     2   -->   2 G_2            
     e( 13 - 14) =    -34.11245  eV     2   -->   2 G_2            
     e( 15 - 16) =    -34.10922  eV     2   -->   2 G_2            
     e( 17 - 18) =    -34.08615  eV     2   -->   2 G_2            
     e( 19 - 20) =    -34.08300  eV     2   -->   2 G_2            
     e( 21 - 22) =    -34.07196  eV     2   -->   2 G_2            
     e( 23 - 24) =    -34.06873  eV     2   -->   2 G_2            
     e( 25 - 26) =    -33.99788  eV     2   -->   2 G_2            
     e( 27 - 28) =    -33.98184  eV     2   -->   2 G_2            
     e( 29 - 30) =    -33.95591  eV     2   -->   2 G_2            
     e( 31 - 32) =    -28.20864  eV     2   -->   2 G_2            
     e( 33 - 34) =    -28.20655  eV     2   -->   2 G_2            
     e( 35 - 36) =    -28.20022  eV     2   -->   2 G_2            
     e( 37 - 38) =    -28.19815  eV     2   -->   2 G_2            
     e( 39 - 40) =    -26.96930  eV     2   -->   2 G_2            
     e( 41 - 42) =    -26.96720  eV     2   -->   2 G_2            
     e( 43 - 44) =    -26.96041  eV     2   -->   2 G_2            
     e( 45 - 46) =    -26.95834  eV     2   -->   2 G_2            
     e( 47 - 48) =    -26.95794  eV     2   -->   2 G_2            
     e( 49 - 50) =    -26.95589  eV     2   -->   2 G_2            
     e( 51 - 52) =    -10.67002  eV     2   -->   2 G_2            
     e( 53 - 54) =    -10.13582  eV     2   -->   2 G_2            
     e( 55 - 56) =     -9.05931  eV     2   -->   2 G_2            
     e( 57 - 58) =     -6.31496  eV     2   -->   2 G_2            
     e( 59 - 60) =     -4.94554  eV     2   -->   2 G_2            
     e( 61 - 62) =     -0.57020  eV     2   -->   2 G_2            
     e( 63 - 64) =     -0.12576  eV     2   -->   2 G_2            
     e( 65 - 66) =      0.15415  eV     2   -->   2 G_2            
     e( 67 - 68) =      0.41063  eV     2   -->   2 G_2            
     e( 69 - 70) =      0.47697  eV     2   -->   2 G_2            
     e( 71 - 72) =      0.58272  eV     2   -->   2 G_2            
     e( 73 - 74) =      0.85590  eV     2   -->   2 G_2            
     e( 75 - 76) =      1.15797  eV     2   -->   2 G_2            
     e( 77 - 78) =      1.32996  eV     2   -->   2 G_2            
     e( 79 - 80) =      1.98080  eV     2   -->   2 G_2            
     e( 81 - 82) =      2.63253  eV     2   -->   2 G_2            
     e( 83 - 84) =      2.99266  eV     2   -->   2 G_2            
     e( 85 - 86) =      3.19287  eV     2   -->   2 G_2            
     e( 87 - 88) =      3.92264  eV     2   -->   2 G_2            
     e( 89 - 90) =      4.11669  eV     2   -->   2 G_2            
     e( 91 - 92) =      6.15406  eV     2   -->   2 G_2            
     e( 93 - 94) =      6.34106  eV     2   -->   2 G_2            
     e( 95 - 96) =      6.95864  eV     2   -->   2 G_2            
     e( 97 - 98) =      7.38463  eV     2   -->   2 G_2            
     e( 99 -100) =      7.53878  eV     2   -->   2 G_2            
     e(101 -102) =      7.81101  eV     2   -->   2 G_2            
     e(103 -104) =      8.33008  eV     2   -->   2 G_2            
     e(105 -106) =      8.54605  eV     2   -->   2 G_2            
     e(107 -108) =      8.65669  eV     2   -->   2 G_2            
     e(109 -110) =      8.74184  eV     2   -->   2 G_2            
     e(111 -112) =      9.14680  eV     2   -->   2 G_2            
     e(113 -114) =      9.50259  eV     2   -->   2 G_2            
     e(115 -116) =      9.65397  eV     2   -->   2 G_2            
     e(117 -118) =      9.97974  eV     2   -->   2 G_2            
     e(119 -120) =     10.05196  eV     2   -->   2 G_2            
     e(121 -122) =     10.47773  eV     2   -->   2 G_2            
     e(123 -124) =     10.91894  eV     2   -->   2 G_2            
     e(125 -126) =     11.30527  eV     2   -->   2 G_2            
     e(127 -128) =     11.44302  eV     2   -->   2 G_2            
     e(129 -130) =     11.44738  eV     2   -->   2 G_2            
     e(131 -132) =     11.65642  eV     2   -->   2 G_2            
     e(133 -134) =     12.77966  eV     2   -->   2 G_2            
     e(135 -136) =     12.79823  eV     2   -->   2 G_2            
     e(137 -138) =     13.73736  eV     2   -->   2 G_2            
     e(139 -140) =     14.00530  eV     2   -->   2 G_2            
     e(141 -142) =     14.12939  eV     2   -->   2 G_2            
     e(143 -144) =     14.18382  eV     2   -->   2 G_2            
     e(145 -146) =     14.37343  eV     2   -->   2 G_2            
     e(147 -148) =     15.00145  eV     2   -->   2 G_2            
     e(149 -150) =     15.56715  eV     2   -->   2 G_2            
     e(151 -152) =     15.90935  eV     2   -->   2 G_2            
     e(153 -154) =     15.93178  eV     2   -->   2 G_2            
     e(155 -156) =     16.00438  eV     2   -->   2 G_2            
     e(157 -158) =     16.14998  eV     2   -->   2 G_2            
     e(159 -160) =     16.29486  eV     2   -->   2 G_2            
     e(161 -162) =     16.61060  eV     2   -->   2 G_2            
     e(163 -164) =     16.89080  eV     2   -->   2 G_2            
     e(165 -166) =     16.91361  eV     2   -->   2 G_2            
     e(167 -168) =     16.95480  eV     2   -->   2 G_2            
     e(169 -170) =     17.20426  eV     2   -->   2 G_2            
     e(171 -172) =     17.20658  eV     2   -->   2 G_2            
     e(173 -174) =     17.27974  eV     2   -->   2 G_2            
     e(175 -176) =     17.29528  eV     2   -->   2 G_2            
     e(177 -178) =     17.49430  eV     2   -->   2 G_2            
     e(179 -180) =     17.50058  eV     2   -->   2 G_2            
     e(181 -182) =     17.60191  eV     2   -->   2 G_2            
     e(183 -184) =     17.74764  eV     2   -->   2 G_2            
     e(185 -186) =     17.80114  eV     2   -->   2 G_2            
     e(187 -188) =     18.05716  eV     2   -->   2 G_2            
     e(189 -190) =     18.80531  eV     2   -->   2 G_2            
     e(191 -192) =     18.87103  eV     2   -->   2 G_2            
     e(193 -194) =     18.95875  eV     2   -->   2 G_2            
     e(195 -196) =     19.16988  eV     2   -->   2 G_2            
     e(197 -198) =     19.17048  eV     2   -->   2 G_2            
     e(199 -200) =     19.25701  eV     2   -->   2 G_2            

 **************************************************************************

     BANDS        :      1h 7m CPU      1h10m WALL


   This run was terminated on:  23:46:43  22Aug2025            

=------------------------------------------------------------------------------=
   JOB DONE.
=------------------------------------------------------------------------------=
