
     Program BANDS v.7.4.1 starts on 23Aug2025 at  1:21: 9 

     This program is part of the open-source Quantum ESPRESSO suite
     for quantum simulation of materials; please cite
         "P. Giannozzi et al., J. Phys.:Condens. Matter 21 395502 (2009);
         "P. Giannozzi et al., J. Phys.:Condens. Matter 29 465901 (2017);
         "P. Giannozzi et al., J. Chem. Phys. 152 154105 (2020);
          URL http://www.quantum-espresso.org", 
     in publications or presentations arising from this work. More details at
     http://www.quantum-espresso.org/quote

     Parallel version (MPI & OpenMP), running on      48 processor cores
     Number of MPI processes:                24
     Threads/MPI process:                     2

     MPI processes distributed on     2 nodes
     R & G space division:  proc/nbgrp/npool/nimage =      24
     1628 MiB available memory on the printing compute node when the environment starts


     Reading xml data from directory:

     tmp/Sb2Te3-uatsx-c5-soc-4.0.save/
Error reading attribute index: expected integer, found *
Error reading attribute index: expected integer, found *

     IMPORTANT: XC functional enforced from input :
     Exchange-correlation= PBE
                           (   1   4   3   4   0   0   0)
     Any further DFT definition will be discarded
     Please, verify this is what you really want


     Parallelization info
     --------------------
     sticks:   dense  smooth     PW     G-vecs:    dense   smooth      PW
     Min         138      55     15                32604     8247    1221
     Max         139      56     16                32629     8264    1240
     Sum        3327    1331    371               782755   198065   29505

     Using Slab Decomposition

     Reading collected, re-writing distributed wavefunctions
     high-symmetry point:  0.0000 0.0000 0.0000   x coordinate   0.0000
     high-symmetry point:  0.5000 0.2887 0.0000   x coordinate   0.5774
     high-symmetry point:  0.3333 0.5928 0.0000   x coordinate   0.9241
     high-symmetry point:  0.0000 0.0000 0.0000   x coordinate   1.6042

     Plottable bands (eV) written to file ./bands/Sb2Te3-uatsx-c5-soc-4.0.bands.gnu
     Bands written to file ./bands/Sb2Te3-uatsx-c5-soc-4.0.bands

 **************************************************************************

                    xk=(   0.00000,   0.00000,   0.00000  )

     double point group C_1 (1)    
     there are  2 classes and  1 irreducible representations
     the character table:

       E     -E   
                  
G_2    1.00 -1.00

     the symmetry operations in each class and the name of the first element:

     E             1
                                                                 
     -E           -1
                                                                 

     Band symmetry, C_1 (1)     double point group:

     e(  1 -  2) =    -35.63763  eV     2   -->   2 G_2            
     e(  3 -  4) =    -35.63332  eV     2   -->   2 G_2            
     e(  5 -  6) =    -35.60387  eV     2   -->   2 G_2            
     e(  7 -  8) =    -35.59958  eV     2   -->   2 G_2            
     e(  9 - 10) =    -35.53424  eV     2   -->   2 G_2            
     e( 11 - 12) =    -35.50338  eV     2   -->   2 G_2            
     e( 13 - 14) =    -34.17925  eV     2   -->   2 G_2            
     e( 15 - 16) =    -34.17495  eV     2   -->   2 G_2            
     e( 17 - 18) =    -34.15097  eV     2   -->   2 G_2            
     e( 19 - 20) =    -34.14665  eV     2   -->   2 G_2            
     e( 21 - 22) =    -34.13539  eV     2   -->   2 G_2            
     e( 23 - 24) =    -34.13111  eV     2   -->   2 G_2            
     e( 25 - 26) =    -34.07275  eV     2   -->   2 G_2            
     e( 27 - 28) =    -34.05550  eV     2   -->   2 G_2            
     e( 29 - 30) =    -34.03220  eV     2   -->   2 G_2            
     e( 31 - 32) =    -28.28716  eV     2   -->   2 G_2            
     e( 33 - 34) =    -28.28419  eV     2   -->   2 G_2            
     e( 35 - 36) =    -28.27867  eV     2   -->   2 G_2            
     e( 37 - 38) =    -28.27573  eV     2   -->   2 G_2            
     e( 39 - 40) =    -27.04767  eV     2   -->   2 G_2            
     e( 41 - 42) =    -27.04470  eV     2   -->   2 G_2            
     e( 43 - 44) =    -27.03927  eV     2   -->   2 G_2            
     e( 45 - 46) =    -27.03633  eV     2   -->   2 G_2            
     e( 47 - 48) =    -27.03598  eV     2   -->   2 G_2            
     e( 49 - 50) =    -27.03304  eV     2   -->   2 G_2            
     e( 51 - 52) =    -10.71263  eV     2   -->   2 G_2            
     e( 53 - 54) =    -10.17282  eV     2   -->   2 G_2            
     e( 55 - 56) =     -9.10203  eV     2   -->   2 G_2            
     e( 57 - 58) =     -6.36634  eV     2   -->   2 G_2            
     e( 59 - 60) =     -5.02312  eV     2   -->   2 G_2            
     e( 61 - 62) =     -0.64725  eV     2   -->   2 G_2            
     e( 63 - 64) =     -0.22727  eV     2   -->   2 G_2            
     e( 65 - 66) =      0.06815  eV     2   -->   2 G_2            
     e( 67 - 68) =      0.31691  eV     2   -->   2 G_2            
     e( 69 - 70) =      0.39497  eV     2   -->   2 G_2            
     e( 71 - 72) =      0.48418  eV     2   -->   2 G_2            
     e( 73 - 74) =      0.78179  eV     2   -->   2 G_2            
     e( 75 - 76) =      1.04044  eV     2   -->   2 G_2            
     e( 77 - 78) =      1.23884  eV     2   -->   2 G_2            
     e( 79 - 80) =      1.84463  eV     2   -->   2 G_2            
     e( 81 - 82) =      2.52790  eV     2   -->   2 G_2            
     e( 83 - 84) =      2.91008  eV     2   -->   2 G_2            
     e( 85 - 86) =      3.08359  eV     2   -->   2 G_2            
     e( 87 - 88) =      3.80742  eV     2   -->   2 G_2            
     e( 89 - 90) =      4.04336  eV     2   -->   2 G_2            
     e( 91 - 92) =      6.10059  eV     2   -->   2 G_2            
     e( 93 - 94) =      6.28316  eV     2   -->   2 G_2            
     e( 95 - 96) =      6.92477  eV     2   -->   2 G_2            
     e( 97 - 98) =      7.22371  eV     2   -->   2 G_2            
     e( 99 -100) =      7.46519  eV     2   -->   2 G_2            
     e(101 -102) =      7.77658  eV     2   -->   2 G_2            
     e(103 -104) =      8.25449  eV     2   -->   2 G_2            
     e(105 -106) =      8.46432  eV     2   -->   2 G_2            
     e(107 -108) =      8.54397  eV     2   -->   2 G_2            
     e(109 -110) =      8.62399  eV     2   -->   2 G_2            
     e(111 -112) =      9.12655  eV     2   -->   2 G_2            
     e(113 -114) =      9.39534  eV     2   -->   2 G_2            
     e(115 -116) =      9.59073  eV     2   -->   2 G_2            
     e(117 -118) =      9.92777  eV     2   -->   2 G_2            
     e(119 -120) =      9.97642  eV     2   -->   2 G_2            
     e(121 -122) =     10.42117  eV     2   -->   2 G_2            
     e(123 -124) =     10.78754  eV     2   -->   2 G_2            
     e(125 -126) =     11.25184  eV     2   -->   2 G_2            
     e(127 -128) =     11.33959  eV     2   -->   2 G_2            
     e(129 -130) =     11.40956  eV     2   -->   2 G_2            
     e(131 -132) =     11.61038  eV     2   -->   2 G_2            
     e(133 -134) =     12.73073  eV     2   -->   2 G_2            
     e(135 -136) =     12.74255  eV     2   -->   2 G_2            
     e(137 -138) =     13.59639  eV     2   -->   2 G_2            
     e(139 -140) =     13.87876  eV     2   -->   2 G_2            
     e(141 -142) =     14.10434  eV     2   -->   2 G_2            
     e(143 -144) =     14.10605  eV     2   -->   2 G_2            
     e(145 -146) =     14.34149  eV     2   -->   2 G_2            
     e(147 -148) =     14.92717  eV     2   -->   2 G_2            
     e(149 -150) =     15.39180  eV     2   -->   2 G_2            
     e(151 -152) =     15.72986  eV     2   -->   2 G_2            
     e(153 -154) =     15.85043  eV     2   -->   2 G_2            
     e(155 -156) =     15.95596  eV     2   -->   2 G_2            
     e(157 -158) =     16.04233  eV     2   -->   2 G_2            
     e(159 -160) =     16.23307  eV     2   -->   2 G_2            
     e(161 -162) =     16.53510  eV     2   -->   2 G_2            
     e(163 -164) =     16.67281  eV     2   -->   2 G_2            
     e(165 -166) =     16.73867  eV     2   -->   2 G_2            
     e(167 -168) =     16.80083  eV     2   -->   2 G_2            
     e(169 -170) =     16.98650  eV     2   -->   2 G_2            
     e(171 -172) =     17.07012  eV     2   -->   2 G_2            
     e(173 -174) =     17.13845  eV     2   -->   2 G_2            
     e(175 -176) =     17.18980  eV     2   -->   2 G_2            
     e(177 -178) =     17.37004  eV     2   -->   2 G_2            
     e(179 -180) =     17.44214  eV     2   -->   2 G_2            
     e(181 -182) =     17.51005  eV     2   -->   2 G_2            
     e(183 -184) =     17.67082  eV     2   -->   2 G_2            
     e(185 -186) =     17.73826  eV     2   -->   2 G_2            
     e(187 -188) =     17.97145  eV     2   -->   2 G_2            
     e(189 -190) =     18.61975  eV     2   -->   2 G_2            
     e(191 -192) =     18.66965  eV     2   -->   2 G_2            
     e(193 -194) =     18.76955  eV     2   -->   2 G_2            
     e(195 -196) =     18.97481  eV     2   -->   2 G_2            
     e(197 -198) =     19.07584  eV     2   -->   2 G_2            
     e(199 -200) =     19.14489  eV     2   -->   2 G_2            

 **************************************************************************

 **************************************************************************

                    xk=(   0.00714,   0.00412,   0.00000  )

     Band symmetry, C_1 (1)     double point group:

     e(  1 -  2) =    -35.63763  eV     2   -->   2 G_2            
     e(  3 -  4) =    -35.63332  eV     2   -->   2 G_2            
     e(  5 -  6) =    -35.60387  eV     2   -->   2 G_2            
     e(  7 -  8) =    -35.59958  eV     2   -->   2 G_2            
     e(  9 - 10) =    -35.53424  eV     2   -->   2 G_2            
     e( 11 - 12) =    -35.50338  eV     2   -->   2 G_2            
     e( 13 - 14) =    -34.17925  eV     2   -->   2 G_2            
     e( 15 - 16) =    -34.17496  eV     2   -->   2 G_2            
     e( 17 - 18) =    -34.15097  eV     2   -->   2 G_2            
     e( 19 - 20) =    -34.14665  eV     2   -->   2 G_2            
     e( 21 - 22) =    -34.13539  eV     2   -->   2 G_2            
     e( 23 - 24) =    -34.13111  eV     2   -->   2 G_2            
     e( 25 - 26) =    -34.07275  eV     2   -->   2 G_2            
     e( 27 - 28) =    -34.05550  eV     2   -->   2 G_2            
     e( 29 - 30) =    -34.03220  eV     2   -->   2 G_2            
     e( 31 - 32) =    -28.28717  eV     2   -->   2 G_2            
     e( 33 - 34) =    -28.28420  eV     2   -->   2 G_2            
     e( 35 - 36) =    -28.27867  eV     2   -->   2 G_2            
     e( 37 - 38) =    -28.27573  eV     2   -->   2 G_2            
     e( 39 - 40) =    -27.04767  eV     2   -->   2 G_2            
     e( 41 - 42) =    -27.04470  eV     2   -->   2 G_2            
     e( 43 - 44) =    -27.03927  eV     2   -->   2 G_2            
     e( 45 - 46) =    -27.03634  eV     2   -->   2 G_2            
     e( 47 - 48) =    -27.03598  eV     2   -->   2 G_2            
     e( 49 - 50) =    -27.03304  eV     2   -->   2 G_2            
     e( 51 - 52) =    -10.71222  eV     2   -->   2 G_2            
     e( 53 - 54) =    -10.17245  eV     2   -->   2 G_2            
     e( 55 - 56) =     -9.10181  eV     2   -->   2 G_2            
     e( 57 - 58) =     -6.36644  eV     2   -->   2 G_2            
     e( 59 - 60) =     -5.02397  eV     2   -->   2 G_2            
     e( 61 - 62) =     -0.64809  eV     2   -->   2 G_2            
     e( 63 - 63) =     -0.23385  eV     1   --> G_2            
     e( 64 - 64) =     -0.23352  eV     1   --> G_2            
     e( 65 - 65) =      0.06923  eV     1   --> G_2            
     e( 66 - 66) =      0.06953  eV     1   --> G_2            
     e( 67 - 67) =      0.30922  eV     1   --> G_2            
     e( 68 - 68) =      0.30976  eV     1   --> G_2            
     e( 69 - 69) =      0.38748  eV     1   --> G_2            
     e( 70 - 70) =      0.38788  eV     1   --> G_2            
     e( 71 - 71) =      0.49400  eV     1   --> G_2            
     e( 72 - 72) =      0.49475  eV     1   --> G_2            
     e( 73 - 73) =      0.78378  eV     1   --> G_2            
     e( 74 - 74) =      0.78402  eV     1   --> G_2            
     e( 75 - 75) =      1.03822  eV     1   --> G_2            
     e( 76 - 76) =      1.03843  eV     1   --> G_2            
     e( 77 - 78) =      1.24032  eV     2   -->   2 G_2            
     e( 79 - 79) =      1.85131  eV     1   --> G_2            
     e( 80 - 80) =      1.85141  eV     1   --> G_2            
     e( 81 - 82) =      2.52657  eV     2   -->   2 G_2            
     e( 83 - 83) =      2.90333  eV     1   --> G_2            
     e( 84 - 84) =      2.90365  eV     1   --> G_2            
     e( 85 - 85) =      3.09173  eV     1   --> G_2            
     e( 86 - 86) =      3.09208  eV     1   --> G_2            
     e( 87 - 88) =      3.80923  eV     2   -->   2 G_2            
     e( 89 - 90) =      4.04305  eV     2   -->   2 G_2            
     e( 91 - 92) =      6.10133  eV     2   -->   2 G_2            
     e( 93 - 94) =      6.28324  eV     2   -->   2 G_2            
     e( 95 - 96) =      6.92491  eV     2   -->   2 G_2            
     e( 97 - 98) =      7.22161  eV     2   -->   2 G_2            
     e( 99 -100) =      7.46497  eV     2   -->   2 G_2            
     e(101 -102) =      7.77660  eV     2   -->   2 G_2            
     e(103 -104) =      8.25716  eV     2   -->   2 G_2            
     e(105 -105) =      8.46109  eV     1   --> G_2            
     e(106 -106) =      8.46144  eV     1   --> G_2            
     e(107 -107) =      8.54576  eV     1   --> G_2            
     e(108 -108) =      8.54640  eV     1   --> G_2            
     e(109 -109) =      8.62270  eV     1   --> G_2            
     e(110 -110) =      8.62299  eV     1   --> G_2            
     e(111 -112) =      9.12463  eV     2   -->   2 G_2            
     e(113 -114) =      9.40220  eV     2   -->   2 G_2            
     e(115 -116) =      9.59282  eV     2   -->   2 G_2            
     e(117 -118) =      9.92516  eV     2   -->   2 G_2            
     e(119 -120) =      9.97854  eV     2   -->   2 G_2            
     e(121 -122) =     10.42258  eV     2   -->   2 G_2            
     e(123 -124) =     10.78900  eV     2   -->   2 G_2            
     e(125 -125) =     11.23654  eV     1   --> G_2            
     e(126 -126) =     11.23683  eV     1   --> G_2            
     e(127 -127) =     11.32604  eV     1   --> G_2            
     e(128 -128) =     11.32645  eV     1   --> G_2            
     e(129 -129) =     11.43459  eV     1   --> G_2            
     e(130 -130) =     11.43479  eV     1   --> G_2            
     e(131 -132) =     11.61762  eV     2   -->   2 G_2            
     e(133 -134) =     12.72699  eV     2   -->   2 G_2            
     e(135 -136) =     12.74592  eV     2   -->   2 G_2            
     e(137 -138) =     13.58614  eV     2   -->   2 G_2            
     e(139 -140) =     13.88473  eV     2   -->   2 G_2            
     e(141 -142) =     14.07170  eV     2   -->   2 G_2            
     e(143 -144) =     14.13997  eV     2   -->   2 G_2            
     e(145 -146) =     14.34464  eV     2   -->   2 G_2            
     e(147 -148) =     14.92819  eV     2   -->   2 G_2            
     e(149 -150) =     15.37013  eV     2   -->   2 G_2            
     e(151 -152) =     15.73343  eV     2   -->   2 G_2            
     e(153 -154) =     15.86328  eV     2   -->   2 G_2            
     e(155 -156) =     15.94415  eV     2   -->   2 G_2            
     e(157 -158) =     16.05589  eV     2   -->   2 G_2            
     e(159 -160) =     16.23297  eV     2   -->   2 G_2            
     e(161 -162) =     16.52478  eV     2   -->   2 G_2            
     e(163 -164) =     16.60897  eV     2   -->   2 G_2            
     e(165 -166) =     16.74707  eV     2   -->   2 G_2            
     e(167 -168) =     16.82374  eV     2   -->   2 G_2            
     e(169 -170) =     16.99277  eV     2   -->   2 G_2            
     e(171 -172) =     17.06481  eV     2   -->   2 G_2            
     e(173 -174) =     17.15351  eV     2   -->   2 G_2            
     e(175 -176) =     17.21285  eV     2   -->   2 G_2            
     e(177 -178) =     17.35732  eV     2   -->   2 G_2            
     e(179 -180) =     17.44939  eV     2   -->   2 G_2            
     e(181 -182) =     17.51040  eV     2   -->   2 G_2            
     e(183 -184) =     17.68664  eV     2   -->   2 G_2            
     e(185 -186) =     17.73617  eV     2   -->   2 G_2            
     e(187 -188) =     17.98299  eV     2   -->   2 G_2            
     e(189 -190) =     18.54679  eV     2   -->   2 G_2            
     e(191 -192) =     18.65867  eV     2   -->   2 G_2            
     e(193 -194) =     18.80354  eV     2   -->   2 G_2            
     e(195 -196) =     19.01168  eV     2   -->   2 G_2            
     e(197 -198) =     19.04589  eV     2   -->   2 G_2            
     e(199 -200) =     19.16487  eV     2   -->   2 G_2            

 **************************************************************************

 **************************************************************************

                    xk=(   0.01429,   0.00825,   0.00000  )

     Band symmetry, C_1 (1)     double point group:

     e(  1 -  2) =    -35.63763  eV     2   -->   2 G_2            
     e(  3 -  4) =    -35.63332  eV     2   -->   2 G_2            
     e(  5 -  6) =    -35.60388  eV     2   -->   2 G_2            
     e(  7 -  8) =    -35.59958  eV     2   -->   2 G_2            
     e(  9 - 10) =    -35.53424  eV     2   -->   2 G_2            
     e( 11 - 12) =    -35.50338  eV     2   -->   2 G_2            
     e( 13 - 14) =    -34.17925  eV     2   -->   2 G_2            
     e( 15 - 16) =    -34.17495  eV     2   -->   2 G_2            
     e( 17 - 18) =    -34.15097  eV     2   -->   2 G_2            
     e( 19 - 20) =    -34.14665  eV     2   -->   2 G_2            
     e( 21 - 22) =    -34.13539  eV     2   -->   2 G_2            
     e( 23 - 24) =    -34.13111  eV     2   -->   2 G_2            
     e( 25 - 26) =    -34.07275  eV     2   -->   2 G_2            
     e( 27 - 28) =    -34.05550  eV     2   -->   2 G_2            
     e( 29 - 30) =    -34.03219  eV     2   -->   2 G_2            
     e( 31 - 32) =    -28.28717  eV     2   -->   2 G_2            
     e( 33 - 34) =    -28.28420  eV     2   -->   2 G_2            
     e( 35 - 36) =    -28.27867  eV     2   -->   2 G_2            
     e( 37 - 38) =    -28.27573  eV     2   -->   2 G_2            
     e( 39 - 40) =    -27.04767  eV     2   -->   2 G_2            
     e( 41 - 42) =    -27.04470  eV     2   -->   2 G_2            
     e( 43 - 44) =    -27.03928  eV     2   -->   2 G_2            
     e( 45 - 46) =    -27.03635  eV     2   -->   2 G_2            
     e( 47 - 48) =    -27.03598  eV     2   -->   2 G_2            
     e( 49 - 50) =    -27.03305  eV     2   -->   2 G_2            
     e( 51 - 52) =    -10.71099  eV     2   -->   2 G_2            
     e( 53 - 54) =    -10.17133  eV     2   -->   2 G_2            
     e( 55 - 56) =     -9.10116  eV     2   -->   2 G_2            
     e( 57 - 58) =     -6.36677  eV     2   -->   2 G_2            
     e( 59 - 60) =     -5.02650  eV     2   -->   2 G_2            
     e( 61 - 62) =     -0.65062  eV     2   -->   2 G_2            
     e( 63 - 63) =     -0.25250  eV     1   --> G_2            
     e( 64 - 64) =     -0.25188  eV     1   --> G_2            
     e( 65 - 65) =      0.07207  eV     1   --> G_2            
     e( 66 - 66) =      0.07262  eV     1   --> G_2            
     e( 67 - 67) =      0.28656  eV     1   --> G_2            
     e( 68 - 68) =      0.28756  eV     1   --> G_2            
     e( 69 - 69) =      0.37551  eV     1   --> G_2            
     e( 70 - 70) =      0.37591  eV     1   --> G_2            
     e( 71 - 71) =      0.51464  eV     1   --> G_2            
     e( 72 - 72) =      0.51571  eV     1   --> G_2            
     e( 73 - 73) =      0.78983  eV     1   --> G_2            
     e( 74 - 74) =      0.79029  eV     1   --> G_2            
     e( 75 - 75) =      1.03185  eV     1   --> G_2            
     e( 76 - 76) =      1.03226  eV     1   --> G_2            
     e( 77 - 77) =      1.24558  eV     1   --> G_2            
     e( 78 - 78) =      1.24569  eV     1   --> G_2            
     e( 79 - 79) =      1.87067  eV     1   --> G_2            
     e( 80 - 80) =      1.87087  eV     1   --> G_2            
     e( 81 - 81) =      2.52260  eV     1   --> G_2            
     e( 82 - 82) =      2.52276  eV     1   --> G_2            
     e( 83 - 83) =      2.88723  eV     1   --> G_2            
     e( 84 - 84) =      2.88775  eV     1   --> G_2            
     e( 85 - 85) =      3.11296  eV     1   --> G_2            
     e( 86 - 86) =      3.11355  eV     1   --> G_2            
     e( 87 - 87) =      3.81465  eV     1   --> G_2            
     e( 88 - 88) =      3.81479  eV     1   --> G_2            
     e( 89 - 89) =      4.04228  eV     1   --> G_2            
     e( 90 - 90) =      4.04239  eV     1   --> G_2            
     e( 91 - 92) =      6.10354  eV     2   -->   2 G_2            
     e( 93 - 94) =      6.28347  eV     2   -->   2 G_2            
     e( 95 - 96) =      6.92531  eV     2   -->   2 G_2            
     e( 97 - 98) =      7.21538  eV     2   -->   2 G_2            
     e( 99 -100) =      7.46436  eV     2   -->   2 G_2            
     e(101 -102) =      7.77677  eV     2   -->   2 G_2            
     e(103 -104) =      8.26490  eV     2   -->   2 G_2            
     e(105 -105) =      8.45269  eV     1   --> G_2            
     e(106 -106) =      8.45328  eV     1   --> G_2            
     e(107 -107) =      8.54955  eV     1   --> G_2            
     e(108 -108) =      8.55072  eV     1   --> G_2            
     e(109 -109) =      8.62098  eV     1   --> G_2            
     e(110 -110) =      8.62156  eV     1   --> G_2            
     e(111 -112) =      9.11942  eV     2   -->   2 G_2            
     e(113 -114) =      9.42175  eV     2   -->   2 G_2            
     e(115 -116) =      9.59898  eV     2   -->   2 G_2            
     e(117 -118) =      9.91787  eV     2   -->   2 G_2            
     e(119 -120) =      9.98471  eV     2   -->   2 G_2            
     e(121 -122) =     10.42692  eV     2   -->   2 G_2            
     e(123 -124) =     10.79298  eV     2   -->   2 G_2            
     e(125 -125) =     11.20086  eV     1   --> G_2            
     e(126 -126) =     11.20121  eV     1   --> G_2            
     e(127 -127) =     11.30382  eV     1   --> G_2            
     e(128 -128) =     11.30423  eV     1   --> G_2            
     e(129 -129) =     11.48399  eV     1   --> G_2            
     e(130 -130) =     11.48422  eV     1   --> G_2            
     e(131 -131) =     11.63795  eV     1   --> G_2            
     e(132 -132) =     11.63810  eV     1   --> G_2            
     e(133 -134) =     12.71971  eV     2   -->   2 G_2            
     e(135 -136) =     12.75218  eV     2   -->   2 G_2            
     e(137 -138) =     13.55905  eV     2   -->   2 G_2            
     e(139 -140) =     13.89630  eV     2   -->   2 G_2            
     e(141 -142) =     14.04510  eV     2   -->   2 G_2            
     e(143 -144) =     14.17283  eV     2   -->   2 G_2            
     e(145 -146) =     14.35487  eV     2   -->   2 G_2            
     e(147 -148) =     14.92874  eV     2   -->   2 G_2            
     e(149 -150) =     15.32065  eV     2   -->   2 G_2            
     e(151 -152) =     15.72780  eV     2   -->   2 G_2            
     e(153 -153) =     15.89777  eV     1   --> G_2            
     e(154 -154) =     15.89792  eV     1   --> G_2            
     e(155 -155) =     15.92825  eV     1   --> G_2            
     e(156 -156) =     15.92842  eV     1   --> G_2            
     e(157 -158) =     16.08032  eV     2   -->   2 G_2            
     e(159 -160) =     16.23408  eV     2   -->   2 G_2            
     e(161 -162) =     16.47130  eV     2   -->   2 G_2            
     e(163 -164) =     16.56930  eV     2   -->   2 G_2            
     e(165 -166) =     16.65582  eV     2   -->   2 G_2            
     e(167 -168) =     16.91659  eV     2   -->   2 G_2            
     e(169 -170) =     16.98793  eV     2   -->   2 G_2            
     e(171 -172) =     17.05313  eV     2   -->   2 G_2            
     e(173 -174) =     17.19876  eV     2   -->   2 G_2            
     e(175 -176) =     17.24658  eV     2   -->   2 G_2            
     e(177 -178) =     17.35266  eV     2   -->   2 G_2            
     e(179 -180) =     17.45674  eV     2   -->   2 G_2            
     e(181 -182) =     17.51903  eV     2   -->   2 G_2            
     e(183 -183) =     17.71824  eV     1   --> G_2            
     e(184 -184) =     17.71848  eV     1   --> G_2            
     e(185 -185) =     17.74454  eV     1   --> G_2            
     e(186 -186) =     17.74477  eV     1   --> G_2            
     e(187 -188) =     18.01181  eV     2   -->   2 G_2            
     e(189 -190) =     18.44631  eV     2   -->   2 G_2            
     e(191 -192) =     18.57289  eV     2   -->   2 G_2            
     e(193 -194) =     18.86533  eV     2   -->   2 G_2            
     e(195 -196) =     19.01517  eV     2   -->   2 G_2            
     e(197 -198) =     19.08721  eV     2   -->   2 G_2            
     e(199 -200) =     19.13862  eV     2   -->   2 G_2            

 **************************************************************************

 **************************************************************************

                    xk=(   0.02143,   0.01237,   0.00000  )

     Band symmetry, C_1 (1)     double point group:

     e(  1 -  2) =    -35.63763  eV     2   -->   2 G_2            
     e(  3 -  4) =    -35.63332  eV     2   -->   2 G_2            
     e(  5 -  6) =    -35.60388  eV     2   -->   2 G_2            
     e(  7 -  8) =    -35.59958  eV     2   -->   2 G_2            
     e(  9 - 10) =    -35.53424  eV     2   -->   2 G_2            
     e( 11 - 12) =    -35.50338  eV     2   -->   2 G_2            
     e( 13 - 14) =    -34.17925  eV     2   -->   2 G_2            
     e( 15 - 16) =    -34.17495  eV     2   -->   2 G_2            
     e( 17 - 18) =    -34.15097  eV     2   -->   2 G_2            
     e( 19 - 20) =    -34.14665  eV     2   -->   2 G_2            
     e( 21 - 22) =    -34.13539  eV     2   -->   2 G_2            
     e( 23 - 24) =    -34.13111  eV     2   -->   2 G_2            
     e( 25 - 26) =    -34.07275  eV     2   -->   2 G_2            
     e( 27 - 28) =    -34.05550  eV     2   -->   2 G_2            
     e( 29 - 30) =    -34.03219  eV     2   -->   2 G_2            
     e( 31 - 32) =    -28.28717  eV     2   -->   2 G_2            
     e( 33 - 34) =    -28.28420  eV     2   -->   2 G_2            
     e( 35 - 36) =    -28.27867  eV     2   -->   2 G_2            
     e( 37 - 38) =    -28.27573  eV     2   -->   2 G_2            
     e( 39 - 40) =    -27.04767  eV     2   -->   2 G_2            
     e( 41 - 42) =    -27.04469  eV     2   -->   2 G_2            
     e( 43 - 44) =    -27.03929  eV     2   -->   2 G_2            
     e( 45 - 46) =    -27.03635  eV     2   -->   2 G_2            
     e( 47 - 48) =    -27.03598  eV     2   -->   2 G_2            
     e( 49 - 50) =    -27.03305  eV     2   -->   2 G_2            
     e( 51 - 52) =    -10.70893  eV     2   -->   2 G_2            
     e( 53 - 54) =    -10.16947  eV     2   -->   2 G_2            
     e( 55 - 56) =     -9.10008  eV     2   -->   2 G_2            
     e( 57 - 58) =     -6.36730  eV     2   -->   2 G_2            
     e( 59 - 60) =     -5.03071  eV     2   -->   2 G_2            
     e( 61 - 62) =     -0.65483  eV     2   -->   2 G_2            
     e( 63 - 63) =     -0.28146  eV     1   --> G_2            
     e( 64 - 64) =     -0.28062  eV     1   --> G_2            
     e( 65 - 65) =      0.07500  eV     1   --> G_2            
     e( 66 - 66) =      0.07573  eV     1   --> G_2            
     e( 67 - 67) =      0.25218  eV     1   --> G_2            
     e( 68 - 68) =      0.25347  eV     1   --> G_2            
     e( 69 - 69) =      0.36648  eV     1   --> G_2            
     e( 70 - 70) =      0.36679  eV     1   --> G_2            
     e( 71 - 71) =      0.53508  eV     1   --> G_2            
     e( 72 - 72) =      0.53630  eV     1   --> G_2            
     e( 73 - 73) =      0.79924  eV     1   --> G_2            
     e( 74 - 74) =      0.79992  eV     1   --> G_2            
     e( 75 - 75) =      1.02212  eV     1   --> G_2            
     e( 76 - 76) =      1.02271  eV     1   --> G_2            
     e( 77 - 77) =      1.25624  eV     1   --> G_2            
     e( 78 - 78) =      1.25641  eV     1   --> G_2            
     e( 79 - 79) =      1.90073  eV     1   --> G_2            
     e( 80 - 80) =      1.90102  eV     1   --> G_2            
     e( 81 - 81) =      2.51585  eV     1   --> G_2            
     e( 82 - 82) =      2.51608  eV     1   --> G_2            
     e( 83 - 83) =      2.86832  eV     1   --> G_2            
     e( 84 - 84) =      2.86893  eV     1   --> G_2            
     e( 85 - 85) =      3.14119  eV     1   --> G_2            
     e( 86 - 86) =      3.14191  eV     1   --> G_2            
     e( 87 - 87) =      3.82350  eV     1   --> G_2            
     e( 88 - 88) =      3.82370  eV     1   --> G_2            
     e( 89 - 89) =      4.04127  eV     1   --> G_2            
     e( 90 - 90) =      4.04143  eV     1   --> G_2            
     e( 91 - 92) =      6.10722  eV     2   -->   2 G_2            
     e( 93 - 94) =      6.28386  eV     2   -->   2 G_2            
     e( 95 - 96) =      6.92586  eV     2   -->   2 G_2            
     e( 97 - 98) =      7.20519  eV     2   -->   2 G_2            
     e( 99 -100) =      7.46350  eV     2   -->   2 G_2            
     e(101 -102) =      7.77744  eV     2   -->   2 G_2            
     e(103 -104) =      8.27693  eV     2   -->   2 G_2            
     e(105 -105) =      8.44061  eV     1   --> G_2            
     e(106 -106) =      8.44132  eV     1   --> G_2            
     e(107 -107) =      8.55042  eV     1   --> G_2            
     e(108 -108) =      8.55188  eV     1   --> G_2            
     e(109 -109) =      8.62380  eV     1   --> G_2            
     e(110 -110) =      8.62455  eV     1   --> G_2            
     e(111 -112) =      9.11211  eV     2   -->   2 G_2            
     e(113 -114) =      9.45137  eV     2   -->   2 G_2            
     e(115 -116) =      9.60893  eV     2   -->   2 G_2            
     e(117 -118) =      9.90693  eV     2   -->   2 G_2            
     e(119 -120) =      9.99462  eV     2   -->   2 G_2            
     e(121 -122) =     10.43456  eV     2   -->   2 G_2            
     e(123 -124) =     10.79819  eV     2   -->   2 G_2            
     e(125 -125) =     11.15906  eV     1   --> G_2            
     e(126 -126) =     11.15939  eV     1   --> G_2            
     e(127 -127) =     11.27940  eV     1   --> G_2            
     e(128 -128) =     11.27974  eV     1   --> G_2            
     e(129 -129) =     11.54046  eV     1   --> G_2            
     e(130 -130) =     11.54074  eV     1   --> G_2            
     e(131 -131) =     11.66826  eV     1   --> G_2            
     e(132 -132) =     11.66848  eV     1   --> G_2            
     e(133 -134) =     12.71086  eV     2   -->   2 G_2            
     e(135 -136) =     12.75936  eV     2   -->   2 G_2            
     e(137 -138) =     13.52191  eV     2   -->   2 G_2            
     e(139 -140) =     13.89861  eV     2   -->   2 G_2            
     e(141 -142) =     14.03408  eV     2   -->   2 G_2            
     e(143 -144) =     14.20228  eV     2   -->   2 G_2            
     e(145 -146) =     14.37352  eV     2   -->   2 G_2            
     e(147 -148) =     14.92074  eV     2   -->   2 G_2            
     e(149 -150) =     15.27020  eV     2   -->   2 G_2            
     e(151 -152) =     15.70466  eV     2   -->   2 G_2            
     e(153 -154) =     15.88227  eV     2   -->   2 G_2            
     e(155 -156) =     15.97569  eV     2   -->   2 G_2            
     e(157 -158) =     16.09452  eV     2   -->   2 G_2            
     e(159 -160) =     16.24160  eV     2   -->   2 G_2            
     e(161 -162) =     16.40047  eV     2   -->   2 G_2            
     e(163 -164) =     16.54029  eV     2   -->   2 G_2            
     e(165 -166) =     16.57465  eV     2   -->   2 G_2            
     e(167 -168) =     16.94750  eV     2   -->   2 G_2            
     e(169 -170) =     16.97615  eV     2   -->   2 G_2            
     e(171 -172) =     17.09819  eV     2   -->   2 G_2            
     e(173 -174) =     17.21495  eV     2   -->   2 G_2            
     e(175 -176) =     17.24856  eV     2   -->   2 G_2            
     e(177 -178) =     17.40778  eV     2   -->   2 G_2            
     e(179 -180) =     17.47722  eV     2   -->   2 G_2            
     e(181 -182) =     17.52871  eV     2   -->   2 G_2            
     e(183 -183) =     17.74449  eV     1   --> G_2            
     e(184 -184) =     17.74467  eV     1   --> G_2            
     e(185 -185) =     17.78659  eV     1   --> G_2            
     e(186 -186) =     17.78674  eV     1   --> G_2            
     e(187 -188) =     18.04538  eV     2   -->   2 G_2            
     e(189 -190) =     18.35414  eV     2   -->   2 G_2            
     e(191 -192) =     18.46618  eV     2   -->   2 G_2            
     e(193 -194) =     18.85930  eV     2   -->   2 G_2            
     e(195 -196) =     19.05349  eV     2   -->   2 G_2            
     e(197 -198) =     19.08634  eV     2   -->   2 G_2            
     e(199 -200) =     19.16874  eV     2   -->   2 G_2            

 **************************************************************************

 **************************************************************************

                    xk=(   0.02857,   0.01650,   0.00000  )

     Band symmetry, C_1 (1)     double point group:

     e(  1 -  2) =    -35.63762  eV     2   -->   2 G_2            
     e(  3 -  4) =    -35.63332  eV     2   -->   2 G_2            
     e(  5 -  6) =    -35.60388  eV     2   -->   2 G_2            
     e(  7 -  8) =    -35.59958  eV     2   -->   2 G_2            
     e(  9 - 10) =    -35.53424  eV     2   -->   2 G_2            
     e( 11 - 12) =    -35.50338  eV     2   -->   2 G_2            
     e( 13 - 14) =    -34.17925  eV     2   -->   2 G_2            
     e( 15 - 16) =    -34.17495  eV     2   -->   2 G_2            
     e( 17 - 18) =    -34.15097  eV     2   -->   2 G_2            
     e( 19 - 20) =    -34.14665  eV     2   -->   2 G_2            
     e( 21 - 22) =    -34.13539  eV     2   -->   2 G_2            
     e( 23 - 24) =    -34.13111  eV     2   -->   2 G_2            
     e( 25 - 26) =    -34.07275  eV     2   -->   2 G_2            
     e( 27 - 28) =    -34.05550  eV     2   -->   2 G_2            
     e( 29 - 30) =    -34.03219  eV     2   -->   2 G_2            
     e( 31 - 32) =    -28.28717  eV     2   -->   2 G_2            
     e( 33 - 34) =    -28.28420  eV     2   -->   2 G_2            
     e( 35 - 36) =    -28.27868  eV     2   -->   2 G_2            
     e( 37 - 38) =    -28.27574  eV     2   -->   2 G_2            
     e( 39 - 40) =    -27.04766  eV     2   -->   2 G_2            
     e( 41 - 42) =    -27.04469  eV     2   -->   2 G_2            
     e( 43 - 44) =    -27.03929  eV     2   -->   2 G_2            
     e( 45 - 46) =    -27.03636  eV     2   -->   2 G_2            
     e( 47 - 48) =    -27.03598  eV     2   -->   2 G_2            
     e( 49 - 50) =    -27.03305  eV     2   -->   2 G_2            
     e( 51 - 52) =    -10.70605  eV     2   -->   2 G_2            
     e( 53 - 54) =    -10.16686  eV     2   -->   2 G_2            
     e( 55 - 56) =     -9.09856  eV     2   -->   2 G_2            
     e( 57 - 58) =     -6.36806  eV     2   -->   2 G_2            
     e( 59 - 60) =     -5.03660  eV     2   -->   2 G_2            
     e( 61 - 62) =     -0.66075  eV     2   -->   2 G_2            
     e( 63 - 63) =     -0.31877  eV     1   --> G_2            
     e( 64 - 64) =     -0.31774  eV     1   --> G_2            
     e( 65 - 65) =      0.07617  eV     1   --> G_2            
     e( 66 - 66) =      0.07697  eV     1   --> G_2            
     e( 67 - 67) =      0.21158  eV     1   --> G_2            
     e( 68 - 68) =      0.21303  eV     1   --> G_2            
     e( 69 - 69) =      0.35942  eV     1   --> G_2            
     e( 70 - 70) =      0.35966  eV     1   --> G_2            
     e( 71 - 71) =      0.55077  eV     1   --> G_2            
     e( 72 - 72) =      0.55205  eV     1   --> G_2            
     e( 73 - 73) =      0.81033  eV     1   --> G_2            
     e( 74 - 74) =      0.81119  eV     1   --> G_2            
     e( 75 - 75) =      1.01161  eV     1   --> G_2            
     e( 76 - 76) =      1.01236  eV     1   --> G_2            
     e( 77 - 77) =      1.27323  eV     1   --> G_2            
     e( 78 - 78) =      1.27348  eV     1   --> G_2            
     e( 79 - 79) =      1.93880  eV     1   --> G_2            
     e( 80 - 80) =      1.93919  eV     1   --> G_2            
     e( 81 - 81) =      2.50639  eV     1   --> G_2            
     e( 82 - 82) =      2.50665  eV     1   --> G_2            
     e( 83 - 83) =      2.85129  eV     1   --> G_2            
     e( 84 - 84) =      2.85193  eV     1   --> G_2            
     e( 85 - 85) =      3.17222  eV     1   --> G_2            
     e( 86 - 86) =      3.17302  eV     1   --> G_2            
     e( 87 - 87) =      3.83541  eV     1   --> G_2            
     e( 88 - 88) =      3.83566  eV     1   --> G_2            
     e( 89 - 89) =      4.04044  eV     1   --> G_2            
     e( 90 - 90) =      4.04065  eV     1   --> G_2            
     e( 91 - 92) =      6.11234  eV     2   -->   2 G_2            
     e( 93 - 94) =      6.28437  eV     2   -->   2 G_2            
     e( 95 - 96) =      6.92635  eV     2   -->   2 G_2            
     e( 97 - 98) =      7.19137  eV     2   -->   2 G_2            
     e( 99 -100) =      7.46257  eV     2   -->   2 G_2            
     e(101 -102) =      7.77905  eV     2   -->   2 G_2            
     e(103 -104) =      8.29187  eV     2   -->   2 G_2            
     e(105 -105) =      8.42586  eV     1   --> G_2            
     e(106 -106) =      8.42660  eV     1   --> G_2            
     e(107 -107) =      8.54578  eV     1   --> G_2            
     e(108 -108) =      8.54720  eV     1   --> G_2            
     e(109 -109) =      8.63493  eV     1   --> G_2            
     e(110 -110) =      8.63560  eV     1   --> G_2            
     e(111 -112) =      9.10386  eV     2   -->   2 G_2            
     e(113 -114) =      9.48774  eV     2   -->   2 G_2            
     e(115 -116) =      9.62219  eV     2   -->   2 G_2            
     e(117 -118) =      9.89370  eV     2   -->   2 G_2            
     e(119 -120) =     10.00828  eV     2   -->   2 G_2            
     e(121 -122) =     10.44590  eV     2   -->   2 G_2            
     e(123 -124) =     10.80253  eV     2   -->   2 G_2            
     e(125 -125) =     11.11893  eV     1   --> G_2            
     e(126 -126) =     11.11923  eV     1   --> G_2            
     e(127 -127) =     11.25356  eV     1   --> G_2            
     e(128 -128) =     11.25383  eV     1   --> G_2            
     e(129 -129) =     11.59940  eV     1   --> G_2            
     e(130 -130) =     11.59974  eV     1   --> G_2            
     e(131 -131) =     11.70570  eV     1   --> G_2            
     e(132 -132) =     11.70599  eV     1   --> G_2            
     e(133 -134) =     12.70056  eV     2   -->   2 G_2            
     e(135 -136) =     12.76734  eV     2   -->   2 G_2            
     e(137 -138) =     13.48015  eV     2   -->   2 G_2            
     e(139 -140) =     13.88287  eV     2   -->   2 G_2            
     e(141 -142) =     14.04141  eV     2   -->   2 G_2            
     e(143 -144) =     14.22954  eV     2   -->   2 G_2            
     e(145 -146) =     14.40032  eV     2   -->   2 G_2            
     e(147 -148) =     14.89254  eV     2   -->   2 G_2            
     e(149 -150) =     15.24058  eV     2   -->   2 G_2            
     e(151 -152) =     15.67063  eV     2   -->   2 G_2            
     e(153 -154) =     15.84595  eV     2   -->   2 G_2            
     e(155 -156) =     16.01812  eV     2   -->   2 G_2            
     e(157 -158) =     16.10091  eV     2   -->   2 G_2            
     e(159 -160) =     16.25849  eV     2   -->   2 G_2            
     e(161 -162) =     16.35048  eV     2   -->   2 G_2            
     e(163 -164) =     16.44156  eV     2   -->   2 G_2            
     e(165 -166) =     16.57783  eV     2   -->   2 G_2            
     e(167 -168) =     16.90319  eV     2   -->   2 G_2            
     e(169 -170) =     16.98003  eV     2   -->   2 G_2            
     e(171 -172) =     17.17828  eV     2   -->   2 G_2            
     e(173 -174) =     17.19938  eV     2   -->   2 G_2            
     e(175 -176) =     17.24599  eV     2   -->   2 G_2            
     e(177 -178) =     17.46509  eV     2   -->   2 G_2            
     e(179 -180) =     17.52179  eV     2   -->   2 G_2            
     e(181 -182) =     17.56290  eV     2   -->   2 G_2            
     e(183 -183) =     17.78576  eV     1   --> G_2            
     e(184 -184) =     17.78590  eV     1   --> G_2            
     e(185 -185) =     17.83600  eV     1   --> G_2            
     e(186 -186) =     17.83611  eV     1   --> G_2            
     e(187 -188) =     18.06662  eV     2   -->   2 G_2            
     e(189 -190) =     18.28955  eV     2   -->   2 G_2            
     e(191 -192) =     18.35608  eV     2   -->   2 G_2            
     e(193 -194) =     18.81188  eV     2   -->   2 G_2            
     e(195 -196) =     19.03815  eV     2   -->   2 G_2            
     e(197 -198) =     19.10356  eV     2   -->   2 G_2            
     e(199 -200) =     19.22611  eV     2   -->   2 G_2            

 **************************************************************************

 **************************************************************************

                    xk=(   0.03571,   0.02062,   0.00000  )

     Band symmetry, C_1 (1)     double point group:

     e(  1 -  2) =    -35.63762  eV     2   -->   2 G_2            
     e(  3 -  4) =    -35.63332  eV     2   -->   2 G_2            
     e(  5 -  6) =    -35.60388  eV     2   -->   2 G_2            
     e(  7 -  8) =    -35.59958  eV     2   -->   2 G_2            
     e(  9 - 10) =    -35.53424  eV     2   -->   2 G_2            
     e( 11 - 12) =    -35.50338  eV     2   -->   2 G_2            
     e( 13 - 14) =    -34.17925  eV     2   -->   2 G_2            
     e( 15 - 16) =    -34.17495  eV     2   -->   2 G_2            
     e( 17 - 18) =    -34.15097  eV     2   -->   2 G_2            
     e( 19 - 20) =    -34.14665  eV     2   -->   2 G_2            
     e( 21 - 22) =    -34.13539  eV     2   -->   2 G_2            
     e( 23 - 24) =    -34.13111  eV     2   -->   2 G_2            
     e( 25 - 26) =    -34.07274  eV     2   -->   2 G_2            
     e( 27 - 28) =    -34.05550  eV     2   -->   2 G_2            
     e( 29 - 30) =    -34.03219  eV     2   -->   2 G_2            
     e( 31 - 32) =    -28.28717  eV     2   -->   2 G_2            
     e( 33 - 34) =    -28.28420  eV     2   -->   2 G_2            
     e( 35 - 36) =    -28.27868  eV     2   -->   2 G_2            
     e( 37 - 38) =    -28.27574  eV     2   -->   2 G_2            
     e( 39 - 40) =    -27.04766  eV     2   -->   2 G_2            
     e( 41 - 42) =    -27.04469  eV     2   -->   2 G_2            
     e( 43 - 44) =    -27.03930  eV     2   -->   2 G_2            
     e( 45 - 46) =    -27.03637  eV     2   -->   2 G_2            
     e( 47 - 48) =    -27.03598  eV     2   -->   2 G_2            
     e( 49 - 50) =    -27.03305  eV     2   -->   2 G_2            
     e( 51 - 52) =    -10.70235  eV     2   -->   2 G_2            
     e( 53 - 54) =    -10.16351  eV     2   -->   2 G_2            
     e( 55 - 56) =     -9.09662  eV     2   -->   2 G_2            
     e( 57 - 58) =     -6.36905  eV     2   -->   2 G_2            
     e( 59 - 60) =     -5.04417  eV     2   -->   2 G_2            
     e( 61 - 62) =     -0.66843  eV     2   -->   2 G_2            
     e( 63 - 63) =     -0.36264  eV     1   --> G_2            
     e( 64 - 64) =     -0.36147  eV     1   --> G_2            
     e( 65 - 65) =      0.07388  eV     1   --> G_2            
     e( 66 - 66) =      0.07468  eV     1   --> G_2            
     e( 67 - 67) =      0.16865  eV     1   --> G_2            
     e( 68 - 68) =      0.17020  eV     1   --> G_2            
     e( 69 - 69) =      0.35258  eV     1   --> G_2            
     e( 70 - 70) =      0.35277  eV     1   --> G_2            
     e( 71 - 71) =      0.55999  eV     1   --> G_2            
     e( 72 - 72) =      0.56128  eV     1   --> G_2            
     e( 73 - 73) =      0.82023  eV     1   --> G_2            
     e( 74 - 74) =      0.82122  eV     1   --> G_2            
     e( 75 - 75) =      1.00479  eV     1   --> G_2            
     e( 76 - 76) =      1.00565  eV     1   --> G_2            
     e( 77 - 77) =      1.29626  eV     1   --> G_2            
     e( 78 - 78) =      1.29659  eV     1   --> G_2            
     e( 79 - 79) =      1.98204  eV     1   --> G_2            
     e( 80 - 80) =      1.98252  eV     1   --> G_2            
     e( 81 - 81) =      2.49481  eV     1   --> G_2            
     e( 82 - 82) =      2.49507  eV     1   --> G_2            
     e( 83 - 83) =      2.83886  eV     1   --> G_2            
     e( 84 - 84) =      2.83947  eV     1   --> G_2            
     e( 85 - 85) =      3.20375  eV     1   --> G_2            
     e( 86 - 86) =      3.20460  eV     1   --> G_2            
     e( 87 - 87) =      3.84976  eV     1   --> G_2            
     e( 88 - 88) =      3.85005  eV     1   --> G_2            
     e( 89 - 89) =      4.04047  eV     1   --> G_2            
     e( 90 - 90) =      4.04073  eV     1   --> G_2            
     e( 91 - 92) =      6.11888  eV     2   -->   2 G_2            
     e( 93 - 94) =      6.28498  eV     2   -->   2 G_2            
     e( 95 - 96) =      6.92643  eV     2   -->   2 G_2            
     e( 97 - 98) =      7.17452  eV     2   -->   2 G_2            
     e( 99 -100) =      7.46176  eV     2   -->   2 G_2            
     e(101 -102) =      7.78201  eV     2   -->   2 G_2            
     e(103 -104) =      8.30730  eV     2   -->   2 G_2            
     e(105 -105) =      8.40988  eV     1   --> G_2            
     e(106 -106) =      8.41058  eV     1   --> G_2            
     e(107 -107) =      8.53814  eV     1   --> G_2            
     e(108 -108) =      8.53938  eV     1   --> G_2            
     e(109 -109) =      8.65330  eV     1   --> G_2            
     e(110 -110) =      8.65380  eV     1   --> G_2            
     e(111 -112) =      9.09553  eV     2   -->   2 G_2            
     e(113 -114) =      9.52714  eV     2   -->   2 G_2            
     e(115 -116) =      9.63823  eV     2   -->   2 G_2            
     e(117 -118) =      9.88014  eV     2   -->   2 G_2            
     e(119 -120) =     10.02591  eV     2   -->   2 G_2            
     e(121 -122) =     10.46133  eV     2   -->   2 G_2            
     e(123 -123) =     10.80308  eV     1   --> G_2            
     e(124 -124) =     10.80320  eV     1   --> G_2            
     e(125 -125) =     11.08494  eV     1   --> G_2            
     e(126 -126) =     11.08521  eV     1   --> G_2            
     e(127 -127) =     11.22759  eV     1   --> G_2            
     e(128 -128) =     11.22782  eV     1   --> G_2            
     e(129 -129) =     11.65873  eV     1   --> G_2            
     e(130 -130) =     11.65915  eV     1   --> G_2            
     e(131 -131) =     11.74842  eV     1   --> G_2            
     e(132 -132) =     11.74879  eV     1   --> G_2            
     e(133 -134) =     12.68871  eV     2   -->   2 G_2            
     e(135 -136) =     12.77628  eV     2   -->   2 G_2            
     e(137 -138) =     13.43715  eV     2   -->   2 G_2            
     e(139 -140) =     13.85518  eV     2   -->   2 G_2            
     e(141 -142) =     14.05672  eV     2   -->   2 G_2            
     e(143 -144) =     14.25798  eV     2   -->   2 G_2            
     e(145 -145) =     14.43235  eV     1   --> G_2            
     e(146 -146) =     14.43246  eV     1   --> G_2            
     e(147 -148) =     14.83995  eV     2   -->   2 G_2            
     e(149 -150) =     15.24082  eV     2   -->   2 G_2            
     e(151 -152) =     15.63045  eV     2   -->   2 G_2            
     e(153 -154) =     15.79830  eV     2   -->   2 G_2            
     e(155 -156) =     15.99145  eV     2   -->   2 G_2            
     e(157 -158) =     16.14058  eV     2   -->   2 G_2            
     e(159 -160) =     16.25151  eV     2   -->   2 G_2            
     e(161 -162) =     16.33394  eV     2   -->   2 G_2            
     e(163 -164) =     16.37246  eV     2   -->   2 G_2            
     e(165 -166) =     16.59519  eV     2   -->   2 G_2            
     e(167 -168) =     16.85820  eV     2   -->   2 G_2            
     e(169 -170) =     16.96261  eV     2   -->   2 G_2            
     e(171 -172) =     17.15833  eV     2   -->   2 G_2            
     e(173 -174) =     17.20668  eV     2   -->   2 G_2            
     e(175 -176) =     17.31532  eV     2   -->   2 G_2            
     e(177 -178) =     17.46888  eV     2   -->   2 G_2            
     e(179 -180) =     17.58222  eV     2   -->   2 G_2            
     e(181 -182) =     17.65415  eV     2   -->   2 G_2            
     e(183 -183) =     17.83432  eV     1   --> G_2            
     e(184 -184) =     17.83443  eV     1   --> G_2            
     e(185 -186) =     17.87852  eV     2   -->   2 G_2            
     e(187 -188) =     18.06757  eV     2   -->   2 G_2            
     e(189 -190) =     18.22803  eV     2   -->   2 G_2            
     e(191 -192) =     18.29577  eV     2   -->   2 G_2            
     e(193 -194) =     18.75626  eV     2   -->   2 G_2            
     e(195 -196) =     18.99061  eV     2   -->   2 G_2            
     e(197 -198) =     19.10561  eV     2   -->   2 G_2            
     e(199 -200) =     19.24090  eV     2   -->   2 G_2            

 **************************************************************************

 **************************************************************************

                    xk=(   0.04286,   0.02474,   0.00000  )

     Band symmetry, C_1 (1)     double point group:

     e(  1 -  2) =    -35.63762  eV     2   -->   2 G_2            
     e(  3 -  4) =    -35.63332  eV     2   -->   2 G_2            
     e(  5 -  6) =    -35.60388  eV     2   -->   2 G_2            
     e(  7 -  8) =    -35.59958  eV     2   -->   2 G_2            
     e(  9 - 10) =    -35.53424  eV     2   -->   2 G_2            
     e( 11 - 12) =    -35.50338  eV     2   -->   2 G_2            
     e( 13 - 14) =    -34.17924  eV     2   -->   2 G_2            
     e( 15 - 16) =    -34.17495  eV     2   -->   2 G_2            
     e( 17 - 18) =    -34.15097  eV     2   -->   2 G_2            
     e( 19 - 20) =    -34.14665  eV     2   -->   2 G_2            
     e( 21 - 22) =    -34.13539  eV     2   -->   2 G_2            
     e( 23 - 24) =    -34.13111  eV     2   -->   2 G_2            
     e( 25 - 26) =    -34.07274  eV     2   -->   2 G_2            
     e( 27 - 28) =    -34.05550  eV     2   -->   2 G_2            
     e( 29 - 30) =    -34.03219  eV     2   -->   2 G_2            
     e( 31 - 32) =    -28.28717  eV     2   -->   2 G_2            
     e( 33 - 34) =    -28.28420  eV     2   -->   2 G_2            
     e( 35 - 36) =    -28.27868  eV     2   -->   2 G_2            
     e( 37 - 38) =    -28.27574  eV     2   -->   2 G_2            
     e( 39 - 40) =    -27.04765  eV     2   -->   2 G_2            
     e( 41 - 42) =    -27.04468  eV     2   -->   2 G_2            
     e( 43 - 44) =    -27.03931  eV     2   -->   2 G_2            
     e( 45 - 46) =    -27.03638  eV     2   -->   2 G_2            
     e( 47 - 48) =    -27.03598  eV     2   -->   2 G_2            
     e( 49 - 50) =    -27.03305  eV     2   -->   2 G_2            
     e( 51 - 52) =    -10.69783  eV     2   -->   2 G_2            
     e( 53 - 54) =    -10.15942  eV     2   -->   2 G_2            
     e( 55 - 56) =     -9.09425  eV     2   -->   2 G_2            
     e( 57 - 58) =     -6.37028  eV     2   -->   2 G_2            
     e( 59 - 60) =     -5.05341  eV     2   -->   2 G_2            
     e( 61 - 62) =     -0.67797  eV     2   -->   2 G_2            
     e( 63 - 63) =     -0.41164  eV     1   --> G_2            
     e( 64 - 64) =     -0.41033  eV     1   --> G_2            
     e( 65 - 65) =      0.06608  eV     1   --> G_2            
     e( 66 - 66) =      0.06670  eV     1   --> G_2            
     e( 67 - 67) =      0.12664  eV     1   --> G_2            
     e( 68 - 68) =      0.12821  eV     1   --> G_2            
     e( 69 - 69) =      0.34479  eV     1   --> G_2            
     e( 70 - 70) =      0.34500  eV     1   --> G_2            
     e( 71 - 71) =      0.56215  eV     1   --> G_2            
     e( 72 - 72) =      0.56340  eV     1   --> G_2            
     e( 73 - 73) =      0.82610  eV     1   --> G_2            
     e( 74 - 74) =      0.82713  eV     1   --> G_2            
     e( 75 - 75) =      1.00641  eV     1   --> G_2            
     e( 76 - 76) =      1.00729  eV     1   --> G_2            
     e( 77 - 77) =      1.32407  eV     1   --> G_2            
     e( 78 - 78) =      1.32446  eV     1   --> G_2            
     e( 79 - 79) =      2.02751  eV     1   --> G_2            
     e( 80 - 80) =      2.02809  eV     1   --> G_2            
     e( 81 - 81) =      2.48261  eV     1   --> G_2            
     e( 82 - 82) =      2.48285  eV     1   --> G_2            
     e( 83 - 83) =      2.83231  eV     1   --> G_2            
     e( 84 - 84) =      2.83287  eV     1   --> G_2            
     e( 85 - 85) =      3.23451  eV     1   --> G_2            
     e( 86 - 86) =      3.23539  eV     1   --> G_2            
     e( 87 - 87) =      3.86560  eV     1   --> G_2            
     e( 88 - 88) =      3.86592  eV     1   --> G_2            
     e( 89 - 89) =      4.04234  eV     1   --> G_2            
     e( 90 - 90) =      4.04263  eV     1   --> G_2            
     e( 91 - 92) =      6.12678  eV     2   -->   2 G_2            
     e( 93 - 94) =      6.28564  eV     2   -->   2 G_2            
     e( 95 - 96) =      6.92559  eV     2   -->   2 G_2            
     e( 97 - 98) =      7.15554  eV     2   -->   2 G_2            
     e( 99 -100) =      7.46122  eV     2   -->   2 G_2            
     e(101 -102) =      7.78666  eV     2   -->   2 G_2            
     e(103 -103) =      8.31794  eV     1   --> G_2            
     e(104 -104) =      8.31806  eV     1   --> G_2            
     e(105 -105) =      8.39723  eV     1   --> G_2            
     e(106 -106) =      8.39781  eV     1   --> G_2            
     e(107 -107) =      8.53091  eV     1   --> G_2            
     e(108 -108) =      8.53195  eV     1   --> G_2            
     e(109 -109) =      8.67651  eV     1   --> G_2            
     e(110 -110) =      8.67687  eV     1   --> G_2            
     e(111 -112) =      9.08772  eV     2   -->   2 G_2            
     e(113 -114) =      9.56501  eV     2   -->   2 G_2            
     e(115 -116) =      9.65670  eV     2   -->   2 G_2            
     e(117 -118) =      9.86935  eV     2   -->   2 G_2            
     e(119 -120) =     10.04774  eV     2   -->   2 G_2            
     e(121 -122) =     10.48111  eV     2   -->   2 G_2            
     e(123 -123) =     10.79674  eV     1   --> G_2            
     e(124 -124) =     10.79690  eV     1   --> G_2            
     e(125 -125) =     11.06038  eV     1   --> G_2            
     e(126 -126) =     11.06061  eV     1   --> G_2            
     e(127 -127) =     11.20276  eV     1   --> G_2            
     e(128 -128) =     11.20296  eV     1   --> G_2            
     e(129 -129) =     11.71705  eV     1   --> G_2            
     e(130 -130) =     11.71753  eV     1   --> G_2            
     e(131 -131) =     11.79534  eV     1   --> G_2            
     e(132 -132) =     11.79577  eV     1   --> G_2            
     e(133 -134) =     12.67528  eV     2   -->   2 G_2            
     e(135 -136) =     12.78638  eV     2   -->   2 G_2            
     e(137 -138) =     13.39507  eV     2   -->   2 G_2            
     e(139 -140) =     13.82280  eV     2   -->   2 G_2            
     e(141 -142) =     14.07078  eV     2   -->   2 G_2            
     e(143 -143) =     14.29011  eV     1   --> G_2            
     e(144 -144) =     14.29021  eV     1   --> G_2            
     e(145 -145) =     14.46409  eV     1   --> G_2            
     e(146 -146) =     14.46421  eV     1   --> G_2            
     e(147 -148) =     14.77339  eV     2   -->   2 G_2            
     e(149 -150) =     15.26450  eV     2   -->   2 G_2            
     e(151 -152) =     15.58527  eV     2   -->   2 G_2            
     e(153 -154) =     15.73839  eV     2   -->   2 G_2            
     e(155 -156) =     15.93567  eV     2   -->   2 G_2            
     e(157 -158) =     16.15405  eV     2   -->   2 G_2            
     e(159 -160) =     16.20307  eV     2   -->   2 G_2            
     e(161 -162) =     16.34464  eV     2   -->   2 G_2            
     e(163 -164) =     16.37744  eV     2   -->   2 G_2            
     e(165 -166) =     16.62260  eV     2   -->   2 G_2            
     e(167 -168) =     16.81989  eV     2   -->   2 G_2            
     e(169 -170) =     16.93232  eV     2   -->   2 G_2            
     e(171 -172) =     17.11539  eV     2   -->   2 G_2            
     e(173 -174) =     17.19843  eV     2   -->   2 G_2            
     e(175 -176) =     17.41214  eV     2   -->   2 G_2            
     e(177 -178) =     17.46632  eV     2   -->   2 G_2            
     e(179 -180) =     17.64562  eV     2   -->   2 G_2            
     e(181 -182) =     17.75005  eV     2   -->   2 G_2            
     e(183 -184) =     17.84576  eV     2   -->   2 G_2            
     e(185 -186) =     17.94033  eV     2   -->   2 G_2            
     e(187 -188) =     18.08435  eV     2   -->   2 G_2            
     e(189 -190) =     18.12174  eV     2   -->   2 G_2            
     e(191 -192) =     18.32623  eV     2   -->   2 G_2            
     e(193 -194) =     18.69936  eV     2   -->   2 G_2            
     e(195 -196) =     18.94341  eV     2   -->   2 G_2            
     e(197 -198) =     19.07769  eV     2   -->   2 G_2            
     e(199 -200) =     19.20585  eV     2   -->   2 G_2            

 **************************************************************************

 **************************************************************************

                    xk=(   0.05000,   0.02887,   0.00000  )

     Band symmetry, C_1 (1)     double point group:

     e(  1 -  2) =    -35.63762  eV     2   -->   2 G_2            
     e(  3 -  4) =    -35.63331  eV     2   -->   2 G_2            
     e(  5 -  6) =    -35.60388  eV     2   -->   2 G_2            
     e(  7 -  8) =    -35.59958  eV     2   -->   2 G_2            
     e(  9 - 10) =    -35.53424  eV     2   -->   2 G_2            
     e( 11 - 12) =    -35.50338  eV     2   -->   2 G_2            
     e( 13 - 14) =    -34.17924  eV     2   -->   2 G_2            
     e( 15 - 16) =    -34.17494  eV     2   -->   2 G_2            
     e( 17 - 18) =    -34.15097  eV     2   -->   2 G_2            
     e( 19 - 20) =    -34.14665  eV     2   -->   2 G_2            
     e( 21 - 22) =    -34.13539  eV     2   -->   2 G_2            
     e( 23 - 24) =    -34.13111  eV     2   -->   2 G_2            
     e( 25 - 26) =    -34.07274  eV     2   -->   2 G_2            
     e( 27 - 28) =    -34.05550  eV     2   -->   2 G_2            
     e( 29 - 30) =    -34.03218  eV     2   -->   2 G_2            
     e( 31 - 32) =    -28.28716  eV     2   -->   2 G_2            
     e( 33 - 34) =    -28.28419  eV     2   -->   2 G_2            
     e( 35 - 36) =    -28.27868  eV     2   -->   2 G_2            
     e( 37 - 38) =    -28.27574  eV     2   -->   2 G_2            
     e( 39 - 40) =    -27.04765  eV     2   -->   2 G_2            
     e( 41 - 42) =    -27.04467  eV     2   -->   2 G_2            
     e( 43 - 44) =    -27.03932  eV     2   -->   2 G_2            
     e( 45 - 46) =    -27.03639  eV     2   -->   2 G_2            
     e( 47 - 48) =    -27.03598  eV     2   -->   2 G_2            
     e( 49 - 50) =    -27.03305  eV     2   -->   2 G_2            
     e( 51 - 52) =    -10.69250  eV     2   -->   2 G_2            
     e( 53 - 54) =    -10.15459  eV     2   -->   2 G_2            
     e( 55 - 56) =     -9.09146  eV     2   -->   2 G_2            
     e( 57 - 58) =     -6.37176  eV     2   -->   2 G_2            
     e( 59 - 60) =     -5.06431  eV     2   -->   2 G_2            
     e( 61 - 62) =     -0.68955  eV     2   -->   2 G_2            
     e( 63 - 63) =     -0.46452  eV     1   --> G_2            
     e( 64 - 64) =     -0.46305  eV     1   --> G_2            
     e( 65 - 65) =      0.04757  eV     1   --> G_2            
     e( 66 - 66) =      0.04770  eV     1   --> G_2            
     e( 67 - 67) =      0.09162  eV     1   --> G_2            
     e( 68 - 68) =      0.09295  eV     1   --> G_2            
     e( 69 - 69) =      0.33512  eV     1   --> G_2            
     e( 70 - 70) =      0.33543  eV     1   --> G_2            
     e( 71 - 71) =      0.55719  eV     1   --> G_2            
     e( 72 - 72) =      0.55838  eV     1   --> G_2            
     e( 73 - 73) =      0.82754  eV     1   --> G_2            
     e( 74 - 74) =      0.82848  eV     1   --> G_2            
     e( 75 - 75) =      1.01852  eV     1   --> G_2            
     e( 76 - 76) =      1.01933  eV     1   --> G_2            
     e( 77 - 77) =      1.35490  eV     1   --> G_2            
     e( 78 - 78) =      1.35534  eV     1   --> G_2            
     e( 79 - 79) =      2.07215  eV     1   --> G_2            
     e( 80 - 80) =      2.07285  eV     1   --> G_2            
     e( 81 - 81) =      2.47242  eV     1   --> G_2            
     e( 82 - 82) =      2.47266  eV     1   --> G_2            
     e( 83 - 83) =      2.83198  eV     1   --> G_2            
     e( 84 - 84) =      2.83247  eV     1   --> G_2            
     e( 85 - 85) =      3.26381  eV     1   --> G_2            
     e( 86 - 86) =      3.26472  eV     1   --> G_2            
     e( 87 - 87) =      3.88160  eV     1   --> G_2            
     e( 88 - 88) =      3.88193  eV     1   --> G_2            
     e( 89 - 89) =      4.04736  eV     1   --> G_2            
     e( 90 - 90) =      4.04769  eV     1   --> G_2            
     e( 91 - 91) =      6.13602  eV     1   --> G_2            
     e( 92 - 92) =      6.13612  eV     1   --> G_2            
     e( 93 - 94) =      6.28629  eV     2   -->   2 G_2            
     e( 95 - 96) =      6.92303  eV     2   -->   2 G_2            
     e( 97 - 98) =      7.13572  eV     2   -->   2 G_2            
     e( 99 -100) =      7.46104  eV     2   -->   2 G_2            
     e(101 -102) =      7.79319  eV     2   -->   2 G_2            
     e(103 -103) =      8.31465  eV     1   --> G_2            
     e(104 -104) =      8.31491  eV     1   --> G_2            
     e(105 -105) =      8.39697  eV     1   --> G_2            
     e(106 -106) =      8.39735  eV     1   --> G_2            
     e(107 -107) =      8.52579  eV     1   --> G_2            
     e(108 -108) =      8.52666  eV     1   --> G_2            
     e(109 -109) =      8.70306  eV     1   --> G_2            
     e(110 -110) =      8.70333  eV     1   --> G_2            
     e(111 -112) =      9.08089  eV     2   -->   2 G_2            
     e(113 -114) =      9.59508  eV     2   -->   2 G_2            
     e(115 -115) =      9.67810  eV     1   --> G_2            
     e(116 -116) =      9.67820  eV     1   --> G_2            
     e(117 -117) =      9.86574  eV     1   --> G_2            
     e(118 -118) =      9.86587  eV     1   --> G_2            
     e(119 -120) =     10.07392  eV     2   -->   2 G_2            
     e(121 -122) =     10.50536  eV     2   -->   2 G_2            
     e(123 -123) =     10.78173  eV     1   --> G_2            
     e(124 -124) =     10.78192  eV     1   --> G_2            
     e(125 -125) =     11.04676  eV     1   --> G_2            
     e(126 -126) =     11.04695  eV     1   --> G_2            
     e(127 -127) =     11.18021  eV     1   --> G_2            
     e(128 -128) =     11.18038  eV     1   --> G_2            
     e(129 -129) =     11.77328  eV     1   --> G_2            
     e(130 -130) =     11.77380  eV     1   --> G_2            
     e(131 -131) =     11.84572  eV     1   --> G_2            
     e(132 -132) =     11.84619  eV     1   --> G_2            
     e(133 -134) =     12.66039  eV     2   -->   2 G_2            
     e(135 -136) =     12.79776  eV     2   -->   2 G_2            
     e(137 -138) =     13.35537  eV     2   -->   2 G_2            
     e(139 -140) =     13.78912  eV     2   -->   2 G_2            
     e(141 -142) =     14.08047  eV     2   -->   2 G_2            
     e(143 -143) =     14.32512  eV     1   --> G_2            
     e(144 -144) =     14.32523  eV     1   --> G_2            
     e(145 -145) =     14.48535  eV     1   --> G_2            
     e(146 -146) =     14.48549  eV     1   --> G_2            
     e(147 -148) =     14.71211  eV     2   -->   2 G_2            
     e(149 -150) =     15.30042  eV     2   -->   2 G_2            
     e(151 -152) =     15.53232  eV     2   -->   2 G_2            
     e(153 -154) =     15.67190  eV     2   -->   2 G_2            
     e(155 -156) =     15.87585  eV     2   -->   2 G_2            
     e(157 -158) =     16.07052  eV     2   -->   2 G_2            
     e(159 -160) =     16.21792  eV     2   -->   2 G_2            
     e(161 -162) =     16.35929  eV     2   -->   2 G_2            
     e(163 -164) =     16.41690  eV     2   -->   2 G_2            
     e(165 -166) =     16.65212  eV     2   -->   2 G_2            
     e(167 -168) =     16.79820  eV     2   -->   2 G_2            
     e(169 -170) =     16.89641  eV     2   -->   2 G_2            
     e(171 -172) =     17.07157  eV     2   -->   2 G_2            
     e(173 -174) =     17.17922  eV     2   -->   2 G_2            
     e(175 -176) =     17.46588  eV     2   -->   2 G_2            
     e(177 -178) =     17.50946  eV     2   -->   2 G_2            
     e(179 -180) =     17.67599  eV     2   -->   2 G_2            
     e(181 -182) =     17.80715  eV     2   -->   2 G_2            
     e(183 -184) =     17.88110  eV     2   -->   2 G_2            
     e(185 -186) =     17.99667  eV     2   -->   2 G_2            
     e(187 -188) =     18.04456  eV     2   -->   2 G_2            
     e(189 -190) =     18.14045  eV     2   -->   2 G_2            
     e(191 -192) =     18.37773  eV     2   -->   2 G_2            
     e(193 -194) =     18.64330  eV     2   -->   2 G_2            
     e(195 -196) =     18.89848  eV     2   -->   2 G_2            
     e(197 -198) =     19.03764  eV     2   -->   2 G_2            
     e(199 -200) =     19.15965  eV     2   -->   2 G_2            

 **************************************************************************

 **************************************************************************

                    xk=(   0.05714,   0.03299,   0.00000  )

     Band symmetry, C_1 (1)     double point group:

     e(  1 -  2) =    -35.63762  eV     2   -->   2 G_2            
     e(  3 -  4) =    -35.63331  eV     2   -->   2 G_2            
     e(  5 -  6) =    -35.60388  eV     2   -->   2 G_2            
     e(  7 -  8) =    -35.59958  eV     2   -->   2 G_2            
     e(  9 - 10) =    -35.53424  eV     2   -->   2 G_2            
     e( 11 - 12) =    -35.50337  eV     2   -->   2 G_2            
     e( 13 - 14) =    -34.17924  eV     2   -->   2 G_2            
     e( 15 - 16) =    -34.17494  eV     2   -->   2 G_2            
     e( 17 - 18) =    -34.15097  eV     2   -->   2 G_2            
     e( 19 - 20) =    -34.14665  eV     2   -->   2 G_2            
     e( 21 - 22) =    -34.13539  eV     2   -->   2 G_2            
     e( 23 - 24) =    -34.13111  eV     2   -->   2 G_2            
     e( 25 - 26) =    -34.07274  eV     2   -->   2 G_2            
     e( 27 - 28) =    -34.05550  eV     2   -->   2 G_2            
     e( 29 - 30) =    -34.03218  eV     2   -->   2 G_2            
     e( 31 - 32) =    -28.28716  eV     2   -->   2 G_2            
     e( 33 - 34) =    -28.28419  eV     2   -->   2 G_2            
     e( 35 - 36) =    -28.27869  eV     2   -->   2 G_2            
     e( 37 - 38) =    -28.27575  eV     2   -->   2 G_2            
     e( 39 - 40) =    -27.04764  eV     2   -->   2 G_2            
     e( 41 - 42) =    -27.04466  eV     2   -->   2 G_2            
     e( 43 - 44) =    -27.03932  eV     2   -->   2 G_2            
     e( 45 - 46) =    -27.03640  eV     2   -->   2 G_2            
     e( 47 - 48) =    -27.03598  eV     2   -->   2 G_2            
     e( 49 - 50) =    -27.03305  eV     2   -->   2 G_2            
     e( 51 - 52) =    -10.68634  eV     2   -->   2 G_2            
     e( 53 - 54) =    -10.14903  eV     2   -->   2 G_2            
     e( 55 - 56) =     -9.08825  eV     2   -->   2 G_2            
     e( 57 - 58) =     -6.37350  eV     2   -->   2 G_2            
     e( 59 - 60) =     -5.07686  eV     2   -->   2 G_2            
     e( 61 - 61) =     -0.70357  eV     1   --> G_2            
     e( 62 - 62) =     -0.70337  eV     1   --> G_2            
     e( 63 - 63) =     -0.52002  eV     1   --> G_2            
     e( 64 - 64) =     -0.51837  eV     1   --> G_2            
     e( 65 - 65) =      0.01260  eV     1   --> G_2            
     e( 66 - 66) =      0.01342  eV     1   --> G_2            
     e( 67 - 67) =      0.06914  eV     1   --> G_2            
     e( 68 - 68) =      0.07016  eV     1   --> G_2            
     e( 69 - 69) =      0.32274  eV     1   --> G_2            
     e( 70 - 70) =      0.32322  eV     1   --> G_2            
     e( 71 - 71) =      0.54566  eV     1   --> G_2            
     e( 72 - 72) =      0.54675  eV     1   --> G_2            
     e( 73 - 73) =      0.82703  eV     1   --> G_2            
     e( 74 - 74) =      0.82784  eV     1   --> G_2            
     e( 75 - 75) =      1.03956  eV     1   --> G_2            
     e( 76 - 76) =      1.04026  eV     1   --> G_2            
     e( 77 - 77) =      1.38679  eV     1   --> G_2            
     e( 78 - 78) =      1.38726  eV     1   --> G_2            
     e( 79 - 79) =      2.11267  eV     1   --> G_2            
     e( 80 - 80) =      2.11349  eV     1   --> G_2            
     e( 81 - 81) =      2.46789  eV     1   --> G_2            
     e( 82 - 82) =      2.46820  eV     1   --> G_2            
     e( 83 - 83) =      2.83765  eV     1   --> G_2            
     e( 84 - 84) =      2.83805  eV     1   --> G_2            
     e( 85 - 85) =      3.29133  eV     1   --> G_2            
     e( 86 - 86) =      3.29225  eV     1   --> G_2            
     e( 87 - 87) =      3.89619  eV     1   --> G_2            
     e( 88 - 88) =      3.89653  eV     1   --> G_2            
     e( 89 - 89) =      4.05705  eV     1   --> G_2            
     e( 90 - 90) =      4.05740  eV     1   --> G_2            
     e( 91 - 91) =      6.14654  eV     1   --> G_2            
     e( 92 - 92) =      6.14666  eV     1   --> G_2            
     e( 93 - 93) =      6.28686  eV     1   --> G_2            
     e( 94 - 94) =      6.28697  eV     1   --> G_2            
     e( 95 - 96) =      6.91767  eV     2   -->   2 G_2            
     e( 97 - 98) =      7.11672  eV     2   -->   2 G_2            
     e( 99 -100) =      7.46129  eV     2   -->   2 G_2            
     e(101 -102) =      7.80172  eV     2   -->   2 G_2            
     e(103 -103) =      8.29670  eV     1   --> G_2            
     e(104 -104) =      8.29703  eV     1   --> G_2            
     e(105 -105) =      8.41026  eV     1   --> G_2            
     e(106 -106) =      8.41052  eV     1   --> G_2            
     e(107 -107) =      8.52310  eV     1   --> G_2            
     e(108 -108) =      8.52384  eV     1   --> G_2            
     e(109 -109) =      8.73214  eV     1   --> G_2            
     e(110 -110) =      8.73235  eV     1   --> G_2            
     e(111 -112) =      9.07542  eV     2   -->   2 G_2            
     e(113 -114) =      9.61076  eV     2   -->   2 G_2            
     e(115 -115) =      9.70341  eV     1   --> G_2            
     e(116 -116) =      9.70352  eV     1   --> G_2            
     e(117 -117) =      9.87404  eV     1   --> G_2            
     e(118 -118) =      9.87419  eV     1   --> G_2            
     e(119 -120) =     10.10433  eV     2   -->   2 G_2            
     e(121 -122) =     10.53408  eV     2   -->   2 G_2            
     e(123 -123) =     10.75898  eV     1   --> G_2            
     e(124 -124) =     10.75920  eV     1   --> G_2            
     e(125 -125) =     11.04279  eV     1   --> G_2            
     e(126 -126) =     11.04294  eV     1   --> G_2            
     e(127 -127) =     11.16103  eV     1   --> G_2            
     e(128 -128) =     11.16119  eV     1   --> G_2            
     e(129 -129) =     11.82683  eV     1   --> G_2            
     e(130 -130) =     11.82734  eV     1   --> G_2            
     e(131 -131) =     11.89862  eV     1   --> G_2            
     e(132 -132) =     11.89909  eV     1   --> G_2            
     e(133 -134) =     12.64436  eV     2   -->   2 G_2            
     e(135 -136) =     12.81052  eV     2   -->   2 G_2            
     e(137 -138) =     13.31914  eV     2   -->   2 G_2            
     e(139 -140) =     13.75560  eV     2   -->   2 G_2            
     e(141 -141) =     14.08497  eV     1   --> G_2            
     e(142 -142) =     14.08507  eV     1   --> G_2            
     e(143 -143) =     14.35736  eV     1   --> G_2            
     e(144 -144) =     14.35749  eV     1   --> G_2            
     e(145 -145) =     14.47999  eV     1   --> G_2            
     e(146 -146) =     14.48011  eV     1   --> G_2            
     e(147 -148) =     14.68244  eV     2   -->   2 G_2            
     e(149 -150) =     15.33684  eV     2   -->   2 G_2            
     e(151 -151) =     15.46621  eV     1   --> G_2            
     e(152 -152) =     15.46631  eV     1   --> G_2            
     e(153 -154) =     15.61212  eV     2   -->   2 G_2            
     e(155 -156) =     15.81458  eV     2   -->   2 G_2            
     e(157 -158) =     15.98528  eV     2   -->   2 G_2            
     e(159 -160) =     16.22944  eV     2   -->   2 G_2            
     e(161 -162) =     16.37450  eV     2   -->   2 G_2            
     e(163 -164) =     16.45852  eV     2   -->   2 G_2            
     e(165 -166) =     16.66549  eV     2   -->   2 G_2            
     e(167 -168) =     16.80159  eV     2   -->   2 G_2            
     e(169 -170) =     16.86916  eV     2   -->   2 G_2            
     e(171 -172) =     17.03043  eV     2   -->   2 G_2            
     e(173 -174) =     17.15014  eV     2   -->   2 G_2            
     e(175 -176) =     17.46610  eV     2   -->   2 G_2            
     e(177 -178) =     17.58396  eV     2   -->   2 G_2            
     e(179 -180) =     17.66164  eV     2   -->   2 G_2            
     e(181 -182) =     17.83957  eV     2   -->   2 G_2            
     e(183 -184) =     17.93092  eV     2   -->   2 G_2            
     e(185 -186) =     17.96501  eV     2   -->   2 G_2            
     e(187 -188) =     18.14201  eV     2   -->   2 G_2            
     e(189 -190) =     18.21018  eV     2   -->   2 G_2            
     e(191 -192) =     18.43487  eV     2   -->   2 G_2            
     e(193 -194) =     18.58962  eV     2   -->   2 G_2            
     e(195 -196) =     18.85774  eV     2   -->   2 G_2            
     e(197 -198) =     18.99338  eV     2   -->   2 G_2            
     e(199 -200) =     19.11143  eV     2   -->   2 G_2            

 **************************************************************************

 **************************************************************************

                    xk=(   0.06429,   0.03712,   0.00000  )

     Band symmetry, C_1 (1)     double point group:

     e(  1 -  2) =    -35.63761  eV     2   -->   2 G_2            
     e(  3 -  4) =    -35.63331  eV     2   -->   2 G_2            
     e(  5 -  6) =    -35.60388  eV     2   -->   2 G_2            
     e(  7 -  8) =    -35.59958  eV     2   -->   2 G_2            
     e(  9 - 10) =    -35.53424  eV     2   -->   2 G_2            
     e( 11 - 12) =    -35.50337  eV     2   -->   2 G_2            
     e( 13 - 14) =    -34.17923  eV     2   -->   2 G_2            
     e( 15 - 16) =    -34.17493  eV     2   -->   2 G_2            
     e( 17 - 18) =    -34.15097  eV     2   -->   2 G_2            
     e( 19 - 20) =    -34.14665  eV     2   -->   2 G_2            
     e( 21 - 22) =    -34.13539  eV     2   -->   2 G_2            
     e( 23 - 24) =    -34.13111  eV     2   -->   2 G_2            
     e( 25 - 26) =    -34.07274  eV     2   -->   2 G_2            
     e( 27 - 28) =    -34.05550  eV     2   -->   2 G_2            
     e( 29 - 30) =    -34.03217  eV     2   -->   2 G_2            
     e( 31 - 32) =    -28.28716  eV     2   -->   2 G_2            
     e( 33 - 34) =    -28.28419  eV     2   -->   2 G_2            
     e( 35 - 36) =    -28.27869  eV     2   -->   2 G_2            
     e( 37 - 38) =    -28.27575  eV     2   -->   2 G_2            
     e( 39 - 40) =    -27.04763  eV     2   -->   2 G_2            
     e( 41 - 42) =    -27.04465  eV     2   -->   2 G_2            
     e( 43 - 44) =    -27.03933  eV     2   -->   2 G_2            
     e( 45 - 45) =    -27.03641  eV     1   --> G_2            
     e( 46 - 46) =    -27.03630  eV     1   --> G_2            
     e( 47 - 48) =    -27.03598  eV     2   -->   2 G_2            
[...]
     e( 93 - 94) =      6.28383  eV     2   -->   2 G_2            
     e( 95 - 96) =      6.92541  eV     2   -->   2 G_2            
     e( 97 - 98) =      7.21984  eV     2   -->   2 G_2            
     e( 99 -100) =      7.46474  eV     2   -->   2 G_2            
     e(101 -102) =      7.76066  eV     2   -->   2 G_2            
     e(103 -104) =      8.27489  eV     2   -->   2 G_2            
     e(105 -105) =      8.45450  eV     1   --> G_2            
     e(106 -106) =      8.45510  eV     1   --> G_2            
     e(107 -107) =      8.54683  eV     1   --> G_2            
     e(108 -108) =      8.54789  eV     1   --> G_2            
     e(109 -109) =      8.61931  eV     1   --> G_2            
     e(110 -110) =      8.61982  eV     1   --> G_2            
     e(111 -112) =      9.12242  eV     2   -->   2 G_2            
     e(113 -114) =      9.41838  eV     2   -->   2 G_2            
     e(115 -116) =      9.60165  eV     2   -->   2 G_2            
     e(117 -118) =      9.92076  eV     2   -->   2 G_2            
     e(119 -120) =      9.99143  eV     2   -->   2 G_2            
     e(121 -122) =     10.43477  eV     2   -->   2 G_2            
     e(123 -124) =     10.78202  eV     2   -->   2 G_2            
     e(125 -125) =     11.18261  eV     1   --> G_2            
     e(126 -126) =     11.18290  eV     1   --> G_2            
     e(127 -127) =     11.34401  eV     1   --> G_2            
     e(128 -128) =     11.34438  eV     1   --> G_2            
     e(129 -129) =     11.45000  eV     1   --> G_2            
     e(130 -130) =     11.45017  eV     1   --> G_2            
     e(131 -131) =     11.66211  eV     1   --> G_2            
     e(132 -132) =     11.66223  eV     1   --> G_2            
     e(133 -134) =     12.71813  eV     2   -->   2 G_2            
     e(135 -136) =     12.75916  eV     2   -->   2 G_2            
     e(137 -138) =     13.54748  eV     2   -->   2 G_2            
     e(139 -140) =     13.91822  eV     2   -->   2 G_2            
     e(141 -142) =     14.03520  eV     2   -->   2 G_2            
     e(143 -144) =     14.12674  eV     2   -->   2 G_2            
     e(145 -146) =     14.38496  eV     2   -->   2 G_2            
     e(147 -148) =     14.94484  eV     2   -->   2 G_2            
     e(149 -150) =     15.31582  eV     2   -->   2 G_2            
     e(151 -151) =     15.76526  eV     1   --> G_2            
     e(152 -152) =     15.76536  eV     1   --> G_2            
     e(153 -153) =     15.87193  eV     1   --> G_2            
     e(154 -154) =     15.87209  eV     1   --> G_2            
     e(155 -155) =     15.91245  eV     1   --> G_2            
     e(156 -156) =     15.91262  eV     1   --> G_2            
     e(157 -158) =     16.03696  eV     2   -->   2 G_2            
     e(159 -160) =     16.26151  eV     2   -->   2 G_2            
     e(161 -162) =     16.47360  eV     2   -->   2 G_2            
     e(163 -164) =     16.57410  eV     2   -->   2 G_2            
     e(165 -166) =     16.66420  eV     2   -->   2 G_2            
     e(167 -168) =     16.90507  eV     2   -->   2 G_2            
     e(169 -170) =     17.02085  eV     2   -->   2 G_2            
     e(171 -172) =     17.09257  eV     2   -->   2 G_2            
     e(173 -174) =     17.12783  eV     2   -->   2 G_2            
     e(175 -176) =     17.25134  eV     2   -->   2 G_2            
     e(177 -177) =     17.35595  eV     1   --> G_2            
     e(178 -178) =     17.35605  eV     1   --> G_2            
     e(179 -180) =     17.39275  eV     2   -->   2 G_2            
     e(181 -182) =     17.42575  eV     2   -->   2 G_2            
     e(183 -184) =     17.71653  eV     2   -->   2 G_2            
     e(185 -186) =     17.83886  eV     2   -->   2 G_2            
     e(187 -188) =     18.10654  eV     2   -->   2 G_2            
     e(189 -190) =     18.44535  eV     2   -->   2 G_2            
     e(191 -192) =     18.58083  eV     2   -->   2 G_2            
     e(193 -194) =     18.89094  eV     2   -->   2 G_2            
     e(195 -195) =     18.99979  eV     1   --> G_2            
     e(196 -196) =     18.99994  eV     1   --> G_2            
     e(197 -197) =     19.02061  eV     1   --> G_2            
     e(198 -198) =     19.02077  eV     1   --> G_2            
     e(199 -200) =     19.18800  eV     2   -->   2 G_2            

 **************************************************************************

 **************************************************************************

                    xk=(   0.00476,   0.00847,   0.00000  )

     Band symmetry, C_1 (1)     double point group:

     e(  1 -  2) =    -35.63763  eV     2   -->   2 G_2            
     e(  3 -  4) =    -35.63332  eV     2   -->   2 G_2            
     e(  5 -  6) =    -35.60387  eV     2   -->   2 G_2            
     e(  7 -  8) =    -35.59958  eV     2   -->   2 G_2            
     e(  9 - 10) =    -35.53424  eV     2   -->   2 G_2            
     e( 11 - 12) =    -35.50338  eV     2   -->   2 G_2            
     e( 13 - 14) =    -34.17925  eV     2   -->   2 G_2            
     e( 15 - 16) =    -34.17495  eV     2   -->   2 G_2            
     e( 17 - 18) =    -34.15097  eV     2   -->   2 G_2            
     e( 19 - 20) =    -34.14665  eV     2   -->   2 G_2            
     e( 21 - 22) =    -34.13539  eV     2   -->   2 G_2            
     e( 23 - 24) =    -34.13111  eV     2   -->   2 G_2            
     e( 25 - 26) =    -34.07275  eV     2   -->   2 G_2            
     e( 27 - 28) =    -34.05550  eV     2   -->   2 G_2            
     e( 29 - 30) =    -34.03220  eV     2   -->   2 G_2            
     e( 31 - 32) =    -28.28717  eV     2   -->   2 G_2            
     e( 33 - 34) =    -28.28419  eV     2   -->   2 G_2            
     e( 35 - 36) =    -28.27867  eV     2   -->   2 G_2            
     e( 37 - 38) =    -28.27573  eV     2   -->   2 G_2            
     e( 39 - 40) =    -27.04767  eV     2   -->   2 G_2            
     e( 41 - 42) =    -27.04470  eV     2   -->   2 G_2            
     e( 43 - 44) =    -27.03927  eV     2   -->   2 G_2            
     e( 45 - 46) =    -27.03634  eV     2   -->   2 G_2            
     e( 47 - 48) =    -27.03598  eV     2   -->   2 G_2            
     e( 49 - 50) =    -27.03305  eV     2   -->   2 G_2            
     e( 51 - 52) =    -10.71206  eV     2   -->   2 G_2            
     e( 53 - 54) =    -10.17230  eV     2   -->   2 G_2            
     e( 55 - 56) =     -9.10172  eV     2   -->   2 G_2            
     e( 57 - 58) =     -6.36645  eV     2   -->   2 G_2            
     e( 59 - 60) =     -5.02418  eV     2   -->   2 G_2            
     e( 61 - 62) =     -0.64827  eV     2   -->   2 G_2            
     e( 63 - 63) =     -0.23481  eV     1   --> G_2            
     e( 64 - 64) =     -0.23452  eV     1   --> G_2            
     e( 65 - 65) =      0.06983  eV     1   --> G_2            
     e( 66 - 66) =      0.07013  eV     1   --> G_2            
     e( 67 - 67) =      0.30801  eV     1   --> G_2            
     e( 68 - 68) =      0.30861  eV     1   --> G_2            
     e( 69 - 70) =      0.38342  eV     2   -->   2 G_2            
     e( 71 - 71) =      0.49537  eV     1   --> G_2            
     e( 72 - 72) =      0.49592  eV     1   --> G_2            
     e( 73 - 73) =      0.78457  eV     1   --> G_2            
     e( 74 - 74) =      0.78476  eV     1   --> G_2            
     e( 75 - 75) =      1.03791  eV     1   --> G_2            
     e( 76 - 76) =      1.03807  eV     1   --> G_2            
     e( 77 - 78) =      1.24072  eV     2   -->   2 G_2            
     e( 79 - 80) =      1.85270  eV     2   -->   2 G_2            
     e( 81 - 82) =      2.52804  eV     2   -->   2 G_2            
     e( 83 - 83) =      2.89961  eV     1   --> G_2            
     e( 84 - 84) =      2.89996  eV     1   --> G_2            
     e( 85 - 85) =      3.09439  eV     1   --> G_2            
     e( 86 - 86) =      3.09492  eV     1   --> G_2            
     e( 87 - 87) =      3.81020  eV     1   --> G_2            
     e( 88 - 88) =      3.81033  eV     1   --> G_2            
     e( 89 - 90) =      4.04323  eV     2   -->   2 G_2            
     e( 91 - 92) =      6.10162  eV     2   -->   2 G_2            
     e( 93 - 94) =      6.28333  eV     2   -->   2 G_2            
     e( 95 - 96) =      6.92494  eV     2   -->   2 G_2            
     e( 97 - 98) =      7.22276  eV     2   -->   2 G_2            
     e( 99 -100) =      7.46506  eV     2   -->   2 G_2            
     e(101 -102) =      7.77235  eV     2   -->   2 G_2            
     e(103 -104) =      8.25986  eV     2   -->   2 G_2            
     e(105 -105) =      8.46161  eV     1   --> G_2            
     e(106 -106) =      8.46195  eV     1   --> G_2            
     e(107 -107) =      8.54491  eV     1   --> G_2            
     e(108 -108) =      8.54547  eV     1   --> G_2            
     e(109 -109) =      8.62237  eV     1   --> G_2            
     e(110 -110) =      8.62262  eV     1   --> G_2            
     e(111 -112) =      9.12539  eV     2   -->   2 G_2            
     e(113 -114) =      9.40131  eV     2   -->   2 G_2            
     e(115 -116) =      9.59360  eV     2   -->   2 G_2            
     e(117 -118) =      9.92576  eV     2   -->   2 G_2            
     e(119 -120) =      9.98028  eV     2   -->   2 G_2            
     e(121 -122) =     10.42455  eV     2   -->   2 G_2            
     e(123 -124) =     10.78618  eV     2   -->   2 G_2            
     e(125 -125) =     11.22909  eV     1   --> G_2            
     e(126 -126) =     11.22934  eV     1   --> G_2            
     e(127 -127) =     11.34550  eV     1   --> G_2            
     e(128 -128) =     11.34585  eV     1   --> G_2            
     e(129 -129) =     11.41874  eV     1   --> G_2            
     e(130 -130) =     11.41887  eV     1   --> G_2            
     e(131 -132) =     11.62462  eV     2   -->   2 G_2            
     e(133 -134) =     12.72588  eV     2   -->   2 G_2            
     e(135 -136) =     12.74837  eV     2   -->   2 G_2            
     e(137 -138) =     13.58253  eV     2   -->   2 G_2            
     e(139 -140) =     13.89056  eV     2   -->   2 G_2            
     e(141 -142) =     14.07883  eV     2   -->   2 G_2            
     e(143 -144) =     14.11738  eV     2   -->   2 G_2            
     e(145 -146) =     14.35370  eV     2   -->   2 G_2            
     e(147 -148) =     14.93274  eV     2   -->   2 G_2            
     e(149 -150) =     15.36806  eV     2   -->   2 G_2            
     e(151 -152) =     15.74482  eV     2   -->   2 G_2            
     e(153 -154) =     15.86098  eV     2   -->   2 G_2            
     e(155 -156) =     15.93441  eV     2   -->   2 G_2            
     e(157 -158) =     16.04261  eV     2   -->   2 G_2            
     e(159 -160) =     16.24247  eV     2   -->   2 G_2            
     e(161 -162) =     16.52722  eV     2   -->   2 G_2            
     e(163 -164) =     16.60910  eV     2   -->   2 G_2            
     e(165 -166) =     16.75166  eV     2   -->   2 G_2            
     e(167 -168) =     16.81739  eV     2   -->   2 G_2            
     e(169 -170) =     16.99655  eV     2   -->   2 G_2            
     e(171 -172) =     17.08233  eV     2   -->   2 G_2            
     e(173 -174) =     17.16805  eV     2   -->   2 G_2            
     e(175 -176) =     17.17600  eV     2   -->   2 G_2            
     e(177 -178) =     17.36538  eV     2   -->   2 G_2            
     e(179 -180) =     17.42711  eV     2   -->   2 G_2            
     e(181 -182) =     17.47485  eV     2   -->   2 G_2            
     e(183 -183) =     17.71126  eV     1   --> G_2            
     e(184 -184) =     17.71146  eV     1   --> G_2            
     e(185 -185) =     17.74111  eV     1   --> G_2            
     e(186 -186) =     17.74130  eV     1   --> G_2            
     e(187 -188) =     18.01469  eV     2   -->   2 G_2            
     e(189 -190) =     18.54359  eV     2   -->   2 G_2            
     e(191 -192) =     18.66661  eV     2   -->   2 G_2            
     e(193 -194) =     18.80366  eV     2   -->   2 G_2            
     e(195 -196) =     18.99216  eV     2   -->   2 G_2            
     e(197 -198) =     19.06043  eV     2   -->   2 G_2            
     e(199 -200) =     19.16208  eV     2   -->   2 G_2            

 **************************************************************************

 **************************************************************************

                    xk=(   0.00000,   0.00000,   0.00000  )

     Band symmetry, C_1 (1)     double point group:

     e(  1 -  2) =    -35.63763  eV     2   -->   2 G_2            
     e(  3 -  4) =    -35.63332  eV     2   -->   2 G_2            
     e(  5 -  6) =    -35.60387  eV     2   -->   2 G_2            
     e(  7 -  8) =    -35.59958  eV     2   -->   2 G_2            
     e(  9 - 10) =    -35.53424  eV     2   -->   2 G_2            
     e( 11 - 12) =    -35.50338  eV     2   -->   2 G_2            
     e( 13 - 14) =    -34.17925  eV     2   -->   2 G_2            
     e( 15 - 16) =    -34.17495  eV     2   -->   2 G_2            
     e( 17 - 18) =    -34.15097  eV     2   -->   2 G_2            
     e( 19 - 20) =    -34.14665  eV     2   -->   2 G_2            
     e( 21 - 22) =    -34.13539  eV     2   -->   2 G_2            
     e( 23 - 24) =    -34.13111  eV     2   -->   2 G_2            
     e( 25 - 26) =    -34.07275  eV     2   -->   2 G_2            
     e( 27 - 28) =    -34.05550  eV     2   -->   2 G_2            
     e( 29 - 30) =    -34.03220  eV     2   -->   2 G_2            
     e( 31 - 32) =    -28.28716  eV     2   -->   2 G_2            
     e( 33 - 34) =    -28.28419  eV     2   -->   2 G_2            
     e( 35 - 36) =    -28.27867  eV     2   -->   2 G_2            
     e( 37 - 38) =    -28.27573  eV     2   -->   2 G_2            
     e( 39 - 40) =    -27.04767  eV     2   -->   2 G_2            
     e( 41 - 42) =    -27.04470  eV     2   -->   2 G_2            
     e( 43 - 44) =    -27.03927  eV     2   -->   2 G_2            
     e( 45 - 46) =    -27.03633  eV     2   -->   2 G_2            
     e( 47 - 48) =    -27.03598  eV     2   -->   2 G_2            
     e( 49 - 50) =    -27.03304  eV     2   -->   2 G_2            
     e( 51 - 52) =    -10.71263  eV     2   -->   2 G_2            
     e( 53 - 54) =    -10.17282  eV     2   -->   2 G_2            
     e( 55 - 56) =     -9.10203  eV     2   -->   2 G_2            
     e( 57 - 58) =     -6.36634  eV     2   -->   2 G_2            
     e( 59 - 60) =     -5.02312  eV     2   -->   2 G_2            
     e( 61 - 62) =     -0.64725  eV     2   -->   2 G_2            
     e( 63 - 64) =     -0.22727  eV     2   -->   2 G_2            
     e( 65 - 66) =      0.06815  eV     2   -->   2 G_2            
     e( 67 - 68) =      0.31691  eV     2   -->   2 G_2            
     e( 69 - 70) =      0.39497  eV     2   -->   2 G_2            
     e( 71 - 72) =      0.48418  eV     2   -->   2 G_2            
     e( 73 - 74) =      0.78179  eV     2   -->   2 G_2            
     e( 75 - 76) =      1.04044  eV     2   -->   2 G_2            
     e( 77 - 78) =      1.23884  eV     2   -->   2 G_2            
     e( 79 - 80) =      1.84463  eV     2   -->   2 G_2            
     e( 81 - 82) =      2.52790  eV     2   -->   2 G_2            
     e( 83 - 84) =      2.91008  eV     2   -->   2 G_2            
     e( 85 - 86) =      3.08359  eV     2   -->   2 G_2            
     e( 87 - 88) =      3.80742  eV     2   -->   2 G_2            
     e( 89 - 90) =      4.04336  eV     2   -->   2 G_2            
     e( 91 - 92) =      6.10059  eV     2   -->   2 G_2            
     e( 93 - 94) =      6.28316  eV     2   -->   2 G_2            
     e( 95 - 96) =      6.92477  eV     2   -->   2 G_2            
     e( 97 - 98) =      7.22371  eV     2   -->   2 G_2            
     e( 99 -100) =      7.46519  eV     2   -->   2 G_2            
     e(101 -102) =      7.77658  eV     2   -->   2 G_2            
     e(103 -104) =      8.25449  eV     2   -->   2 G_2            
     e(105 -106) =      8.46432  eV     2   -->   2 G_2            
     e(107 -108) =      8.54397  eV     2   -->   2 G_2            
     e(109 -110) =      8.62399  eV     2   -->   2 G_2            
     e(111 -112) =      9.12655  eV     2   -->   2 G_2            
     e(113 -114) =      9.39534  eV     2   -->   2 G_2            
     e(115 -116) =      9.59073  eV     2   -->   2 G_2            
     e(117 -118) =      9.92777  eV     2   -->   2 G_2            
     e(119 -120) =      9.97642  eV     2   -->   2 G_2            
     e(121 -122) =     10.42117  eV     2   -->   2 G_2            
     e(123 -124) =     10.78754  eV     2   -->   2 G_2            
     e(125 -126) =     11.25184  eV     2   -->   2 G_2            
     e(127 -128) =     11.33959  eV     2   -->   2 G_2            
     e(129 -130) =     11.40956  eV     2   -->   2 G_2            
     e(131 -132) =     11.61038  eV     2   -->   2 G_2            
     e(133 -134) =     12.73073  eV     2   -->   2 G_2            
     e(135 -136) =     12.74255  eV     2   -->   2 G_2            
     e(137 -138) =     13.59639  eV     2   -->   2 G_2            
     e(139 -140) =     13.87876  eV     2   -->   2 G_2            
     e(141 -142) =     14.10434  eV     2   -->   2 G_2            
     e(143 -144) =     14.10605  eV     2   -->   2 G_2            
     e(145 -146) =     14.34149  eV     2   -->   2 G_2            
     e(147 -148) =     14.92717  eV     2   -->   2 G_2            
     e(149 -150) =     15.39180  eV     2   -->   2 G_2            
     e(151 -152) =     15.72986  eV     2   -->   2 G_2            
     e(153 -154) =     15.85043  eV     2   -->   2 G_2            
     e(155 -156) =     15.95596  eV     2   -->   2 G_2            
     e(157 -158) =     16.04233  eV     2   -->   2 G_2            
     e(159 -160) =     16.23307  eV     2   -->   2 G_2            
     e(161 -162) =     16.53510  eV     2   -->   2 G_2            
     e(163 -164) =     16.67281  eV     2   -->   2 G_2            
     e(165 -166) =     16.73867  eV     2   -->   2 G_2            
     e(167 -168) =     16.80083  eV     2   -->   2 G_2            
     e(169 -170) =     16.98650  eV     2   -->   2 G_2            
     e(171 -172) =     17.07012  eV     2   -->   2 G_2            
     e(173 -174) =     17.13845  eV     2   -->   2 G_2            
     e(175 -176) =     17.18980  eV     2   -->   2 G_2            
     e(177 -178) =     17.37004  eV     2   -->   2 G_2            
     e(179 -180) =     17.44214  eV     2   -->   2 G_2            
     e(181 -182) =     17.51005  eV     2   -->   2 G_2            
     e(183 -184) =     17.67082  eV     2   -->   2 G_2            
     e(185 -186) =     17.73826  eV     2   -->   2 G_2            
     e(187 -188) =     17.97145  eV     2   -->   2 G_2            
     e(189 -190) =     18.61975  eV     2   -->   2 G_2            
     e(191 -192) =     18.66965  eV     2   -->   2 G_2            
     e(193 -194) =     18.76955  eV     2   -->   2 G_2            
     e(195 -196) =     18.97481  eV     2   -->   2 G_2            
     e(197 -198) =     19.07584  eV     2   -->   2 G_2            
     e(199 -200) =     19.14489  eV     2   -->   2 G_2            

 **************************************************************************

     BANDS        :      1h 5m CPU      1h 9m WALL


   This run was terminated on:   2:31: 9  23Aug2025            

=------------------------------------------------------------------------------=
   JOB DONE.
=------------------------------------------------------------------------------=
