
     Program BANDS v.7.4.1 starts on 14Aug2025 at 17:58:44 

     This program is part of the open-source Quantum ESPRESSO suite
     for quantum simulation of materials; please cite
         "P. Giannozzi et al., J. Phys.:Condens. Matter 21 395502 (2009);
         "P. Giannozzi et al., J. Phys.:Condens. Matter 29 465901 (2017);
         "P. Giannozzi et al., J. Chem. Phys. 152 154105 (2020);
          URL http://www.quantum-espresso.org", 
     in publications or presentations arising from this work. More details at
     http://www.quantum-espresso.org/quote

     Parallel version (MPI & OpenMP), running on      48 processor cores
     Number of MPI processes:                24
     Threads/MPI process:                     2

     MPI processes distributed on     2 nodes
     R & G space division:  proc/nbgrp/npool/nimage =      24
     69504 MiB available memory on the printing compute node when the environment starts


     Reading xml data from directory:

     tmp/Sb2Te3-uatsx-c2-soc-4.0.save/
Error reading attribute index: expected integer, found *
Error reading attribute index: expected integer, found *

     IMPORTANT: XC functional enforced from input :
     Exchange-correlation= PBE
                           (   1   4   3   4   0   0   0)
     Any further DFT definition will be discarded
     Please, verify this is what you really want


     Parallelization info
     --------------------
     sticks:   dense  smooth     PW     G-vecs:    dense   smooth      PW
     Min          99      39     11                19681     4971     755
     Max         100      40     12                19687     4990     769
     Sum        2379     953    269               472441   119521   18333

     Using Slab Decomposition

     Reading collected, re-writing distributed wavefunctions
     high-symmetry point:  0.0000 0.0000 0.0000   x coordinate   0.0000
     high-symmetry point:  0.5000 0.2887 0.0000   x coordinate   0.5774
     high-symmetry point:  0.3333 0.5928 0.0000   x coordinate   0.9241
     high-symmetry point:  0.0000 0.0000 0.0000   x coordinate   1.6042

     Plottable bands (eV) written to file ./bands/Sb2Te3-uatsx-c2-soc-4.0.bands.gnu
     Bands written to file ./bands/Sb2Te3-uatsx-c2-soc-4.0.bands

 **************************************************************************

                    xk=(   0.00000,   0.00000,   0.00000  )

     double point group C_1 (1)    
     there are  2 classes and  1 irreducible representations
     the character table:

       E     -E   
                  
G_2    1.00 -1.00

     the symmetry operations in each class and the name of the first element:

     E             1
                                                                 
     -E           -1
                                                                 

     Band symmetry, C_1 (1)     double point group:

     e(  1 -  2) =    -35.63886  eV     2   -->   2 G_2            
     e(  3 -  4) =    -35.63424  eV     2   -->   2 G_2            
     e(  5 -  6) =    -35.60507  eV     2   -->   2 G_2            
     e(  7 -  8) =    -35.60049  eV     2   -->   2 G_2            
     e(  9 - 10) =    -35.53540  eV     2   -->   2 G_2            
     e( 11 - 12) =    -35.50453  eV     2   -->   2 G_2            
     e( 13 - 14) =    -34.18049  eV     2   -->   2 G_2            
     e( 15 - 16) =    -34.17586  eV     2   -->   2 G_2            
     e( 17 - 18) =    -34.15214  eV     2   -->   2 G_2            
     e( 19 - 20) =    -34.14758  eV     2   -->   2 G_2            
     e( 21 - 22) =    -34.13659  eV     2   -->   2 G_2            
     e( 23 - 24) =    -34.13200  eV     2   -->   2 G_2            
     e( 25 - 26) =    -34.07390  eV     2   -->   2 G_2            
     e( 27 - 28) =    -34.05664  eV     2   -->   2 G_2            
     e( 29 - 30) =    -34.03334  eV     2   -->   2 G_2            
     e( 31 - 32) =    -28.28910  eV     2   -->   2 G_2            
     e( 33 - 34) =    -28.28596  eV     2   -->   2 G_2            
     e( 35 - 36) =    -28.28060  eV     2   -->   2 G_2            
     e( 37 - 38) =    -28.27750  eV     2   -->   2 G_2            
     e( 39 - 40) =    -27.04961  eV     2   -->   2 G_2            
     e( 41 - 42) =    -27.04646  eV     2   -->   2 G_2            
     e( 43 - 44) =    -27.04120  eV     2   -->   2 G_2            
     e( 45 - 46) =    -27.03810  eV     2   -->   2 G_2            
     e( 47 - 48) =    -27.03791  eV     2   -->   2 G_2            
     e( 49 - 50) =    -27.03481  eV     2   -->   2 G_2            
     e( 51 - 52) =    -10.71040  eV     2   -->   2 G_2            
     e( 53 - 54) =    -10.17056  eV     2   -->   2 G_2            
     e( 55 - 56) =     -9.09924  eV     2   -->   2 G_2            
     e( 57 - 58) =     -6.36324  eV     2   -->   2 G_2            
     e( 59 - 60) =     -5.01930  eV     2   -->   2 G_2            
     e( 61 - 62) =     -0.64781  eV     2   -->   2 G_2            
     e( 63 - 64) =     -0.22782  eV     2   -->   2 G_2            
     e( 65 - 66) =      0.06766  eV     2   -->   2 G_2            
     e( 67 - 68) =      0.31645  eV     2   -->   2 G_2            
     e( 69 - 70) =      0.39438  eV     2   -->   2 G_2            
     e( 71 - 72) =      0.48357  eV     2   -->   2 G_2            
     e( 73 - 74) =      0.78182  eV     2   -->   2 G_2            
     e( 75 - 76) =      1.04008  eV     2   -->   2 G_2            
     e( 77 - 78) =      1.23899  eV     2   -->   2 G_2            
     e( 79 - 80) =      1.84469  eV     2   -->   2 G_2            
     e( 81 - 82) =      2.52754  eV     2   -->   2 G_2            
     e( 83 - 84) =      2.90950  eV     2   -->   2 G_2            
     e( 85 - 86) =      3.08312  eV     2   -->   2 G_2            
     e( 87 - 88) =      3.80707  eV     2   -->   2 G_2            
     e( 89 - 90) =      4.04278  eV     2   -->   2 G_2            
     e( 91 - 92) =      6.09973  eV     2   -->   2 G_2            
     e( 93 - 94) =      6.28325  eV     2   -->   2 G_2            
     e( 95 - 96) =      6.92287  eV     2   -->   2 G_2            
     e( 97 - 98) =      7.22332  eV     2   -->   2 G_2            
     e( 99 -100) =      7.46110  eV     2   -->   2 G_2            

 **************************************************************************

 **************************************************************************

                    xk=(   0.00714,   0.00412,   0.00000  )

     Band symmetry, C_1 (1)     double point group:

     e(  1 -  2) =    -35.63886  eV     2   -->   2 G_2            
     e(  3 -  4) =    -35.63424  eV     2   -->   2 G_2            
     e(  5 -  6) =    -35.60507  eV     2   -->   2 G_2            
     e(  7 -  8) =    -35.60049  eV     2   -->   2 G_2            
     e(  9 - 10) =    -35.53540  eV     2   -->   2 G_2            
     e( 11 - 12) =    -35.50453  eV     2   -->   2 G_2            
     e( 13 - 14) =    -34.18049  eV     2   -->   2 G_2            
     e( 15 - 16) =    -34.17586  eV     2   -->   2 G_2            
     e( 17 - 18) =    -34.15214  eV     2   -->   2 G_2            
     e( 19 - 20) =    -34.14758  eV     2   -->   2 G_2            
     e( 21 - 22) =    -34.13659  eV     2   -->   2 G_2            
     e( 23 - 24) =    -34.13200  eV     2   -->   2 G_2            
     e( 25 - 26) =    -34.07390  eV     2   -->   2 G_2            
     e( 27 - 28) =    -34.05664  eV     2   -->   2 G_2            
     e( 29 - 30) =    -34.03334  eV     2   -->   2 G_2            
     e( 31 - 32) =    -28.28910  eV     2   -->   2 G_2            
     e( 33 - 34) =    -28.28596  eV     2   -->   2 G_2            
     e( 35 - 36) =    -28.28060  eV     2   -->   2 G_2            
     e( 37 - 38) =    -28.27750  eV     2   -->   2 G_2            
     e( 39 - 40) =    -27.04961  eV     2   -->   2 G_2            
     e( 41 - 42) =    -27.04646  eV     2   -->   2 G_2            
     e( 43 - 44) =    -27.04120  eV     2   -->   2 G_2            
     e( 45 - 46) =    -27.03810  eV     2   -->   2 G_2            
     e( 47 - 48) =    -27.03791  eV     2   -->   2 G_2            
     e( 49 - 50) =    -27.03481  eV     2   -->   2 G_2            
     e( 51 - 52) =    -10.70998  eV     2   -->   2 G_2            
     e( 53 - 54) =    -10.17018  eV     2   -->   2 G_2            
     e( 55 - 56) =     -9.09902  eV     2   -->   2 G_2            
     e( 57 - 58) =     -6.36333  eV     2   -->   2 G_2            
     e( 59 - 60) =     -5.02012  eV     2   -->   2 G_2            
     e( 61 - 62) =     -0.64865  eV     2   -->   2 G_2            
     e( 63 - 63) =     -0.23440  eV     1   --> G_2            
     e( 64 - 64) =     -0.23405  eV     1   --> G_2            
     e( 65 - 65) =      0.06877  eV     1   --> G_2            
     e( 66 - 66) =      0.06899  eV     1   --> G_2            
     e( 67 - 67) =      0.30869  eV     1   --> G_2            
     e( 68 - 68) =      0.30940  eV     1   --> G_2            
     e( 69 - 69) =      0.38686  eV     1   --> G_2            
     e( 70 - 70) =      0.38729  eV     1   --> G_2            
     e( 71 - 71) =      0.49351  eV     1   --> G_2            
     e( 72 - 72) =      0.49405  eV     1   --> G_2            
     e( 73 - 73) =      0.78385  eV     1   --> G_2            
     e( 74 - 74) =      0.78402  eV     1   --> G_2            
     e( 75 - 75) =      1.03790  eV     1   --> G_2            
     e( 76 - 76) =      1.03802  eV     1   --> G_2            
     e( 77 - 78) =      1.24047  eV     2   -->   2 G_2            
     e( 79 - 79) =      1.85135  eV     1   --> G_2            
     e( 80 - 80) =      1.85146  eV     1   --> G_2            
     e( 81 - 81) =      2.52620  eV     1   --> G_2            
     e( 82 - 82) =      2.52631  eV     1   --> G_2            
     e( 83 - 83) =      2.90281  eV     1   --> G_2            
     e( 84 - 84) =      2.90302  eV     1   --> G_2            
     e( 85 - 85) =      3.09128  eV     1   --> G_2            
     e( 86 - 86) =      3.09155  eV     1   --> G_2            
     e( 87 - 88) =      3.80886  eV     2   -->   2 G_2            
     e( 89 - 90) =      4.04250  eV     2   -->   2 G_2            
     e( 91 - 92) =      6.10046  eV     2   -->   2 G_2            
     e( 93 - 94) =      6.28333  eV     2   -->   2 G_2            
     e( 95 - 96) =      6.92302  eV     2   -->   2 G_2            
     e( 97 - 98) =      7.22123  eV     2   -->   2 G_2            
     e( 99 -100) =      7.46087  eV     2   -->   2 G_2            

 **************************************************************************

 **************************************************************************

                    xk=(   0.01429,   0.00825,   0.00000  )

     Band symmetry, C_1 (1)     double point group:

     e(  1 -  2) =    -35.63886  eV     2   -->   2 G_2            
     e(  3 -  4) =    -35.63424  eV     2   -->   2 G_2            
     e(  5 -  6) =    -35.60507  eV     2   -->   2 G_2            
     e(  7 -  8) =    -35.60049  eV     2   -->   2 G_2            
     e(  9 - 10) =    -35.53540  eV     2   -->   2 G_2            
     e( 11 - 12) =    -35.50453  eV     2   -->   2 G_2            
     e( 13 - 14) =    -34.18049  eV     2   -->   2 G_2            
     e( 15 - 16) =    -34.17586  eV     2   -->   2 G_2            
     e( 17 - 18) =    -34.15214  eV     2   -->   2 G_2            
     e( 19 - 20) =    -34.14758  eV     2   -->   2 G_2            
     e( 21 - 22) =    -34.13659  eV     2   -->   2 G_2            
     e( 23 - 24) =    -34.13200  eV     2   -->   2 G_2            
     e( 25 - 26) =    -34.07390  eV     2   -->   2 G_2            
     e( 27 - 28) =    -34.05664  eV     2   -->   2 G_2            
     e( 29 - 30) =    -34.03334  eV     2   -->   2 G_2            
     e( 31 - 32) =    -28.28911  eV     2   -->   2 G_2            
     e( 33 - 34) =    -28.28596  eV     2   -->   2 G_2            
     e( 35 - 36) =    -28.28060  eV     2   -->   2 G_2            
     e( 37 - 38) =    -28.27750  eV     2   -->   2 G_2            
     e( 39 - 40) =    -27.04961  eV     2   -->   2 G_2            
     e( 41 - 42) =    -27.04646  eV     2   -->   2 G_2            
     e( 43 - 44) =    -27.04121  eV     2   -->   2 G_2            
     e( 45 - 46) =    -27.03811  eV     2   -->   2 G_2            
     e( 47 - 48) =    -27.03791  eV     2   -->   2 G_2            
     e( 49 - 50) =    -27.03481  eV     2   -->   2 G_2            
     e( 51 - 52) =    -10.70877  eV     2   -->   2 G_2            
     e( 53 - 54) =    -10.16908  eV     2   -->   2 G_2            
     e( 55 - 56) =     -9.09838  eV     2   -->   2 G_2            
     e( 57 - 58) =     -6.36368  eV     2   -->   2 G_2            
     e( 59 - 60) =     -5.02268  eV     2   -->   2 G_2            
     e( 61 - 62) =     -0.65117  eV     2   -->   2 G_2            
     e( 63 - 63) =     -0.25305  eV     1   --> G_2            
     e( 64 - 64) =     -0.25240  eV     1   --> G_2            
     e( 65 - 65) =      0.07164  eV     1   --> G_2            
     e( 66 - 66) =      0.07204  eV     1   --> G_2            
     e( 67 - 67) =      0.28600  eV     1   --> G_2            
     e( 68 - 68) =      0.28724  eV     1   --> G_2            
     e( 69 - 69) =      0.37474  eV     1   --> G_2            
     e( 70 - 70) =      0.37544  eV     1   --> G_2            
     e( 71 - 71) =      0.51420  eV     1   --> G_2            
     e( 72 - 72) =      0.51497  eV     1   --> G_2            
     e( 73 - 73) =      0.78991  eV     1   --> G_2            
     e( 74 - 74) =      0.79025  eV     1   --> G_2            
     e( 75 - 75) =      1.03157  eV     1   --> G_2            
     e( 76 - 76) =      1.03179  eV     1   --> G_2            
     e( 77 - 77) =      1.24574  eV     1   --> G_2            
     e( 78 - 78) =      1.24591  eV     1   --> G_2            
     e( 79 - 79) =      1.87069  eV     1   --> G_2            
     e( 80 - 80) =      1.87090  eV     1   --> G_2            
     e( 81 - 81) =      2.52223  eV     1   --> G_2            
     e( 82 - 82) =      2.52243  eV     1   --> G_2            
     e( 83 - 83) =      2.88677  eV     1   --> G_2            
     e( 84 - 84) =      2.88710  eV     1   --> G_2            
     e( 85 - 85) =      3.11251  eV     1   --> G_2            
     e( 86 - 86) =      3.11297  eV     1   --> G_2            
     e( 87 - 87) =      3.81426  eV     1   --> G_2            
     e( 88 - 88) =      3.81446  eV     1   --> G_2            
     e( 89 - 90) =      4.04175  eV     2   -->   2 G_2            
     e( 91 - 92) =      6.10267  eV     2   -->   2 G_2            
     e( 93 - 94) =      6.28356  eV     2   -->   2 G_2            
     e( 95 - 96) =      6.92344  eV     2   -->   2 G_2            
     e( 97 - 98) =      7.21501  eV     2   -->   2 G_2            
     e( 99 -100) =      7.46022  eV     2   -->   2 G_2            

 **************************************************************************

 **************************************************************************

                    xk=(   0.02143,   0.01237,   0.00000  )

     Band symmetry, C_1 (1)     double point group:

     e(  1 -  2) =    -35.63886  eV     2   -->   2 G_2            
     e(  3 -  4) =    -35.63424  eV     2   -->   2 G_2            
     e(  5 -  6) =    -35.60507  eV     2   -->   2 G_2            
     e(  7 -  8) =    -35.60049  eV     2   -->   2 G_2            
     e(  9 - 10) =    -35.53540  eV     2   -->   2 G_2            
     e( 11 - 12) =    -35.50453  eV     2   -->   2 G_2            
     e( 13 - 14) =    -34.18049  eV     2   -->   2 G_2            
     e( 15 - 16) =    -34.17585  eV     2   -->   2 G_2            
     e( 17 - 18) =    -34.15214  eV     2   -->   2 G_2            
     e( 19 - 20) =    -34.14758  eV     2   -->   2 G_2            
     e( 21 - 22) =    -34.13659  eV     2   -->   2 G_2            
     e( 23 - 24) =    -34.13201  eV     2   -->   2 G_2            
     e( 25 - 26) =    -34.07390  eV     2   -->   2 G_2            
     e( 27 - 28) =    -34.05664  eV     2   -->   2 G_2            
     e( 29 - 30) =    -34.03333  eV     2   -->   2 G_2            
     e( 31 - 32) =    -28.28911  eV     2   -->   2 G_2            
     e( 33 - 34) =    -28.28596  eV     2   -->   2 G_2            
     e( 35 - 36) =    -28.28061  eV     2   -->   2 G_2            
     e( 37 - 38) =    -28.27750  eV     2   -->   2 G_2            
     e( 39 - 40) =    -27.04960  eV     2   -->   2 G_2            
     e( 41 - 42) =    -27.04645  eV     2   -->   2 G_2            
     e( 43 - 44) =    -27.04122  eV     2   -->   2 G_2            
     e( 45 - 46) =    -27.03812  eV     2   -->   2 G_2            
     e( 47 - 48) =    -27.03791  eV     2   -->   2 G_2            
     e( 49 - 50) =    -27.03481  eV     2   -->   2 G_2            
     e( 51 - 52) =    -10.70672  eV     2   -->   2 G_2            
     e( 53 - 54) =    -10.16721  eV     2   -->   2 G_2            
     e( 55 - 56) =     -9.09729  eV     2   -->   2 G_2            
     e( 57 - 58) =     -6.36423  eV     2   -->   2 G_2            
     e( 59 - 60) =     -5.02692  eV     2   -->   2 G_2            
     e( 61 - 62) =     -0.65538  eV     2   -->   2 G_2            
     e( 63 - 63) =     -0.28201  eV     1   --> G_2            
     e( 64 - 64) =     -0.28111  eV     1   --> G_2            
     e( 65 - 65) =      0.07459  eV     1   --> G_2            
     e( 66 - 66) =      0.07509  eV     1   --> G_2            
     e( 67 - 67) =      0.25166  eV     1   --> G_2            
     e( 68 - 68) =      0.25312  eV     1   --> G_2            
     e( 69 - 69) =      0.36562  eV     1   --> G_2            
     e( 70 - 70) =      0.36642  eV     1   --> G_2            
     e( 71 - 71) =      0.53468  eV     1   --> G_2            
     e( 72 - 72) =      0.53554  eV     1   --> G_2            
     e( 73 - 73) =      0.79934  eV     1   --> G_2            
     e( 74 - 74) =      0.79982  eV     1   --> G_2            
     e( 75 - 75) =      1.02188  eV     1   --> G_2            
     e( 76 - 76) =      1.02220  eV     1   --> G_2            
     e( 77 - 77) =      1.25640  eV     1   --> G_2            
     e( 78 - 78) =      1.25668  eV     1   --> G_2            
     e( 79 - 79) =      1.90072  eV     1   --> G_2            
     e( 80 - 80) =      1.90102  eV     1   --> G_2            
     e( 81 - 81) =      2.51550  eV     1   --> G_2            
     e( 82 - 82) =      2.51577  eV     1   --> G_2            
     e( 83 - 83) =      2.86788  eV     1   --> G_2            
     e( 84 - 84) =      2.86829  eV     1   --> G_2            
     e( 85 - 85) =      3.14072  eV     1   --> G_2            
     e( 86 - 86) =      3.14131  eV     1   --> G_2            
     e( 87 - 87) =      3.82309  eV     1   --> G_2            
     e( 88 - 88) =      3.82339  eV     1   --> G_2            
     e( 89 - 90) =      4.04076  eV     2   -->   2 G_2            
     e( 91 - 92) =      6.10635  eV     2   -->   2 G_2            
     e( 93 - 94) =      6.28395  eV     2   -->   2 G_2            
     e( 95 - 96) =      6.92402  eV     2   -->   2 G_2            
     e( 97 - 98) =      7.20482  eV     2   -->   2 G_2            
     e( 99 -100) =      7.45930  eV     2   -->   2 G_2            

 **************************************************************************

 **************************************************************************

                    xk=(   0.02857,   0.01650,   0.00000  )

     Band symmetry, C_1 (1)     double point group:

     e(  1 -  2) =    -35.63885  eV     2   -->   2 G_2            
     e(  3 -  4) =    -35.63424  eV     2   -->   2 G_2            
     e(  5 -  6) =    -35.60507  eV     2   -->   2 G_2            
     e(  7 -  8) =    -35.60049  eV     2   -->   2 G_2            
     e(  9 - 10) =    -35.53540  eV     2   -->   2 G_2            
     e( 11 - 12) =    -35.50453  eV     2   -->   2 G_2            
     e( 13 - 14) =    -34.18049  eV     2   -->   2 G_2            
     e( 15 - 16) =    -34.17585  eV     2   -->   2 G_2            
     e( 17 - 18) =    -34.15214  eV     2   -->   2 G_2            
     e( 19 - 20) =    -34.14758  eV     2   -->   2 G_2            
     e( 21 - 22) =    -34.13659  eV     2   -->   2 G_2            
     e( 23 - 24) =    -34.13200  eV     2   -->   2 G_2            
     e( 25 - 26) =    -34.07390  eV     2   -->   2 G_2            
     e( 27 - 28) =    -34.05664  eV     2   -->   2 G_2            
     e( 29 - 30) =    -34.03333  eV     2   -->   2 G_2            
     e( 31 - 32) =    -28.28911  eV     2   -->   2 G_2            
     e( 33 - 34) =    -28.28596  eV     2   -->   2 G_2            
     e( 35 - 36) =    -28.28061  eV     2   -->   2 G_2            
     e( 37 - 38) =    -28.27751  eV     2   -->   2 G_2            
     e( 39 - 40) =    -27.04960  eV     2   -->   2 G_2            
     e( 41 - 42) =    -27.04645  eV     2   -->   2 G_2            
     e( 43 - 44) =    -27.04122  eV     2   -->   2 G_2            
     e( 45 - 46) =    -27.03813  eV     2   -->   2 G_2            
     e( 47 - 48) =    -27.03791  eV     2   -->   2 G_2            
     e( 49 - 50) =    -27.03481  eV     2   -->   2 G_2            
     e( 51 - 52) =    -10.70383  eV     2   -->   2 G_2            
     e( 53 - 54) =    -10.16458  eV     2   -->   2 G_2            
     e( 55 - 56) =     -9.09576  eV     2   -->   2 G_2            
     e( 57 - 58) =     -6.36497  eV     2   -->   2 G_2            
     e( 59 - 60) =     -5.03279  eV     2   -->   2 G_2            
     e( 61 - 62) =     -0.66131  eV     2   -->   2 G_2            
     e( 63 - 63) =     -0.31931  eV     1   --> G_2            
     e( 64 - 64) =     -0.31821  eV     1   --> G_2            
     e( 65 - 65) =      0.07578  eV     1   --> G_2            
     e( 66 - 66) =      0.07628  eV     1   --> G_2            
     e( 67 - 67) =      0.21112  eV     1   --> G_2            
     e( 68 - 68) =      0.21261  eV     1   --> G_2            
     e( 69 - 69) =      0.35852  eV     1   --> G_2            
     e( 70 - 70) =      0.35935  eV     1   --> G_2            
     e( 71 - 71) =      0.55040  eV     1   --> G_2            
     e( 72 - 72) =      0.55128  eV     1   --> G_2            
     e( 73 - 73) =      0.81042  eV     1   --> G_2            
     e( 74 - 74) =      0.81103  eV     1   --> G_2            
     e( 75 - 75) =      1.01141  eV     1   --> G_2            
     e( 76 - 76) =      1.01183  eV     1   --> G_2            
     e( 77 - 77) =      1.27341  eV     1   --> G_2            
     e( 78 - 78) =      1.27380  eV     1   --> G_2            
     e( 79 - 79) =      1.93875  eV     1   --> G_2            
     e( 80 - 80) =      1.93914  eV     1   --> G_2            
     e( 81 - 81) =      2.50605  eV     1   --> G_2            
     e( 82 - 82) =      2.50637  eV     1   --> G_2            
     e( 83 - 83) =      2.85087  eV     1   --> G_2            
     e( 84 - 84) =      2.85130  eV     1   --> G_2            
     e( 85 - 85) =      3.17173  eV     1   --> G_2            
     e( 86 - 86) =      3.17241  eV     1   --> G_2            
     e( 87 - 87) =      3.83496  eV     1   --> G_2            
     e( 88 - 88) =      3.83537  eV     1   --> G_2            
     e( 89 - 90) =      4.03996  eV     2   -->   2 G_2            
     e( 91 - 92) =      6.11146  eV     2   -->   2 G_2            
     e( 93 - 94) =      6.28446  eV     2   -->   2 G_2            
     e( 95 - 96) =      6.92456  eV     2   -->   2 G_2            
     e( 97 - 98) =      7.19101  eV     2   -->   2 G_2            
     e( 99 -100) =      7.45831  eV     2   -->   2 G_2            

 **************************************************************************

 **************************************************************************

                    xk=(   0.03571,   0.02062,   0.00000  )

     Band symmetry, C_1 (1)     double point group:

     e(  1 -  2) =    -35.63885  eV     2   -->   2 G_2            
     e(  3 -  4) =    -35.63424  eV     2   -->   2 G_2            
     e(  5 -  6) =    -35.60507  eV     2   -->   2 G_2            
     e(  7 -  8) =    -35.60050  eV     2   -->   2 G_2            
     e(  9 - 10) =    -35.53540  eV     2   -->   2 G_2            
     e( 11 - 12) =    -35.50453  eV     2   -->   2 G_2            
     e( 13 - 14) =    -34.18048  eV     2   -->   2 G_2            
     e( 15 - 16) =    -34.17585  eV     2   -->   2 G_2            
     e( 17 - 18) =    -34.15214  eV     2   -->   2 G_2            
     e( 19 - 20) =    -34.14758  eV     2   -->   2 G_2            
     e( 21 - 22) =    -34.13659  eV     2   -->   2 G_2            
     e( 23 - 24) =    -34.13200  eV     2   -->   2 G_2            
     e( 25 - 26) =    -34.07390  eV     2   -->   2 G_2            
     e( 27 - 28) =    -34.05664  eV     2   -->   2 G_2            
     e( 29 - 30) =    -34.03333  eV     2   -->   2 G_2            
     e( 31 - 32) =    -28.28911  eV     2   -->   2 G_2            
     e( 33 - 34) =    -28.28596  eV     2   -->   2 G_2            
     e( 35 - 36) =    -28.28061  eV     2   -->   2 G_2            
     e( 37 - 38) =    -28.27751  eV     2   -->   2 G_2            
     e( 39 - 40) =    -27.04959  eV     2   -->   2 G_2            
     e( 41 - 42) =    -27.04645  eV     2   -->   2 G_2            
     e( 43 - 44) =    -27.04123  eV     2   -->   2 G_2            
     e( 45 - 46) =    -27.03814  eV     2   -->   2 G_2            
     e( 47 - 48) =    -27.03791  eV     2   -->   2 G_2            
     e( 49 - 50) =    -27.03481  eV     2   -->   2 G_2            
     e( 51 - 52) =    -10.70012  eV     2   -->   2 G_2            
     e( 53 - 54) =    -10.16124  eV     2   -->   2 G_2            
     e( 55 - 56) =     -9.09382  eV     2   -->   2 G_2            
     e( 57 - 58) =     -6.36596  eV     2   -->   2 G_2            
     e( 59 - 60) =     -5.04035  eV     2   -->   2 G_2            
     e( 61 - 62) =     -0.66900  eV     2   -->   2 G_2            
     e( 63 - 63) =     -0.36319  eV     1   --> G_2            
     e( 64 - 64) =     -0.36191  eV     1   --> G_2            
     e( 65 - 65) =      0.07353  eV     1   --> G_2            
     e( 66 - 66) =      0.07393  eV     1   --> G_2            
     e( 67 - 67) =      0.16829  eV     1   --> G_2            
     e( 68 - 68) =      0.16968  eV     1   --> G_2            
     e( 69 - 69) =      0.35166  eV     1   --> G_2            
     e( 70 - 70) =      0.35252  eV     1   --> G_2            
     e( 71 - 71) =      0.55965  eV     1   --> G_2            
     e( 72 - 72) =      0.56050  eV     1   --> G_2            
     e( 73 - 73) =      0.82031  eV     1   --> G_2            
     e( 74 - 74) =      0.82098  eV     1   --> G_2            
     e( 75 - 75) =      1.00465  eV     1   --> G_2            
     e( 76 - 76) =      1.00513  eV     1   --> G_2            
     e( 77 - 77) =      1.29645  eV     1   --> G_2            
     e( 78 - 78) =      1.29693  eV     1   --> G_2            
     e( 79 - 79) =      1.98194  eV     1   --> G_2            
     e( 80 - 80) =      1.98242  eV     1   --> G_2            
     e( 81 - 81) =      2.49449  eV     1   --> G_2            
     e( 82 - 82) =      2.49482  eV     1   --> G_2            
     e( 83 - 83) =      2.83844  eV     1   --> G_2            
     e( 84 - 84) =      2.83886  eV     1   --> G_2            
     e( 85 - 85) =      3.20322  eV     1   --> G_2            
     e( 86 - 86) =      3.20399  eV     1   --> G_2            
     e( 87 - 87) =      3.84927  eV     1   --> G_2            
     e( 88 - 88) =      3.84978  eV     1   --> G_2            
     e( 89 - 90) =      4.04002  eV     2   -->   2 G_2            
     e( 91 - 92) =      6.11798  eV     2   -->   2 G_2            
     e( 93 - 94) =      6.28506  eV     2   -->   2 G_2            
     e( 95 - 96) =      6.92471  eV     2   -->   2 G_2            
     e( 97 - 98) =      7.17415  eV     2   -->   2 G_2            
     e( 99 -100) =      7.45743  eV     2   -->   2 G_2            

 **************************************************************************

 **************************************************************************

                    xk=(   0.04286,   0.02474,   0.00000  )

     Band symmetry, C_1 (1)     double point group:

     e(  1 -  2) =    -35.63885  eV     2   -->   2 G_2            
     e(  3 -  4) =    -35.63423  eV     2   -->   2 G_2            
     e(  5 -  6) =    -35.60507  eV     2   -->   2 G_2            
     e(  7 -  8) =    -35.60050  eV     2   -->   2 G_2            
     e(  9 - 10) =    -35.53540  eV     2   -->   2 G_2            
     e( 11 - 12) =    -35.50453  eV     2   -->   2 G_2            
     e( 13 - 14) =    -34.18048  eV     2   -->   2 G_2            
     e( 15 - 16) =    -34.17585  eV     2   -->   2 G_2            
     e( 17 - 18) =    -34.15214  eV     2   -->   2 G_2            
     e( 19 - 20) =    -34.14758  eV     2   -->   2 G_2            
     e( 21 - 22) =    -34.13659  eV     2   -->   2 G_2            
     e( 23 - 24) =    -34.13200  eV     2   -->   2 G_2            
     e( 25 - 26) =    -34.07390  eV     2   -->   2 G_2            
     e( 27 - 28) =    -34.05664  eV     2   -->   2 G_2            
     e( 29 - 30) =    -34.03333  eV     2   -->   2 G_2            
     e( 31 - 32) =    -28.28910  eV     2   -->   2 G_2            
     e( 33 - 34) =    -28.28596  eV     2   -->   2 G_2            
     e( 35 - 36) =    -28.28061  eV     2   -->   2 G_2            
     e( 37 - 38) =    -28.27751  eV     2   -->   2 G_2            
     e( 39 - 40) =    -27.04959  eV     2   -->   2 G_2            
     e( 41 - 42) =    -27.04644  eV     2   -->   2 G_2            
     e( 43 - 44) =    -27.04124  eV     2   -->   2 G_2            
     e( 45 - 46) =    -27.03815  eV     2   -->   2 G_2            
     e( 47 - 48) =    -27.03791  eV     2   -->   2 G_2            
     e( 49 - 50) =    -27.03481  eV     2   -->   2 G_2            
     e( 51 - 52) =    -10.69561  eV     2   -->   2 G_2            
     e( 53 - 54) =    -10.15714  eV     2   -->   2 G_2            
     e( 55 - 56) =     -9.09144  eV     2   -->   2 G_2            
     e( 57 - 58) =     -6.36720  eV     2   -->   2 G_2            
     e( 59 - 60) =     -5.04961  eV     2   -->   2 G_2            
     e( 61 - 61) =     -0.67856  eV     1   --> G_2            
     e( 62 - 62) =     -0.67843  eV     1   --> G_2            
     e( 63 - 63) =     -0.41219  eV     1   --> G_2            
     e( 64 - 64) =     -0.41075  eV     1   --> G_2            
     e( 65 - 65) =      0.06567  eV     1   --> G_2            
     e( 66 - 66) =      0.06600  eV     1   --> G_2            
     e( 67 - 67) =      0.12641  eV     1   --> G_2            
     e( 68 - 68) =      0.12753  eV     1   --> G_2            
     e( 69 - 69) =      0.34387  eV     1   --> G_2            
     e( 70 - 70) =      0.34478  eV     1   --> G_2            
     e( 71 - 71) =      0.56182  eV     1   --> G_2            
     e( 72 - 72) =      0.56263  eV     1   --> G_2            
     e( 73 - 73) =      0.82615  eV     1   --> G_2            
     e( 74 - 74) =      0.82681  eV     1   --> G_2            
     e( 75 - 75) =      1.00632  eV     1   --> G_2            
     e( 76 - 76) =      1.00679  eV     1   --> G_2            
     e( 77 - 77) =      1.32426  eV     1   --> G_2            
     e( 78 - 78) =      1.32481  eV     1   --> G_2            
     e( 79 - 79) =      2.02737  eV     1   --> G_2            
     e( 80 - 80) =      2.02794  eV     1   --> G_2            
     e( 81 - 81) =      2.48233  eV     1   --> G_2            
     e( 82 - 82) =      2.48262  eV     1   --> G_2            
     e( 83 - 83) =      2.83189  eV     1   --> G_2            
     e( 84 - 84) =      2.83229  eV     1   --> G_2            
     e( 85 - 85) =      3.23395  eV     1   --> G_2            
     e( 86 - 86) =      3.23479  eV     1   --> G_2            
     e( 87 - 87) =      3.86504  eV     1   --> G_2            
     e( 88 - 88) =      3.86567  eV     1   --> G_2            
     e( 89 - 89) =      4.04191  eV     1   --> G_2            
     e( 90 - 90) =      4.04204  eV     1   --> G_2            
     e( 91 - 92) =      6.12588  eV     2   -->   2 G_2            
     e( 93 - 94) =      6.28572  eV     2   -->   2 G_2            
     e( 95 - 96) =      6.92396  eV     2   -->   2 G_2            
     e( 97 - 98) =      7.15514  eV     2   -->   2 G_2            
     e( 99 -100) =      7.45682  eV     2   -->   2 G_2            

 **************************************************************************

 **************************************************************************

                    xk=(   0.05000,   0.02887,   0.00000  )

     Band symmetry, C_1 (1)     double point group:

     e(  1 -  2) =    -35.63885  eV     2   -->   2 G_2            
     e(  3 -  4) =    -35.63423  eV     2   -->   2 G_2            
     e(  5 -  6) =    -35.60507  eV     2   -->   2 G_2            
     e(  7 -  8) =    -35.60050  eV     2   -->   2 G_2            
     e(  9 - 10) =    -35.53540  eV     2   -->   2 G_2            
     e( 11 - 12) =    -35.50453  eV     2   -->   2 G_2            
     e( 13 - 14) =    -34.18048  eV     2   -->   2 G_2            
     e( 15 - 16) =    -34.17584  eV     2   -->   2 G_2            
     e( 17 - 18) =    -34.15214  eV     2   -->   2 G_2            
     e( 19 - 20) =    -34.14758  eV     2   -->   2 G_2            
     e( 21 - 22) =    -34.13659  eV     2   -->   2 G_2            
     e( 23 - 24) =    -34.13200  eV     2   -->   2 G_2            
     e( 25 - 26) =    -34.07389  eV     2   -->   2 G_2            
     e( 27 - 28) =    -34.05664  eV     2   -->   2 G_2            
     e( 29 - 30) =    -34.03332  eV     2   -->   2 G_2            
     e( 31 - 32) =    -28.28910  eV     2   -->   2 G_2            
     e( 33 - 34) =    -28.28596  eV     2   -->   2 G_2            
     e( 35 - 36) =    -28.28062  eV     2   -->   2 G_2            
     e( 37 - 38) =    -28.27751  eV     2   -->   2 G_2            
     e( 39 - 40) =    -27.04958  eV     2   -->   2 G_2            
     e( 41 - 42) =    -27.04643  eV     2   -->   2 G_2            
     e( 43 - 44) =    -27.04125  eV     2   -->   2 G_2            
     e( 45 - 46) =    -27.03816  eV     2   -->   2 G_2            
     e( 47 - 48) =    -27.03791  eV     2   -->   2 G_2            
     e( 49 - 50) =    -27.03482  eV     2   -->   2 G_2            
     e( 51 - 52) =    -10.69027  eV     2   -->   2 G_2            
     e( 53 - 54) =    -10.15229  eV     2   -->   2 G_2            
     e( 55 - 56) =     -9.08865  eV     2   -->   2 G_2            
     e( 57 - 58) =     -6.36866  eV     2   -->   2 G_2            
     e( 59 - 60) =     -5.06050  eV     2   -->   2 G_2            
     e( 61 - 61) =     -0.69016  eV     1   --> G_2            
     e( 62 - 62) =     -0.68995  eV     1   --> G_2            
     e( 63 - 63) =     -0.46508  eV     1   --> G_2            
     e( 64 - 64) =     -0.46346  eV     1   --> G_2            
     e( 65 - 65) =      0.04654  eV     1   --> G_2            
     e( 66 - 66) =      0.04768  eV     1   --> G_2            
     e( 67 - 67) =      0.09135  eV     1   --> G_2            
     e( 68 - 68) =      0.09223  eV     1   --> G_2            
     e( 69 - 69) =      0.33422  eV     1   --> G_2            
     e( 70 - 70) =      0.33524  eV     1   --> G_2            
     e( 71 - 71) =      0.55686  eV     1   --> G_2            
     e( 72 - 72) =      0.55763  eV     1   --> G_2            
     e( 73 - 73) =      0.82755  eV     1   --> G_2            
     e( 74 - 74) =      0.82810  eV     1   --> G_2            
     e( 75 - 75) =      1.01849  eV     1   --> G_2            
     e( 76 - 76) =      1.01887  eV     1   --> G_2            
     e( 77 - 77) =      1.35510  eV     1   --> G_2            
     e( 78 - 78) =      1.35570  eV     1   --> G_2            
     e( 79 - 79) =      2.07198  eV     1   --> G_2            
     e( 80 - 80) =      2.07265  eV     1   --> G_2            
     e( 81 - 81) =      2.47221  eV     1   --> G_2            
     e( 82 - 82) =      2.47242  eV     1   --> G_2            
     e( 83 - 83) =      2.83157  eV     1   --> G_2            
     e( 84 - 84) =      2.83191  eV     1   --> G_2            
     e( 85 - 85) =      3.26322  eV     1   --> G_2            
     e( 86 - 86) =      3.26413  eV     1   --> G_2            
     e( 87 - 87) =      3.88095  eV     1   --> G_2            
     e( 88 - 88) =      3.88170  eV     1   --> G_2            
     e( 89 - 89) =      4.04695  eV     1   --> G_2            
     e( 90 - 90) =      4.04713  eV     1   --> G_2            
     e( 91 - 91) =      6.13510  eV     1   --> G_2            
     e( 92 - 92) =      6.13521  eV     1   --> G_2            
     e( 93 - 93) =      6.28638  eV     1   --> G_2            
     e( 94 - 94) =      6.28648  eV     1   --> G_2            
     e( 95 - 96) =      6.92152  eV     2   -->   2 G_2            
     e( 97 - 97) =      7.13527  eV     1   --> G_2            
     e( 98 - 98) =      7.13537  eV     1   --> G_2            
     e( 99 -100) =      7.45657  eV     2   -->   2 G_2            

 **************************************************************************

 **************************************************************************

                    xk=(   0.05714,   0.03299,   0.00000  )

     Band symmetry, C_1 (1)     double point group:

     e(  1 -  2) =    -35.63885  eV     2   -->   2 G_2            
     e(  3 -  4) =    -35.63423  eV     2   -->   2 G_2            
     e(  5 -  6) =    -35.60507  eV     2   -->   2 G_2            
     e(  7 -  8) =    -35.60049  eV     2   -->   2 G_2            
     e(  9 - 10) =    -35.53540  eV     2   -->   2 G_2            
     e( 11 - 12) =    -35.50452  eV     2   -->   2 G_2            
     e( 13 - 14) =    -34.18047  eV     2   -->   2 G_2            
     e( 15 - 16) =    -34.17584  eV     2   -->   2 G_2            
     e( 17 - 18) =    -34.15214  eV     2   -->   2 G_2            
     e( 19 - 20) =    -34.14758  eV     2   -->   2 G_2            
     e( 21 - 22) =    -34.13659  eV     2   -->   2 G_2            
     e( 23 - 24) =    -34.13200  eV     2   -->   2 G_2            
     e( 25 - 26) =    -34.07389  eV     2   -->   2 G_2            
     e( 27 - 28) =    -34.05664  eV     2   -->   2 G_2            
     e( 29 - 30) =    -34.03332  eV     2   -->   2 G_2            
     e( 31 - 32) =    -28.28910  eV     2   -->   2 G_2            
     e( 33 - 34) =    -28.28596  eV     2   -->   2 G_2            
     e( 35 - 36) =    -28.28062  eV     2   -->   2 G_2            
     e( 37 - 38) =    -28.27752  eV     2   -->   2 G_2            
     e( 39 - 40) =    -27.04957  eV     2   -->   2 G_2            
     e( 41 - 42) =    -27.04642  eV     2   -->   2 G_2            
     e( 43 - 44) =    -27.04125  eV     2   -->   2 G_2            
     e( 45 - 45) =    -27.03817  eV     1   --> G_2            
     e( 46 - 46) =    -27.03806  eV     1   --> G_2            
     e( 47 - 48) =    -27.03791  eV     2   -->   2 G_2            
     e( 49 - 50) =    -27.03482  eV     2   -->   2 G_2            
     e( 51 - 52) =    -10.68411  eV     2   -->   2 G_2            
     e( 53 - 54) =    -10.14673  eV     2   -->   2 G_2            
     e( 55 - 56) =     -9.08544  eV     2   -->   2 G_2            
     e( 57 - 58) =     -6.37041  eV     2   -->   2 G_2            
     e( 59 - 60) =     -5.07305  eV     2   -->   2 G_2            
     e( 61 - 61) =     -0.70418  eV     1   --> G_2            
     e( 62 - 62) =     -0.70382  eV     1   --> G_2            
     e( 63 - 63) =     -0.52060  eV     1   --> G_2            
     e( 64 - 64) =     -0.51877  eV     1   --> G_2            
     e( 65 - 65) =      0.01166  eV     1   --> G_2            
     e( 66 - 66) =      0.01338  eV     1   --> G_2            
     e( 67 - 67) =      0.06858  eV     1   --> G_2            
     e( 68 - 68) =      0.06962  eV     1   --> G_2            
     e( 69 - 69) =      0.32186  eV     1   --> G_2            
     e( 70 - 70) =      0.32304  eV     1   --> G_2            
     e( 71 - 71) =      0.54531  eV     1   --> G_2            
     e( 72 - 72) =      0.54604  eV     1   --> G_2            
     e( 73 - 73) =      0.82698  eV     1   --> G_2            
     e( 74 - 74) =      0.82741  eV     1   --> G_2            
     e( 75 - 75) =      1.03955  eV     1   --> G_2            
     e( 76 - 76) =      1.03984  eV     1   --> G_2            
     e( 77 - 77) =      1.38697  eV     1   --> G_2            
     e( 78 - 78) =      1.38761  eV     1   --> G_2            
     e( 79 - 79) =      2.11246  eV     1   --> G_2            
     e( 80 - 80) =      2.11323  eV     1   --> G_2            
     e( 81 - 81) =      2.46779  eV     1   --> G_2            
     e( 82 - 82) =      2.46792  eV     1   --> G_2            
     e( 83 - 83) =      2.83724  eV     1   --> G_2            
     e( 84 - 84) =      2.83752  eV     1   --> G_2            
     e( 85 - 85) =      3.29072  eV     1   --> G_2            
     e( 86 - 86) =      3.29168  eV     1   --> G_2            
     e( 87 - 87) =      3.89546  eV     1   --> G_2            
     e( 88 - 88) =      3.89633  eV     1   --> G_2            
     e( 89 - 89) =      4.05664  eV     1   --> G_2            
     e( 90 - 90) =      4.05688  eV     1   --> G_2            
     e( 91 - 91) =      6.14561  eV     1   --> G_2            
     e( 92 - 92) =      6.14573  eV     1   --> G_2            
     e( 93 - 93) =      6.28695  eV     1   --> G_2            
     e( 94 - 94) =      6.28707  eV     1   --> G_2            
     e( 95 - 96) =      6.91633  eV     2   -->   2 G_2            
     e( 97 - 97) =      7.11618  eV     1   --> G_2            
     e( 98 - 98) =      7.11630  eV     1   --> G_2            
     e( 99 -100) =      7.45674  eV     2   -->   2 G_2            

 **************************************************************************

 **************************************************************************

                    xk=(   0.06429,   0.03712,   0.00000  )

     Band symmetry, C_1 (1)     double point group:

     e(  1 -  2) =    -35.63884  eV     2   -->   2 G_2            
     e(  3 -  4) =    -35.63423  eV     2   -->   2 G_2            
     e(  5 -  6) =    -35.60507  eV     2   -->   2 G_2            
     e(  7 -  8) =    -35.60049  eV     2   -->   2 G_2            
     e(  9 - 10) =    -35.53540  eV     2   -->   2 G_2            
     e( 11 - 12) =    -35.50452  eV     2   -->   2 G_2            
     e( 13 - 14) =    -34.18047  eV     2   -->   2 G_2            
     e( 15 - 16) =    -34.17583  eV     2   -->   2 G_2            
     e( 17 - 18) =    -34.15214  eV     2   -->   2 G_2            
     e( 19 - 20) =    -34.14758  eV     2   -->   2 G_2            
     e( 21 - 22) =    -34.13658  eV     2   -->   2 G_2            
     e( 23 - 24) =    -34.13200  eV     2   -->   2 G_2            
     e( 25 - 26) =    -34.07389  eV     2   -->   2 G_2            
     e( 27 - 28) =    -34.05664  eV     2   -->   2 G_2            
     e( 29 - 30) =    -34.03332  eV     2   -->   2 G_2            
     e( 31 - 32) =    -28.28910  eV     2   -->   2 G_2            
     e( 33 - 34) =    -28.28596  eV     2   -->   2 G_2            
     e( 35 - 36) =    -28.28062  eV     2   -->   2 G_2            
     e( 37 - 38) =    -28.27752  eV     2   -->   2 G_2            
     e( 39 - 40) =    -27.04956  eV     2   -->   2 G_2            
     e( 41 - 42) =    -27.04642  eV     2   -->   2 G_2            
     e( 43 - 44) =    -27.04126  eV     2   -->   2 G_2            
     e( 45 - 45) =    -27.03818  eV     1   --> G_2            
     e( 46 - 46) =    -27.03806  eV     1   --> G_2            
     e( 47 - 48) =    -27.03790  eV     2   -->   2 G_2            
     e( 49 - 50) =    -27.03482  eV     2   -->   2 G_2            
     e( 51 - 52) =    -10.67714  eV     2   -->   2 G_2            
     e( 53 - 54) =    -10.14042  eV     2   -->   2 G_2            
     e( 55 - 56) =     -9.08183  eV     2   -->   2 G_2            
     e( 57 - 58) =     -6.37241  eV     2   -->   2 G_2            
     e( 59 - 60) =     -5.08725  eV     2   -->   2 G_2            
     e( 61 - 61) =     -0.72148  eV     1   --> G_2            
     e( 62 - 62) =     -0.72088  eV     1   --> G_2            
     e( 63 - 63) =     -0.57718  eV     1   --> G_2            
     e( 64 - 64) =     -0.57506  eV     1   --> G_2            
     e( 65 - 65) =     -0.03127  eV     1   --> G_2            
     e( 66 - 66) =     -0.02950  eV     1   --> G_2            
     e( 67 - 67) =      0.05144  eV     1   --> G_2            
     e( 68 - 68) =      0.05242  eV     1   --> G_2            
     e( 69 - 69) =      0.30604  eV     1   --> G_2            
     e( 70 - 70) =      0.30741  eV     1   --> G_2            
     e( 71 - 71) =      0.52848  eV     1   --> G_2            
     e( 72 - 72) =      0.52920  eV     1   --> G_2            
     e( 73 - 73) =      0.82733  eV     1   --> G_2            
     e( 74 - 74) =      0.82766  eV     1   --> G_2            
     e( 75 - 75) =      1.06653  eV     1   --> G_2            
     e( 76 - 76) =      1.06678  eV     1   --> G_2            
     e( 77 - 77) =      1.41780  eV     1   --> G_2            
     e( 78 - 78) =      1.41845  eV     1   --> G_2            
     e( 79 - 79) =      2.14574  eV     1   --> G_2            
     e( 80 - 80) =      2.14660  eV     1   --> G_2            
     e( 81 - 81) =      2.47299  eV     1   --> G_2            
     e( 82 - 82) =      2.47319  eV     1   --> G_2            
     e( 83 - 83) =      2.84840  eV     1   --> G_2            
     e( 84 - 84) =      2.84860  eV     1   --> G_2            
     e( 85 - 85) =      3.31636  eV     1   --> G_2            
     e( 86 - 86) =      3.31738  eV     1   --> G_2            
     e( 87 - 87) =      3.90733  eV     1   --> G_2            
     e( 88 - 88) =      3.90829  eV     1   --> G_2            
     e( 89 - 89) =      4.07216  eV     1   --> G_2            
     e( 90 - 90) =      4.07246  eV     1   --> G_2            
     e( 91 - 91) =      6.15733  eV     1   --> G_2            
     e( 92 - 92) =      6.15748  eV     1   --> G_2            
     e( 93 - 93) =      6.28734  eV     1   --> G_2            
     e( 94 - 94) =      6.28748  eV     1   --> G_2            
     e( 95 - 95) =      6.90714  eV     1   --> G_2            
     e( 96 - 96) =      6.90725  eV     1   --> G_2            
     e( 97 - 97) =      7.09976  eV     1   --> G_2            
     e( 98 - 98) =      7.09989  eV     1   --> G_2            
     e( 99 -100) =      7.45737  eV     2   -->   2 G_2            

 **************************************************************************

 **************************************************************************

                    xk=(   0.07143,   0.04124,   0.00000  )

     Band symmetry, C_1 (1)     double point group:

     e(  1 -  2) =    -35.63884  eV     2   -->   2 G_2            
     e(  3 -  4) =    -35.63422  eV     2   -->   2 G_2            
     e(  5 -  6) =    -35.60507  eV     2   -->   2 G_2            
     e(  7 -  8) =    -35.60049  eV     2   -->   2 G_2            
     e(  9 - 10) =    -35.53540  eV     2   -->   2 G_2            
     e( 11 - 12) =    -35.50452  eV     2   -->   2 G_2            
     e( 13 - 14) =    -34.18046  eV     2   -->   2 G_2            
     e( 15 - 16) =    -34.17583  eV     2   -->   2 G_2            
     e( 17 - 18) =    -34.15214  eV     2   -->   2 G_2            
     e( 19 - 20) =    -34.14758  eV     2   -->   2 G_2            
     e( 21 - 22) =    -34.13658  eV     2   -->   2 G_2            
     e( 23 - 24) =    -34.13200  eV     2   -->   2 G_2            
     e( 25 - 26) =    -34.07389  eV     2   -->   2 G_2            
     e( 27 - 28) =    -34.05664  eV     2   -->   2 G_2            
     e( 29 - 30) =    -34.03331  eV     2   -->   2 G_2            
     e( 31 - 32) =    -28.28910  eV     2   -->   2 G_2            
     e( 33 - 34) =    -28.28595  eV     2   -->   2 G_2            
     e( 35 - 36) =    -28.28062  eV     2   -->   2 G_2            
     e( 37 - 38) =    -28.27752  eV     2   -->   2 G_2            
     e( 39 - 40) =    -27.04955  eV     2   -->   2 G_2            
     e( 41 - 42) =    -27.04640  eV     2   -->   2 G_2            
     e( 43 - 43) =    -27.04127  eV     1   --> G_2            
     e( 44 - 44) =    -27.04117  eV     1   --> G_2            
     e( 45 - 45) =    -27.03819  eV     1   --> G_2            
     e( 46 - 46) =    -27.03806  eV     1   --> G_2            
     e( 47 - 48) =    -27.03790  eV     2   -->   2 G_2            
     e( 49 - 50) =    -27.03482  eV     2   -->   2 G_2            
     e( 51 - 52) =    -10.66935  eV     2   -->   2 G_2            
     e( 53 - 54) =    -10.13338  eV     2   -->   2 G_2            
     e( 55 - 56) =     -9.07781  eV     2   -->   2 G_2            
     e( 57 - 58) =     -6.37472  eV     2   -->   2 G_2            
     e( 59 - 60) =     -5.10304  eV     2   -->   2 G_2            
     e( 61 - 61) =     -0.74408  eV     1   --> G_2            
     e( 62 - 62) =     -0.74314  eV     1   --> G_2            
     e( 63 - 63) =     -0.63215  eV     1   --> G_2            
     e( 64 - 64) =     -0.62967  eV     1   --> G_2            
     e( 65 - 65) =     -0.07676  eV     1   --> G_2            
     e( 66 - 66) =     -0.07505  eV     1   --> G_2            
     e( 67 - 67) =      0.03456  eV     1   --> G_2            
     e( 68 - 68) =      0.03545  eV     1   --> G_2            
     e( 69 - 69) =      0.28614  eV     1   --> G_2            
     e( 70 - 70) =      0.28773  eV     1   --> G_2            
     e( 71 - 71) =      0.50833  eV     1   --> G_2            
     e( 72 - 72) =      0.50909  eV     1   --> G_2            
     e( 73 - 73) =      0.83001  eV     1   --> G_2            
     e( 74 - 74) =      0.83030  eV     1   --> G_2            
     e( 75 - 75) =      1.09696  eV     1   --> G_2            
     e( 76 - 76) =      1.09725  eV     1   --> G_2            
     e( 77 - 77) =      1.44540  eV     1   --> G_2            
     e( 78 - 78) =      1.44607  eV     1   --> G_2            
     e( 79 - 79) =      2.17040  eV     1   --> G_2            
     e( 80 - 80) =      2.17132  eV     1   --> G_2            
     e( 81 - 81) =      2.49047  eV     1   --> G_2            
     e( 82 - 82) =      2.49082  eV     1   --> G_2            
     e( 83 - 83) =      2.86449  eV     1   --> G_2            
     e( 84 - 84) =      2.86461  eV     1   --> G_2            
     e( 85 - 85) =      3.34027  eV     1   --> G_2            
     e( 86 - 86) =      3.34133  eV     1   --> G_2            
     e( 87 - 87) =      3.91627  eV     1   --> G_2            
     e( 88 - 88) =      3.91729  eV     1   --> G_2            
     e( 89 - 89) =      4.09374  eV     1   --> G_2            
     e( 90 - 90) =      4.09407  eV     1   --> G_2            
     e( 91 - 91) =      6.17021  eV     1   --> G_2            
     e( 92 - 92) =      6.17039  eV     1   --> G_2            
     e( 93 - 93) =      6.28742  eV     1   --> G_2            
     e( 94 - 94) =      6.28758  eV     1   --> G_2            
     e( 95 - 95) =      6.89296  eV     1   --> G_2            
     e( 96 - 96) =      6.89308  eV     1   --> G_2            
     e( 97 - 97) =      7.08763  eV     1   --> G_2            
     e( 98 - 98) =      7.08777  eV     1   --> G_2            
     e( 99 -100) =      7.45849  eV     2   -->   2 G_2            

 **************************************************************************

 **************************************************************************

                    xk=(   0.07857,   0.04536,   0.00000  )

     Band symmetry, C_1 (1)     double point group:

     e(  1 -  2) =    -35.63884  eV     2   -->   2 G_2            
     e(  3 -  4) =    -35.63422  eV     2   -->   2 G_2            
     e(  5 -  6) =    -35.60507  eV     2   -->   2 G_2            
     e(  7 -  8) =    -35.60049  eV     2   -->   2 G_2            
     e(  9 - 10) =    -35.53540  eV     2   -->   2 G_2            
     e( 11 - 12) =    -35.50452  eV     2   -->   2 G_2            
     e( 13 - 14) =    -34.18046  eV     2   -->   2 G_2            
     e( 15 - 16) =    -34.17582  eV     2   -->   2 G_2            
     e( 17 - 18) =    -34.15214  eV     2   -->   2 G_2            
     e( 19 - 20) =    -34.14758  eV     2   -->   2 G_2            
     e( 21 - 22) =    -34.13658  eV     2   -->   2 G_2            
     e( 23 - 24) =    -34.13200  eV     2   -->   2 G_2            
     e( 25 - 26) =    -34.07389  eV     2   -->   2 G_2            
     e( 27 - 28) =    -34.05664  eV     2   -->   2 G_2            
     e( 29 - 30) =    -34.03331  eV     2   -->   2 G_2            
     e( 31 - 32) =    -28.28909  eV     2   -->   2 G_2            
     e( 33 - 34) =    -28.28595  eV     2   -->   2 G_2            
     e( 35 - 36) =    -28.28063  eV     2   -->   2 G_2            
     e( 37 - 38) =    -28.27752  eV     2   -->   2 G_2            
     e( 39 - 40) =    -27.04954  eV     2   -->   2 G_2            
     e( 41 - 42) =    -27.04639  eV     2   -->   2 G_2            
     e( 43 - 43) =    -27.04128  eV     1   --> G_2            
     e( 44 - 44) =    -27.04117  eV     1   --> G_2            
     e( 45 - 45) =    -27.03821  eV     1   --> G_2            
     e( 46 - 46) =    -27.03807  eV     1   --> G_2            
     e( 47 - 48) =    -27.03790  eV     2   -->   2 G_2            
     e( 49 - 50) =    -27.03482  eV     2   -->   2 G_2            
     e( 51 - 52) =    -10.66076  eV     2   -->   2 G_2            
     e( 53 - 54) =    -10.12564  eV     2   -->   2 G_2            
     e( 55 - 56) =     -9.07340  eV     2   -->   2 G_2            
     e( 57 - 58) =     -6.37736  eV     2   -->   2 G_2            
     e( 59 - 60) =     -5.12048  eV     2   -->   2 G_2            
     e( 61 - 61) =     -0.77614  eV     1   --> G_2            
     e( 62 - 62) =     -0.77493  eV     1   --> G_2            
     e( 63 - 63) =     -0.68057  eV     1   --> G_2            
     e( 64 - 64) =     -0.67782  eV     1   --> G_2            
     e( 65 - 65) =     -0.12337  eV     1   --> G_2            
     e( 66 - 66) =     -0.12174  eV     1   --> G_2            
     e( 67 - 67) =      0.01677  eV     1   --> G_2            
     e( 68 - 68) =      0.01756  eV     1   --> G_2            
     e( 69 - 69) =      0.26191  eV     1   --> G_2            
     e( 70 - 70) =      0.26371  eV     1   --> G_2            
     e( 71 - 71) =      0.48692  eV     1   --> G_2            
     e( 72 - 72) =      0.48775  eV     1   --> G_2            
     e( 73 - 73) =      0.83514  eV     1   --> G_2            
     e( 74 - 74) =      0.83540  eV     1   --> G_2            
     e( 75 - 75) =      1.12920  eV     1   --> G_2            
     e( 76 - 76) =      1.12955  eV     1   --> G_2            
     e( 77 - 77) =      1.46769  eV     1   --> G_2            
     e( 78 - 78) =      1.46837  eV     1   --> G_2            
     e( 79 - 79) =      2.18813  eV     1   --> G_2            
     e( 80 - 80) =      2.18907  eV     1   --> G_2            
     e( 81 - 81) =      2.51987  eV     1   --> G_2            
     e( 82 - 82) =      2.52034  eV     1   --> G_2            
     e( 83 - 84) =      2.88497  eV     2   -->   2 G_2            
     e( 85 - 85) =      3.36270  eV     1   --> G_2            
     e( 86 - 86) =      3.36380  eV     1   --> G_2            
     e( 87 - 87) =      3.92301  eV     1   --> G_2            
     e( 88 - 88) =      3.92407  eV     1   --> G_2            
     e( 89 - 89) =      4.12052  eV     1   --> G_2            
     e( 90 - 90) =      4.12087  eV     1   --> G_2            
     e( 91 - 91) =      6.18418  eV     1   --> G_2            
     e( 92 - 92) =      6.18439  eV     1   --> G_2            
     e( 93 - 93) =      6.28701  eV     1   --> G_2            
     e( 94 - 94) =      6.28721  eV     1   --> G_2            
     e( 95 - 95) =      6.87366  eV     1   --> G_2            
     e( 96 - 96) =      6.87377  eV     1   --> G_2            
     e( 97 - 97) =      7.08060  eV     1   --> G_2            
     e( 98 - 98) =      7.08074  eV     1   --> G_2            
     e( 99 -100) =      7.46014  eV     2   -->   2 G_2            

 **************************************************************************

 **************************************************************************

                    xk=(   0.08571,   0.04949,   0.00000  )

     Band symmetry, C_1 (1)     double point group:

     e(  1 -  2) =    -35.63883  eV     2   -->   2 G_2            
     e(  3 -  4) =    -35.63422  eV     2   -->   2 G_2            
     e(  5 -  6) =    -35.60507  eV     2   -->   2 G_2            
     e(  7 -  8) =    -35.60049  eV     2   -->   2 G_2            
     e(  9 - 10) =    -35.53540  eV     2   -->   2 G_2            
     e( 11 - 12) =    -35.50451  eV     2   -->   2 G_2            
     e( 13 - 14) =    -34.18045  eV     2   -->   2 G_2            
     e( 15 - 16) =    -34.17582  eV     2   -->   2 G_2            
     e( 17 - 18) =    -34.15214  eV     2   -->   2 G_2            
     e( 19 - 20) =    -34.14758  eV     2   -->   2 G_2            
     e( 21 - 22) =    -34.13658  eV     2   -->   2 G_2            
     e( 23 - 24) =    -34.13199  eV     2   -->   2 G_2            
     e( 25 - 26) =    -34.07388  eV     2   -->   2 G_2            
     e( 27 - 28) =    -34.05664  eV     2   -->   2 G_2            
     e( 29 - 30) =    -34.03330  eV     2   -->   2 G_2            
     e( 31 - 32) =    -28.28909  eV     2   -->   2 G_2            
     e( 33 - 34) =    -28.28595  eV     2   -->   2 G_2            
     e( 35 - 36) =    -28.28063  eV     2   -->   2 G_2            
     e( 37 - 38) =    -28.27753  eV     2   -->   2 G_2            
     e( 39 - 40) =    -27.04953  eV     2   -->   2 G_2            
     e( 41 - 42) =    -27.04638  eV     2   -->   2 G_2            
     e( 43 - 43) =    -27.04129  eV     1   --> G_2            
     e( 44 - 44) =    -27.04117  eV     1   --> G_2            
     e( 45 - 45) =    -27.03822  eV     1   --> G_2            
     e( 46 - 46) =    -27.03807  eV     1   --> G_2            
     e( 47 - 48) =    -27.03790  eV     2   -->   2 G_2            
     e( 49 - 50) =    -27.03482  eV     2   -->   2 G_2            
     e( 51 - 52) =    -10.65135  eV     2   -->   2 G_2            
     e( 53 - 54) =    -10.11715  eV     2   -->   2 G_2            
     e( 55 - 56) =     -9.06859  eV     2   -->   2 G_2            
     e( 57 - 58) =     -6.38031  eV     2   -->   2 G_2            
     e( 59 - 60) =     -5.13947  eV     2   -->   2 G_2            
     e( 61 - 61) =     -0.82158  eV     1   --> G_2            
     e( 62 - 62) =     -0.82054  eV     1   --> G_2            
     e( 63 - 63) =     -0.71763  eV     1   --> G_2            
     e( 64 - 64) =     -0.71504  eV     1   --> G_2            
     e( 65 - 65) =     -0.17076  eV     1   --> G_2            
     e( 66 - 66) =     -0.16922  eV     1   --> G_2            
     e( 67 - 67) =     -0.00209  eV     1   --> G_2            
     e( 68 - 68) =     -0.00138  eV     1   --> G_2            
     e( 69 - 69) =      0.23357  eV     1   --> G_2            
     e( 70 - 70) =      0.23555  eV     1   --> G_2            
     e( 71 - 71) =      0.46585  eV     1   --> G_2            
     e( 72 - 72) =      0.46673  eV     1   --> G_2            
     e( 73 - 73) =      0.84218  eV     1   --> G_2            
     e( 74 - 74) =      0.84243  eV     1   --> G_2            
     e( 75 - 75) =      1.16212  eV     1   --> G_2            
     e( 76 - 76) =      1.16255  eV     1   --> G_2            
     e( 77 - 77) =      1.48292  eV     1   --> G_2            
     e( 78 - 78) =      1.48363  eV     1   --> G_2            
     e( 79 - 79) =      2.20300  eV     1   --> G_2            
     e( 80 - 80) =      2.20391  eV     1   --> G_2            
     e( 81 - 81) =      2.55818  eV     1   --> G_2            
     e( 82 - 82) =      2.55873  eV     1   --> G_2            
     e( 83 - 84) =      2.90924  eV     2   -->   2 G_2            
     e( 85 - 85) =      3.38409  eV     1   --> G_2            
     e( 86 - 86) =      3.38522  eV     1   --> G_2            
     e( 87 - 87) =      3.92881  eV     1   --> G_2            
     e( 88 - 88) =      3.92989  eV     1   --> G_2            
     e( 89 - 89) =      4.15119  eV     1   --> G_2            
     e( 90 - 90) =      4.15153  eV     1   --> G_2            
     e( 91 - 91) =      6.19916  eV     1   --> G_2            
     e( 92 - 92) =      6.19941  eV     1   --> G_2            
     e( 93 - 93) =      6.28593  eV     1   --> G_2            
     e( 94 - 94) =      6.28617  eV     1   --> G_2            
     e( 95 - 95) =      6.85012  eV     1   --> G_2            
     e( 96 - 96) =      6.85023  eV     1   --> G_2            
     e( 97 - 97) =      7.07845  eV     1   --> G_2            
     e( 98 - 98) =      7.07858  eV     1   --> G_2            
     e( 99 -100) =      7.46237  eV     2   -->   2 G_2            

 **************************************************************************

 **************************************************************************

                    xk=(   0.09286,   0.05361,   0.00000  )

     Band symmetry, C_1 (1)     double point group:

     e(  1 -  2) =    -35.63883  eV     2   -->   2 G_2            
     e(  3 -  4) =    -35.63421  eV     2   -->   2 G_2            
     e(  5 -  6) =    -35.60507  eV     2   -->   2 G_2            
     e(  7 -  8) =    -35.60049  eV     2   -->   2 G_2            
     e(  9 - 10) =    -35.53540  eV     2   -->   2 G_2            
     e( 11 - 12) =    -35.50451  eV     2   -->   2 G_2            
     e( 13 - 14) =    -34.18044  eV     2   -->   2 G_2            
     e( 15 - 16) =    -34.17581  eV     2   -->   2 G_2            
     e( 17 - 18) =    -34.15214  eV     2   -->   2 G_2            
     e( 19 - 20) =    -34.14758  eV     2   -->   2 G_2            
     e( 21 - 22) =    -34.13658  eV     2   -->   2 G_2            
     e( 23 - 24) =    -34.13199  eV     2   -->   2 G_2            
     e( 25 - 26) =    -34.07388  eV     2   -->   2 G_2            
     e( 27 - 28) =    -34.05664  eV     2   -->   2 G_2            
     e( 29 - 30) =    -34.03329  eV     2   -->   2 G_2            
     e( 31 - 32) =    -28.28909  eV     2   -->   2 G_2            
     e( 33 - 34) =    -28.28594  eV     2   -->   2 G_2            
     e( 35 - 36) =    -28.28063  eV     2   -->   2 G_2            
     e( 37 - 38) =    -28.27753  eV     2   -->   2 G_2            
     e( 39 - 40) =    -27.04952  eV     2   -->   2 G_2            
     e( 41 - 42) =    -27.04637  eV     2   -->   2 G_2            
     e( 43 - 43) =    -27.04130  eV     1   --> G_2            
     e( 44 - 44) =    -27.04117  eV     1   --> G_2            
     e( 45 - 45) =    -27.03823  eV     1   --> G_2            
     e( 46 - 46) =    -27.03807  eV     1   --> G_2            
     e( 47 - 48) =    -27.03789  eV     2   -->   2 G_2            
     e( 49 - 50) =    -27.03482  eV     2   -->   2 G_2            
     e( 51 - 52) =    -10.64113  eV     2   -->   2 G_2            
     e( 53 - 54) =    -10.10795  eV     2   -->   2 G_2            
     e( 55 - 56) =     -9.06340  eV     2   -->   2 G_2            
     e( 57 - 58) =     -6.38363  eV     2   -->   2 G_2            
     e( 59 - 60) =     -5.16005  eV     2   -->   2 G_2            
     e( 61 - 61) =     -0.87810  eV     1   --> G_2            
     e( 62 - 62) =     -0.87744  eV     1   --> G_2            
     e( 63 - 63) =     -0.74535  eV     1   --> G_2            
     e( 64 - 64) =     -0.74315  eV     1   --> G_2            
     e( 65 - 65) =     -0.21890  eV     1   --> G_2            
     e( 66 - 66) =     -0.21745  eV     1   --> G_2            
     e( 67 - 67) =     -0.02201  eV     1   --> G_2            
     e( 68 - 68) =     -0.02138  eV     1   --> G_2            
     e( 69 - 69) =      0.20183  eV     1   --> G_2            
     e( 70 - 70) =      0.20394  eV     1   --> G_2            
     e( 71 - 71) =      0.44601  eV     1   --> G_2            
     e( 72 - 72) =      0.44693  eV     1   --> G_2            
     e( 73 - 73) =      0.85042  eV     1   --> G_2            
     e( 74 - 74) =      0.85066  eV     1   --> G_2            
     e( 75 - 75) =      1.19478  eV     1   --> G_2            
     e( 76 - 76) =      1.19530  eV     1   --> G_2            
     e( 77 - 77) =      1.49003  eV     1   --> G_2            
     e( 78 - 78) =      1.49078  eV     1   --> G_2            
     e( 79 - 79) =      2.21918  eV     1   --> G_2            
     e( 80 - 80) =      2.22003  eV     1   --> G_2            
     e( 81 - 81) =      2.60181  eV     1   --> G_2            
     e( 82 - 82) =      2.60242  eV     1   --> G_2            
     e( 83 - 83) =      2.93668  eV     1   --> G_2            
     e( 84 - 84) =      2.93682  eV     1   --> G_2            
     e( 85 - 85) =      3.40500  eV     1   --> G_2            
     e( 86 - 86) =      3.40615  eV     1   --> G_2            
     e( 87 - 87) =      3.93492  eV     1   --> G_2            
     e( 88 - 88) =      3.93600  eV     1   --> G_2            
     e( 89 - 89) =      4.18439  eV     1   --> G_2            
     e( 90 - 90) =      4.18473  eV     1   --> G_2            
     e( 91 - 91) =      6.21503  eV     1   --> G_2            
     e( 92 - 92) =      6.21535  eV     1   --> G_2            
     e( 93 - 93) =      6.28390  eV     1   --> G_2            
     e( 94 - 94) =      6.28421  eV     1   --> G_2            
     e( 95 - 96) =      6.82385  eV     2   -->   2 G_2            
     e( 97 - 97) =      7.08036  eV     1   --> G_2            
     e( 98 - 98) =      7.08047  eV     1   --> G_2            
     e( 99 -100) =      7.46527  eV     2   -->   2 G_2            

 **************************************************************************

 **************************************************************************

                    xk=(   0.10000,   0.05774,   0.00000  )

     Band symmetry, C_1 (1)     double point group:

     e(  1 -  2) =    -35.63882  eV     2   -->   2 G_2            
     e(  3 -  4) =    -35.63421  eV     2   -->   2 G_2            
     e(  5 -  6) =    -35.60507  eV     2   -->   2 G_2            
     e(  7 -  8) =    -35.60049  eV     2   -->   2 G_2            
     e(  9 - 10) =    -35.53539  eV     2   -->   2 G_2            
     e( 11 - 12) =    -35.50451  eV     2   -->   2 G_2            
     e( 13 - 14) =    -34.18044  eV     2   -->   2 G_2            
     e( 15 - 16) =    -34.17580  eV     2   -->   2 G_2            
     e( 17 - 18) =    -34.15214  eV     2   -->   2 G_2            
     e( 19 - 20) =    -34.14758  eV     2   -->   2 G_2            
     e( 21 - 22) =    -34.13657  eV     2   -->   2 G_2            
     e( 23 - 24) =    -34.13199  eV     2   -->   2 G_2            
     e( 25 - 26) =    -34.07388  eV     2   -->   2 G_2            
     e( 27 - 28) =    -34.05664  eV     2   -->   2 G_2            
     e( 29 - 30) =    -34.03329  eV     2   -->   2 G_2            
     e( 31 - 32) =    -28.28908  eV     2   -->   2 G_2            
     e( 33 - 34) =    -28.28594  eV     2   -->   2 G_2            
     e( 35 - 36) =    -28.28063  eV     2   -->   2 G_2            
     e( 37 - 38) =    -28.27753  eV     2   -->   2 G_2            
     e( 39 - 40) =    -27.04950  eV     2   -->   2 G_2            
     e( 41 - 42) =    -27.04635  eV     2   -->   2 G_2            
     e( 43 - 43) =    -27.04131  eV     1   --> G_2            
     e( 44 - 44) =    -27.04117  eV     1   --> G_2            
     e( 45 - 45) =    -27.03824  eV     1   --> G_2            
     e( 46 - 46) =    -27.03808  eV     1   --> G_2            
     e( 47 - 48) =    -27.03789  eV     2   -->   2 G_2            
     e( 49 - 50) =    -27.03482  eV     2   -->   2 G_2            
     e( 51 - 52) =    -10.63012  eV     2   -->   2 G_2            
     e( 53 - 54) =    -10.09804  eV     2   -->   2 G_2            
     e( 55 - 56) =     -9.05783  eV     2   -->   2 G_2            
     e( 57 - 58) =     -6.38731  eV     2   -->   2 G_2            
     e( 59 - 60) =     -5.18215  eV     2   -->   2 G_2            
     e( 61 - 61) =     -0.94064  eV     1   --> G_2            
     e( 62 - 62) =     -0.94027  eV     1   --> G_2            
     e( 63 - 63) =     -0.76863  eV     1   --> G_2            
     e( 64 - 64) =     -0.76674  eV     1   --> G_2            
     e( 65 - 65) =     -0.26781  eV     1   --> G_2            
     e( 66 - 66) =     -0.26645  eV     1   --> G_2            
     e( 67 - 67) =     -0.04301  eV     1   --> G_2            
     e( 68 - 68) =     -0.04244  eV     1   --> G_2            
     e( 69 - 69) =      0.16774  eV     1   --> G_2            
     e( 70 - 70) =      0.16994  eV     1   --> G_2            
     e( 71 - 71) =      0.42769  eV     1   --> G_2            
     e( 72 - 72) =      0.42862  eV     1   --> G_2            
     e( 73 - 73) =      0.85919  eV     1   --> G_2            
     e( 74 - 74) =      0.85942  eV     1   --> G_2            
     e( 75 - 75) =      1.22623  eV     1   --> G_2            
     e( 76 - 76) =      1.22683  eV     1   --> G_2            
     e( 77 - 77) =      1.48906  eV     1   --> G_2            
     e( 78 - 78) =      1.48987  eV     1   --> G_2            
     e( 79 - 79) =      2.23936  eV     1   --> G_2            
     e( 80 - 80) =      2.24014  eV     1   --> G_2            
     e( 81 - 81) =      2.64797  eV     1   --> G_2            
     e( 82 - 82) =      2.64861  eV     1   --> G_2            
     e( 83 - 83) =      2.96650  eV     1   --> G_2            
     e( 84 - 84) =      2.96671  eV     1   --> G_2            
     e( 85 - 85) =      3.42616  eV     1   --> G_2            
     e( 86 - 86) =      3.42731  eV     1   --> G_2            
     e( 87 - 87) =      3.94240  eV     1   --> G_2            
     e( 88 - 88) =      3.94347  eV     1   --> G_2            
     e( 89 - 89) =      4.21904  eV     1   --> G_2            
     e( 90 - 90) =      4.21936  eV     1   --> G_2            
     e( 91 - 91) =      6.23159  eV     1   --> G_2            
     e( 92 - 92) =      6.23203  eV     1   --> G_2            
     e( 93 - 93) =      6.28069  eV     1   --> G_2            
     e( 94 - 94) =      6.28111  eV     1   --> G_2            
     e( 95 - 96) =      6.79647  eV     2   -->   2 G_2            
     e( 97 - 97) =      7.08540  eV     1   --> G_2            
     e( 98 - 98) =      7.08550  eV     1   --> G_2            
     e( 99 -100) =      7.46897  eV     2   -->   2 G_2            

 **************************************************************************

 **************************************************************************

                    xk=(   0.10714,   0.06186,   0.00000  )

     Band symmetry, C_1 (1)     double point group:

     e(  1 -  2) =    -35.63882  eV     2   -->   2 G_2            
     e(  3 -  4) =    -35.63420  eV     2   -->   2 G_2            
     e(  5 -  6) =    -35.60507  eV     2   -->   2 G_2            
     e(  7 -  8) =    -35.60049  eV     2   -->   2 G_2            
     e(  9 - 10) =    -35.53539  eV     2   -->   2 G_2            
     e( 11 - 12) =    -35.50450  eV     2   -->   2 G_2            
     e( 13 - 14) =    -34.18043  eV     2   -->   2 G_2            
     e( 15 - 16) =    -34.17580  eV     2   -->   2 G_2            
     e( 17 - 18) =    -34.15214  eV     2   -->   2 G_2            
     e( 19 - 20) =    -34.14758  eV     2   -->   2 G_2            
     e( 21 - 22) =    -34.13657  eV     2   -->   2 G_2            
     e( 23 - 24) =    -34.13199  eV     2   -->   2 G_2            
     e( 25 - 26) =    -34.07387  eV     2   -->   2 G_2            
     e( 27 - 28) =    -34.05664  eV     2   -->   2 G_2            
     e( 29 - 30) =    -34.03328  eV     2   -->   2 G_2            
     e( 31 - 32) =    -28.28908  eV     2   -->   2 G_2            
     e( 33 - 34) =    -28.28593  eV     2   -->   2 G_2            
     e( 35 - 36) =    -28.28064  eV     2   -->   2 G_2            
     e( 37 - 38) =    -28.27753  eV     2   -->   2 G_2            
     e( 39 - 40) =    -27.04949  eV     2   -->   2 G_2            
     e( 41 - 42) =    -27.04634  eV     2   -->   2 G_2            
     e( 43 - 43) =    -27.04132  eV     1   --> G_2            
     e( 44 - 44) =    -27.04117  eV     1   --> G_2            
     e( 45 - 45) =    -27.03825  eV     1   --> G_2            
     e( 46 - 46) =    -27.03808  eV     1   --> G_2            
     e( 47 - 48) =    -27.03789  eV     2   -->   2 G_2            
     e( 49 - 50) =    -27.03482  eV     2   -->   2 G_2            
     e( 51 - 52) =    -10.61829  eV     2   -->   2 G_2            
     e( 53 - 54) =    -10.08743  eV     2   -->   2 G_2            
     e( 55 - 56) =     -9.05196  eV     2   -->   2 G_2            
     e( 57 - 58) =     -6.39141  eV     2   -->   2 G_2            
     e( 59 - 60) =     -5.20578  eV     2   -->   2 G_2            
     e( 61 - 61) =     -1.00612  eV     1   --> G_2            
     e( 62 - 62) =     -1.00592  eV     1   --> G_2            
     e( 63 - 63) =     -0.79016  eV     1   --> G_2            
     e( 64 - 64) =     -0.78848  eV     1   --> G_2            
     e( 65 - 65) =     -0.31756  eV     1   --> G_2            
     e( 66 - 66) =     -0.31628  eV     1   --> G_2            
     e( 67 - 67) =     -0.06517  eV     1   --> G_2            
     e( 68 - 68) =     -0.06465  eV     1   --> G_2            
     e( 69 - 69) =      0.13248  eV     1   --> G_2            
     e( 70 - 70) =      0.13474  eV     1   --> G_2            
     e( 71 - 71) =      0.41085  eV     1   --> G_2            
     e( 72 - 72) =      0.41178  eV     1   --> G_2            
     e( 73 - 73) =      0.86791  eV     1   --> G_2            
     e( 74 - 74) =      0.86813  eV     1   --> G_2            
     e( 75 - 75) =      1.25508  eV     1   --> G_2            
     e( 76 - 76) =      1.25577  eV     1   --> G_2            
     e( 77 - 77) =      1.48142  eV     1   --> G_2            
     e( 78 - 78) =      1.48232  eV     1   --> G_2            
     e( 79 - 79) =      2.26449  eV     1   --> G_2            
     e( 80 - 80) =      2.26521  eV     1   --> G_2            
     e( 81 - 81) =      2.69488  eV     1   --> G_2            
     e( 82 - 82) =      2.69553  eV     1   --> G_2            
     e( 83 - 83) =      2.99767  eV     1   --> G_2            
     e( 84 - 84) =      2.99793  eV     1   --> G_2            
     e( 85 - 85) =      3.44843  eV     1   --> G_2            
     e( 86 - 86) =      3.44956  eV     1   --> G_2            
     e( 87 - 87) =      3.95206  eV     1   --> G_2            
     e( 88 - 88) =      3.95311  eV     1   --> G_2            
     e( 89 - 89) =      4.25425  eV     1   --> G_2            
     e( 90 - 90) =      4.25455  eV     1   --> G_2            
     e( 91 - 91) =      6.24819  eV     1   --> G_2            
     e( 92 - 92) =      6.24891  eV     1   --> G_2            
     e( 93 - 93) =      6.27635  eV     1   --> G_2            
     e( 94 - 94) =      6.27704  eV     1   --> G_2            
     e( 95 - 96) =      6.76949  eV     2   -->   2 G_2            
     e( 97 - 98) =      7.09282  eV     2   -->   2 G_2            
     e( 99 -100) =      7.47359  eV     2   -->   2 G_2            

 **************************************************************************

 **************************************************************************

                    xk=(   0.11429,   0.06598,   0.00000  )

     Band symmetry, C_1 (1)     double point group:

     e(  1 -  2) =    -35.63881  eV     2   -->   2 G_2            
     e(  3 -  4) =    -35.63420  eV     2   -->   2 G_2            
     e(  5 -  6) =    -35.60507  eV     2   -->   2 G_2            
     e(  7 -  8) =    -35.60049  eV     2   -->   2 G_2            
     e(  9 - 10) =    -35.53539  eV     2   -->   2 G_2            
     e( 11 - 12) =    -35.50450  eV     2   -->   2 G_2            
     e( 13 - 14) =    -34.18042  eV     2   -->   2 G_2            
     e( 15 - 16) =    -34.17579  eV     2   -->   2 G_2            
     e( 17 - 18) =    -34.15214  eV     2   -->   2 G_2            
     e( 19 - 20) =    -34.14758  eV     2   -->   2 G_2            
     e( 21 - 22) =    -34.13657  eV     2   -->   2 G_2            
     e( 23 - 24) =    -34.13198  eV     2   -->   2 G_2            
     e( 25 - 26) =    -34.07387  eV     2   -->   2 G_2            
     e( 27 - 28) =    -34.05664  eV     2   -->   2 G_2            
     e( 29 - 30) =    -34.03327  eV     2   -->   2 G_2            
     e( 31 - 32) =    -28.28907  eV     2   -->   2 G_2            
     e( 33 - 34) =    -28.28593  eV     2   -->   2 G_2            
     e( 35 - 36) =    -28.28064  eV     2   -->   2 G_2            
     e( 37 - 38) =    -28.27754  eV     2   -->   2 G_2            
     e( 39 - 40) =    -27.04947  eV     2   -->   2 G_2            
     e( 41 - 42) =    -27.04632  eV     2   -->   2 G_2            
     e( 43 - 43) =    -27.04133  eV     1   --> G_2            
     e( 44 - 44) =    -27.04117  eV     1   --> G_2            
     e( 45 - 45) =    -27.03826  eV     1   --> G_2            
     e( 46 - 46) =    -27.03809  eV     1   --> G_2            
     e( 47 - 48) =    -27.03788  eV     2   -->   2 G_2            
     e( 49 - 50) =    -27.03482  eV     2   -->   2 G_2            
     e( 51 - 52) =    -10.60569  eV     2   -->   2 G_2            
     e( 53 - 54) =    -10.07610  eV     2   -->   2 G_2            
     e( 55 - 56) =     -9.04571  eV     2   -->   2 G_2            
     e( 57 - 58) =     -6.39596  eV     2   -->   2 G_2            
     e( 59 - 60) =     -5.23090  eV     2   -->   2 G_2            
     e( 61 - 61) =     -1.07308  eV     1   --> G_2            
     e( 62 - 62) =     -1.07292  eV     1   --> G_2            
     e( 63 - 63) =     -0.81099  eV     1   --> G_2            
     e( 64 - 64) =     -0.80946  eV     1   --> G_2            
     e( 65 - 65) =     -0.36815  eV     1   --> G_2            
     e( 66 - 66) =     -0.36695  eV     1   --> G_2            
     e( 67 - 67) =     -0.08868  eV     1   --> G_2            
     e( 68 - 68) =     -0.08819  eV     1   --> G_2            
     e( 69 - 69) =      0.09719  eV     1   --> G_2            
     e( 70 - 70) =      0.09946  eV     1   --> G_2            
     e( 71 - 71) =      0.39531  eV     1   --> G_2            
     e( 72 - 72) =      0.39621  eV     1   --> G_2            
     e( 73 - 73) =      0.87608  eV     1   --> G_2            
     e( 74 - 74) =      0.87631  eV     1   --> G_2            
[...]
     e( 49 - 50) =    -27.03483  eV     2   -->   2 G_2            
     e( 51 - 52) =    -10.70127  eV     2   -->   2 G_2            
     e( 53 - 54) =    -10.16223  eV     2   -->   2 G_2            
     e( 55 - 56) =     -9.09430  eV     2   -->   2 G_2            
     e( 57 - 58) =     -6.36512  eV     2   -->   2 G_2            
     e( 59 - 60) =     -5.03616  eV     2   -->   2 G_2            
     e( 61 - 62) =     -0.66428  eV     2   -->   2 G_2            
     e( 63 - 63) =     -0.33143  eV     1   --> G_2            
     e( 64 - 64) =     -0.33017  eV     1   --> G_2            
     e( 65 - 65) =      0.07733  eV     1   --> G_2            
     e( 66 - 66) =      0.07803  eV     1   --> G_2            
     e( 67 - 67) =      0.19158  eV     1   --> G_2            
     e( 68 - 68) =      0.19302  eV     1   --> G_2            
     e( 69 - 69) =      0.33230  eV     1   --> G_2            
     e( 70 - 70) =      0.33303  eV     1   --> G_2            
     e( 71 - 71) =      0.53730  eV     1   --> G_2            
     e( 72 - 72) =      0.53886  eV     1   --> G_2            
     e( 73 - 73) =      0.82221  eV     1   --> G_2            
     e( 74 - 74) =      0.82283  eV     1   --> G_2            
     e( 75 - 75) =      1.00038  eV     1   --> G_2            
     e( 76 - 76) =      1.00086  eV     1   --> G_2            
     e( 77 - 77) =      1.29064  eV     1   --> G_2            
     e( 78 - 78) =      1.29131  eV     1   --> G_2            
     e( 79 - 79) =      1.94901  eV     1   --> G_2            
     e( 80 - 80) =      1.94965  eV     1   --> G_2            
     e( 81 - 81) =      2.52967  eV     1   --> G_2            
     e( 82 - 82) =      2.52993  eV     1   --> G_2            
     e( 83 - 83) =      2.82379  eV     1   --> G_2            
     e( 84 - 84) =      2.82436  eV     1   --> G_2            
     e( 85 - 85) =      3.18747  eV     1   --> G_2            
     e( 86 - 86) =      3.18793  eV     1   --> G_2            
     e( 87 - 87) =      3.84847  eV     1   --> G_2            
     e( 88 - 88) =      3.84873  eV     1   --> G_2            
     e( 89 - 89) =      4.04496  eV     1   --> G_2            
     e( 90 - 90) =      4.04510  eV     1   --> G_2            
     e( 91 - 92) =      6.11603  eV     2   -->   2 G_2            
     e( 93 - 94) =      6.28593  eV     2   -->   2 G_2            
     e( 95 - 96) =      6.92469  eV     2   -->   2 G_2            
     e( 97 - 98) =      7.20655  eV     2   -->   2 G_2            
     e( 99 -100) =      7.45976  eV     2   -->   2 G_2            

 **************************************************************************

 **************************************************************************

                    xk=(   0.01429,   0.02540,   0.00000  )

     Band symmetry, C_1 (1)     double point group:

     e(  1 -  2) =    -35.63885  eV     2   -->   2 G_2            
     e(  3 -  4) =    -35.63424  eV     2   -->   2 G_2            
     e(  5 -  6) =    -35.60507  eV     2   -->   2 G_2            
     e(  7 -  8) =    -35.60050  eV     2   -->   2 G_2            
     e(  9 - 10) =    -35.53540  eV     2   -->   2 G_2            
     e( 11 - 12) =    -35.50453  eV     2   -->   2 G_2            
     e( 13 - 14) =    -34.18049  eV     2   -->   2 G_2            
     e( 15 - 16) =    -34.17585  eV     2   -->   2 G_2            
     e( 17 - 18) =    -34.15214  eV     2   -->   2 G_2            
     e( 19 - 20) =    -34.14758  eV     2   -->   2 G_2            
     e( 21 - 22) =    -34.13659  eV     2   -->   2 G_2            
     e( 23 - 24) =    -34.13201  eV     2   -->   2 G_2            
     e( 25 - 26) =    -34.07390  eV     2   -->   2 G_2            
     e( 27 - 28) =    -34.05664  eV     2   -->   2 G_2            
     e( 29 - 30) =    -34.03333  eV     2   -->   2 G_2            
     e( 31 - 32) =    -28.28910  eV     2   -->   2 G_2            
     e( 33 - 34) =    -28.28596  eV     2   -->   2 G_2            
     e( 35 - 36) =    -28.28061  eV     2   -->   2 G_2            
     e( 37 - 38) =    -28.27751  eV     2   -->   2 G_2            
     e( 39 - 40) =    -27.04960  eV     2   -->   2 G_2            
     e( 41 - 42) =    -27.04645  eV     2   -->   2 G_2            
     e( 43 - 44) =    -27.04122  eV     2   -->   2 G_2            
     e( 45 - 46) =    -27.03812  eV     2   -->   2 G_2            
     e( 47 - 48) =    -27.03791  eV     2   -->   2 G_2            
     e( 49 - 50) =    -27.03482  eV     2   -->   2 G_2            
     e( 51 - 52) =    -10.70528  eV     2   -->   2 G_2            
     e( 53 - 54) =    -10.16589  eV     2   -->   2 G_2            
     e( 55 - 56) =     -9.09648  eV     2   -->   2 G_2            
     e( 57 - 58) =     -6.36432  eV     2   -->   2 G_2            
     e( 59 - 60) =     -5.02882  eV     2   -->   2 G_2            
     e( 61 - 62) =     -0.65702  eV     2   -->   2 G_2            
     e( 63 - 63) =     -0.28959  eV     1   --> G_2            
     e( 64 - 64) =     -0.28857  eV     1   --> G_2            
     e( 65 - 65) =      0.07776  eV     1   --> G_2            
     e( 66 - 66) =      0.07841  eV     1   --> G_2            
     e( 67 - 67) =      0.23850  eV     1   --> G_2            
     e( 68 - 68) =      0.23988  eV     1   --> G_2            
     e( 69 - 69) =      0.34726  eV     1   --> G_2            
     e( 70 - 70) =      0.34799  eV     1   --> G_2            
     e( 71 - 71) =      0.53055  eV     1   --> G_2            
     e( 72 - 72) =      0.53205  eV     1   --> G_2            
     e( 73 - 73) =      0.80626  eV     1   --> G_2            
     e( 74 - 74) =      0.80674  eV     1   --> G_2            
     e( 75 - 75) =      1.01595  eV     1   --> G_2            
     e( 76 - 76) =      1.01631  eV     1   --> G_2            
     e( 77 - 77) =      1.26474  eV     1   --> G_2            
     e( 78 - 78) =      1.26527  eV     1   --> G_2            
     e( 79 - 79) =      1.90896  eV     1   --> G_2            
     e( 80 - 80) =      1.90946  eV     1   --> G_2            
     e( 81 - 81) =      2.52889  eV     1   --> G_2            
     e( 82 - 82) =      2.52909  eV     1   --> G_2            
     e( 83 - 83) =      2.84762  eV     1   --> G_2            
     e( 84 - 84) =      2.84813  eV     1   --> G_2            
     e( 85 - 85) =      3.15353  eV     1   --> G_2            
     e( 86 - 86) =      3.15389  eV     1   --> G_2            
     e( 87 - 87) =      3.83144  eV     1   --> G_2            
     e( 88 - 88) =      3.83162  eV     1   --> G_2            
     e( 89 - 89) =      4.04291  eV     1   --> G_2            
     e( 90 - 90) =      4.04303  eV     1   --> G_2            
     e( 91 - 92) =      6.10895  eV     2   -->   2 G_2            
     e( 93 - 94) =      6.28477  eV     2   -->   2 G_2            
     e( 95 - 96) =      6.92418  eV     2   -->   2 G_2            
     e( 97 - 98) =      7.21431  eV     2   -->   2 G_2            
     e( 99 -100) =      7.46013  eV     2   -->   2 G_2            

 **************************************************************************

 **************************************************************************

                    xk=(   0.00952,   0.01694,   0.00000  )

     Band symmetry, C_1 (1)     double point group:

     e(  1 -  2) =    -35.63886  eV     2   -->   2 G_2            
     e(  3 -  4) =    -35.63424  eV     2   -->   2 G_2            
     e(  5 -  6) =    -35.60507  eV     2   -->   2 G_2            
     e(  7 -  8) =    -35.60049  eV     2   -->   2 G_2            
     e(  9 - 10) =    -35.53540  eV     2   -->   2 G_2            
     e( 11 - 12) =    -35.50453  eV     2   -->   2 G_2            
     e( 13 - 14) =    -34.18049  eV     2   -->   2 G_2            
     e( 15 - 16) =    -34.17585  eV     2   -->   2 G_2            
     e( 17 - 18) =    -34.15214  eV     2   -->   2 G_2            
     e( 19 - 20) =    -34.14758  eV     2   -->   2 G_2            
     e( 21 - 22) =    -34.13659  eV     2   -->   2 G_2            
     e( 23 - 24) =    -34.13201  eV     2   -->   2 G_2            
     e( 25 - 26) =    -34.07390  eV     2   -->   2 G_2            
     e( 27 - 28) =    -34.05664  eV     2   -->   2 G_2            
     e( 29 - 30) =    -34.03334  eV     2   -->   2 G_2            
     e( 31 - 32) =    -28.28910  eV     2   -->   2 G_2            
     e( 33 - 34) =    -28.28596  eV     2   -->   2 G_2            
     e( 35 - 36) =    -28.28061  eV     2   -->   2 G_2            
     e( 37 - 38) =    -28.27750  eV     2   -->   2 G_2            
     e( 39 - 40) =    -27.04960  eV     2   -->   2 G_2            
     e( 41 - 42) =    -27.04645  eV     2   -->   2 G_2            
     e( 43 - 44) =    -27.04121  eV     2   -->   2 G_2            
     e( 45 - 46) =    -27.03811  eV     2   -->   2 G_2            
     e( 47 - 48) =    -27.03791  eV     2   -->   2 G_2            
     e( 49 - 50) =    -27.03482  eV     2   -->   2 G_2            
     e( 51 - 52) =    -10.70812  eV     2   -->   2 G_2            
     e( 53 - 54) =    -10.16848  eV     2   -->   2 G_2            
     e( 55 - 56) =     -9.09801  eV     2   -->   2 G_2            
     e( 57 - 58) =     -6.36372  eV     2   -->   2 G_2            
     e( 59 - 60) =     -5.02353  eV     2   -->   2 G_2            
     e( 61 - 62) =     -0.65189  eV     2   -->   2 G_2            
     e( 63 - 63) =     -0.25676  eV     1   --> G_2            
     e( 64 - 64) =     -0.25602  eV     1   --> G_2            
     e( 65 - 65) =      0.07364  eV     1   --> G_2            
     e( 66 - 66) =      0.07414  eV     1   --> G_2            
     e( 67 - 67) =      0.28026  eV     1   --> G_2            
     e( 68 - 68) =      0.28141  eV     1   --> G_2            
     e( 69 - 69) =      0.36343  eV     1   --> G_2            
     e( 70 - 70) =      0.36408  eV     1   --> G_2            
     e( 71 - 71) =      0.51478  eV     1   --> G_2            
     e( 72 - 72) =      0.51611  eV     1   --> G_2            
     e( 73 - 73) =      0.79300  eV     1   --> G_2            
     e( 74 - 74) =      0.79333  eV     1   --> G_2            
     e( 75 - 75) =      1.02950  eV     1   --> G_2            
     e( 76 - 76) =      1.02974  eV     1   --> G_2            
     e( 77 - 77) =      1.24838  eV     1   --> G_2            
     e( 78 - 78) =      1.24873  eV     1   --> G_2            
     e( 79 - 79) =      1.87535  eV     1   --> G_2            
     e( 80 - 80) =      1.87570  eV     1   --> G_2            
     e( 81 - 81) =      2.52818  eV     1   --> G_2            
     e( 82 - 82) =      2.52831  eV     1   --> G_2            
     e( 83 - 83) =      2.87500  eV     1   --> G_2            
     e( 84 - 84) =      2.87540  eV     1   --> G_2            
     e( 85 - 85) =      3.12068  eV     1   --> G_2            
     e( 86 - 86) =      3.12096  eV     1   --> G_2            
     e( 87 - 87) =      3.81820  eV     1   --> G_2            
     e( 88 - 88) =      3.81831  eV     1   --> G_2            
     e( 89 - 90) =      4.04250  eV     2   -->   2 G_2            
     e( 91 - 92) =      6.10384  eV     2   -->   2 G_2            
     e( 93 - 94) =      6.28393  eV     2   -->   2 G_2            
     e( 95 - 96) =      6.92354  eV     2   -->   2 G_2            
     e( 97 - 98) =      7.21947  eV     2   -->   2 G_2            
     e( 99 -100) =      7.46059  eV     2   -->   2 G_2            

 **************************************************************************

 **************************************************************************

                    xk=(   0.00476,   0.00847,   0.00000  )

     Band symmetry, C_1 (1)     double point group:

     e(  1 -  2) =    -35.63886  eV     2   -->   2 G_2            
     e(  3 -  4) =    -35.63424  eV     2   -->   2 G_2            
     e(  5 -  6) =    -35.60507  eV     2   -->   2 G_2            
     e(  7 -  8) =    -35.60049  eV     2   -->   2 G_2            
     e(  9 - 10) =    -35.53540  eV     2   -->   2 G_2            
     e( 11 - 12) =    -35.50453  eV     2   -->   2 G_2            
     e( 13 - 14) =    -34.18049  eV     2   -->   2 G_2            
     e( 15 - 16) =    -34.17586  eV     2   -->   2 G_2            
     e( 17 - 18) =    -34.15214  eV     2   -->   2 G_2            
     e( 19 - 20) =    -34.14758  eV     2   -->   2 G_2            
     e( 21 - 22) =    -34.13659  eV     2   -->   2 G_2            
     e( 23 - 24) =    -34.13201  eV     2   -->   2 G_2            
     e( 25 - 26) =    -34.07390  eV     2   -->   2 G_2            
     e( 27 - 28) =    -34.05664  eV     2   -->   2 G_2            
     e( 29 - 30) =    -34.03334  eV     2   -->   2 G_2            
     e( 31 - 32) =    -28.28910  eV     2   -->   2 G_2            
     e( 33 - 34) =    -28.28596  eV     2   -->   2 G_2            
     e( 35 - 36) =    -28.28060  eV     2   -->   2 G_2            
     e( 37 - 38) =    -28.27750  eV     2   -->   2 G_2            
     e( 39 - 40) =    -27.04961  eV     2   -->   2 G_2            
     e( 41 - 42) =    -27.04646  eV     2   -->   2 G_2            
     e( 43 - 44) =    -27.04120  eV     2   -->   2 G_2            
     e( 45 - 46) =    -27.03810  eV     2   -->   2 G_2            
     e( 47 - 48) =    -27.03791  eV     2   -->   2 G_2            
     e( 49 - 50) =    -27.03481  eV     2   -->   2 G_2            
     e( 51 - 52) =    -10.70983  eV     2   -->   2 G_2            
     e( 53 - 54) =    -10.17004  eV     2   -->   2 G_2            
     e( 55 - 56) =     -9.09895  eV     2   -->   2 G_2            
     e( 57 - 58) =     -6.36337  eV     2   -->   2 G_2            
     e( 59 - 60) =     -5.02036  eV     2   -->   2 G_2            
     e( 61 - 62) =     -0.64883  eV     2   -->   2 G_2            
     e( 63 - 63) =     -0.23540  eV     1   --> G_2            
     e( 64 - 64) =     -0.23501  eV     1   --> G_2            
     e( 65 - 65) =      0.06935  eV     1   --> G_2            
     e( 66 - 66) =      0.06962  eV     1   --> G_2            
     e( 67 - 67) =      0.30755  eV     1   --> G_2            
     e( 68 - 68) =      0.30817  eV     1   --> G_2            
     e( 69 - 69) =      0.38261  eV     1   --> G_2            
     e( 70 - 70) =      0.38310  eV     1   --> G_2            
     e( 71 - 71) =      0.49458  eV     1   --> G_2            
     e( 72 - 72) =      0.49552  eV     1   --> G_2            
     e( 73 - 73) =      0.78461  eV     1   --> G_2            
     e( 74 - 74) =      0.78478  eV     1   --> G_2            
     e( 75 - 75) =      1.03755  eV     1   --> G_2            
     e( 76 - 76) =      1.03767  eV     1   --> G_2            
     e( 77 - 77) =      1.24084  eV     1   --> G_2            
     e( 78 - 78) =      1.24101  eV     1   --> G_2            
     e( 79 - 79) =      1.85268  eV     1   --> G_2            
     e( 80 - 80) =      1.85286  eV     1   --> G_2            
     e( 81 - 82) =      2.52769  eV     2   -->   2 G_2            
     e( 83 - 83) =      2.89909  eV     1   --> G_2            
     e( 84 - 84) =      2.89934  eV     1   --> G_2            
     e( 85 - 85) =      3.09407  eV     1   --> G_2            
     e( 86 - 86) =      3.09425  eV     1   --> G_2            
     e( 87 - 88) =      3.80988  eV     2   -->   2 G_2            
     e( 89 - 90) =      4.04265  eV     2   -->   2 G_2            
     e( 91 - 92) =      6.10076  eV     2   -->   2 G_2            
     e( 93 - 94) =      6.28342  eV     2   -->   2 G_2            
     e( 95 - 96) =      6.92305  eV     2   -->   2 G_2            
     e( 97 - 98) =      7.22238  eV     2   -->   2 G_2            
     e( 99 -100) =      7.46096  eV     2   -->   2 G_2            

 **************************************************************************

 **************************************************************************

                    xk=(   0.00000,   0.00000,   0.00000  )

     Band symmetry, C_1 (1)     double point group:

     e(  1 -  2) =    -35.63886  eV     2   -->   2 G_2            
     e(  3 -  4) =    -35.63424  eV     2   -->   2 G_2            
     e(  5 -  6) =    -35.60507  eV     2   -->   2 G_2            
     e(  7 -  8) =    -35.60049  eV     2   -->   2 G_2            
     e(  9 - 10) =    -35.53540  eV     2   -->   2 G_2            
     e( 11 - 12) =    -35.50453  eV     2   -->   2 G_2            
     e( 13 - 14) =    -34.18049  eV     2   -->   2 G_2            
     e( 15 - 16) =    -34.17586  eV     2   -->   2 G_2            
     e( 17 - 18) =    -34.15214  eV     2   -->   2 G_2            
     e( 19 - 20) =    -34.14758  eV     2   -->   2 G_2            
     e( 21 - 22) =    -34.13659  eV     2   -->   2 G_2            
     e( 23 - 24) =    -34.13200  eV     2   -->   2 G_2            
     e( 25 - 26) =    -34.07390  eV     2   -->   2 G_2            
     e( 27 - 28) =    -34.05664  eV     2   -->   2 G_2            
     e( 29 - 30) =    -34.03334  eV     2   -->   2 G_2            
     e( 31 - 32) =    -28.28910  eV     2   -->   2 G_2            
     e( 33 - 34) =    -28.28596  eV     2   -->   2 G_2            
     e( 35 - 36) =    -28.28060  eV     2   -->   2 G_2            
     e( 37 - 38) =    -28.27750  eV     2   -->   2 G_2            
     e( 39 - 40) =    -27.04961  eV     2   -->   2 G_2            
     e( 41 - 42) =    -27.04646  eV     2   -->   2 G_2            
     e( 43 - 44) =    -27.04120  eV     2   -->   2 G_2            
     e( 45 - 46) =    -27.03810  eV     2   -->   2 G_2            
     e( 47 - 48) =    -27.03791  eV     2   -->   2 G_2            
     e( 49 - 50) =    -27.03481  eV     2   -->   2 G_2            
     e( 51 - 52) =    -10.71040  eV     2   -->   2 G_2            
     e( 53 - 54) =    -10.17056  eV     2   -->   2 G_2            
     e( 55 - 56) =     -9.09924  eV     2   -->   2 G_2            
     e( 57 - 58) =     -6.36324  eV     2   -->   2 G_2            
     e( 59 - 60) =     -5.01930  eV     2   -->   2 G_2            
     e( 61 - 62) =     -0.64781  eV     2   -->   2 G_2            
     e( 63 - 64) =     -0.22782  eV     2   -->   2 G_2            
     e( 65 - 66) =      0.06766  eV     2   -->   2 G_2            
     e( 67 - 68) =      0.31645  eV     2   -->   2 G_2            
     e( 69 - 70) =      0.39438  eV     2   -->   2 G_2            
     e( 71 - 72) =      0.48357  eV     2   -->   2 G_2            
     e( 73 - 74) =      0.78182  eV     2   -->   2 G_2            
     e( 75 - 76) =      1.04008  eV     2   -->   2 G_2            
     e( 77 - 78) =      1.23899  eV     2   -->   2 G_2            
     e( 79 - 80) =      1.84469  eV     2   -->   2 G_2            
     e( 81 - 82) =      2.52754  eV     2   -->   2 G_2            
     e( 83 - 84) =      2.90950  eV     2   -->   2 G_2            
     e( 85 - 86) =      3.08312  eV     2   -->   2 G_2            
     e( 87 - 88) =      3.80707  eV     2   -->   2 G_2            
     e( 89 - 90) =      4.04278  eV     2   -->   2 G_2            
     e( 91 - 92) =      6.09973  eV     2   -->   2 G_2            
     e( 93 - 94) =      6.28325  eV     2   -->   2 G_2            
     e( 95 - 96) =      6.92287  eV     2   -->   2 G_2            
     e( 97 - 98) =      7.22332  eV     2   -->   2 G_2            
     e( 99 -100) =      7.46110  eV     2   -->   2 G_2            

 **************************************************************************

     BANDS        :  20m32.58s CPU  19m39.70s WALL


   This run was terminated on:  18:18:24  14Aug2025            

=------------------------------------------------------------------------------=
   JOB DONE.
=------------------------------------------------------------------------------=
