
     Program PWSCF v.7.4.1 starts on 14Aug2025 at 20: 6:24 

     This program is part of the open-source Quantum ESPRESSO suite
     for quantum simulation of materials; please cite
         "P. Giannozzi et al., J. Phys.:Condens. Matter 21 395502 (2009);
         "P. Giannozzi et al., J. Phys.:Condens. Matter 29 465901 (2017);
         "P. Giannozzi et al., J. Chem. Phys. 152 154105 (2020);
          URL http://www.quantum-espresso.org", 
     in publications or presentations arising from this work. More details at
     http://www.quantum-espresso.org/quote

     Parallel version (MPI & OpenMP), running on      48 processor cores
     Number of MPI processes:                24
     Threads/MPI process:                     2

     MPI processes distributed on     2 nodes
     116973 MiB available memory on the printing compute node when the environment starts

     Waiting for input...
     Reading input from standard input

     Current dimensions of program PWSCF are:
     Max number of different atomic species (ntypx) = 10
     Max number of k-points (npk) =  40000
     Max angular momentum in pseudopotentials (lmaxx) =  4

     IMPORTANT: XC functional enforced from input :
     Exchange-correlation= PBE
                           (   1   4   3   4   0   0   0)
     Any further DFT definition will be discarded
     Please, verify this is what you really want


     Atomic positions and unit cell read from directory:
     tmp/Sb2Te3-uatsx-c3-1.0.save/

     Message from routine setup:
     no reason to have ecutrho>4*ecutwfc

     R & G space division:  proc/nbgrp/npool/nimage =      24
     Subspace diagonalization in iterative solution of the eigenvalue problem:
     a serial algorithm will be used


     Parallelization info
     --------------------
     sticks:   dense  smooth     PW     G-vecs:    dense   smooth      PW
     Min          96      38     10                19112     4832     726
     Max          97      39     11                19125     4855     757
     Sum        2311     925    261               458817   116185   17833

     Using Slab Decomposition



     bravais-lattice index     =            0
     lattice parameter (alat)  =       8.2271  a.u.
     unit-cell volume          =    2430.6623 (a.u.)^3
     number of atoms/cell      =            5
     number of atomic types    =            2
     number of electrons       =        78.00
     number of Kohn-Sham states=          100
     kinetic-energy cutoff     =      50.0000  Ry
     charge density cutoff     =     500.0000  Ry
     Exchange-correlation= PBE
                           (   1   4   3   4   0   0   0)

     celldm(1)=   8.227090  celldm(2)=   0.000000  celldm(3)=   0.000000
     celldm(4)=   0.000000  celldm(5)=   0.000000  celldm(6)=   0.000000

     crystal axes: (cart. coord. in units of alat)
               a(1) = (   1.000000   0.000000   0.000000 )  
               a(2) = (  -0.495050   0.857443   0.000000 )  
               a(3) = (   0.000000   0.000000   5.090739 )  

     reciprocal axes: (cart. coord. in units 2 pi/alat)
               b(1) = (  1.000000  0.577356 -0.000000 )  
               b(2) = (  0.000000  1.166259  0.000000 )  
               b(3) = (  0.000000 -0.000000  0.196435 )  


     PseudoPot. # 1 for Sb read from file:
     /zfs-home/202401017n1/pseudos/Sb_ONCV_PBE-1.2.upf
     MD5 check sum: 0417cd6c0fe8ce4611e2b23135f1abd9
     Pseudo is Norm-conserving, Zval = 15.0
     Generated using ONCVPSP code by D. R. Hamann
     Using radial grid of  602 points,  6 beta functions with: 
                l(1) =   0
                l(2) =   0
                l(3) =   1
                l(4) =   1
                l(5) =   2
                l(6) =   2

     PseudoPot. # 2 for Te read from file:
     /zfs-home/202401017n1/pseudos/Te_ONCV_PBE-1.2.upf
     MD5 check sum: dd4de4dac1e38587f63aaf3700bb29d3
     Pseudo is Norm-conserving, Zval = 16.0
     Generated using ONCVPSP code by D. R. Hamann
     Using radial grid of  602 points,  6 beta functions with: 
                l(1) =   0
                l(2) =   0
                l(3) =   1
                l(4) =   1
                l(5) =   2
                l(6) =   2

     atomic species   valence    mass     pseudopotential
     Sb               15.00   121.76000     Sb( 1.00)
     Te               16.00   127.60000     Te( 1.00)

     No symmetry found


                                    s                        frac. trans.

      isym =  1     identity                                     

 cryst.   s( 1) = (     1          0          0      )
                  (     0          1          0      )
                  (     0          0          1      )

 cart.    s( 1) = (  1.0000000  0.0000000  0.0000000 )
                  (  0.0000000  1.0000000  0.0000000 )
                  (  0.0000000  0.0000000  1.0000000 )


   Cartesian axes

     site n.     atom                  positions (alat units)
         1        Sb     tau(   1) = (   0.5788554   0.4207610   3.0040749  )
         2        Te     tau(   2) = (   0.5752577   0.4138624   1.6972962  )
         3        Sb     tau(   3) = (   0.0743102   0.1298379   2.0866212  )
         4        Te     tau(   4) = (   0.0782247   0.1361538   3.3933943  )
         5        Te     tau(   5) = (   0.0792404   0.7036244   2.5453648  )

     -------------------------------------------------
     Parameters for Dispersion (Grimme-D2) Correction:
     -------------------------------------------------
       atom      VdW radius       C_6     

        Sb         3.555       1333.532
        Te         3.575       1101.101

   Crystallographic axes

     site n.     atom                  positions (cryst. coord.)
         1        Sb     tau(   1) = (  0.8217842  0.4907162  0.5901058  )
         2        Te     tau(   2) = (  0.8142035  0.4826706  0.3334086  )
         3        Sb     tau(   3) = (  0.1492728  0.1514246  0.4098857  )
         4        Te     tau(   4) = (  0.1568340  0.1587906  0.6665818  )
         5        Te     tau(   5) = (  0.4854821  0.8206082  0.4999990  )

     number of k points=   211
                       cart. coord. in units 2pi/alat
        k(    1) = (   0.0000000   0.0000000   0.0000000), wk =   0.0094787
        k(    2) = (   0.0071429   0.0041240   0.0000000), wk =   0.0094787
        k(    3) = (   0.0142857   0.0082479   0.0000000), wk =   0.0094787
        k(    4) = (   0.0214286   0.0123719   0.0000000), wk =   0.0094787
        k(    5) = (   0.0285714   0.0164959   0.0000000), wk =   0.0094787
        k(    6) = (   0.0357143   0.0206199   0.0000000), wk =   0.0094787
        k(    7) = (   0.0428571   0.0247438   0.0000000), wk =   0.0094787
        k(    8) = (   0.0500000   0.0288678   0.0000000), wk =   0.0094787
        k(    9) = (   0.0571429   0.0329918   0.0000000), wk =   0.0094787
        k(   10) = (   0.0642857   0.0371157   0.0000000), wk =   0.0094787
        k(   11) = (   0.0714286   0.0412397   0.0000000), wk =   0.0094787
        k(   12) = (   0.0785714   0.0453637   0.0000000), wk =   0.0094787
        k(   13) = (   0.0857143   0.0494876   0.0000000), wk =   0.0094787
        k(   14) = (   0.0928571   0.0536116   0.0000000), wk =   0.0094787
        k(   15) = (   0.1000000   0.0577356   0.0000000), wk =   0.0094787
        k(   16) = (   0.1071429   0.0618596   0.0000000), wk =   0.0094787
        k(   17) = (   0.1142857   0.0659835   0.0000000), wk =   0.0094787
        k(   18) = (   0.1214286   0.0701075   0.0000000), wk =   0.0094787
        k(   19) = (   0.1285714   0.0742315   0.0000000), wk =   0.0094787
        k(   20) = (   0.1357143   0.0783554   0.0000000), wk =   0.0094787
        k(   21) = (   0.1428571   0.0824794   0.0000000), wk =   0.0094787
        k(   22) = (   0.1500000   0.0866034   0.0000000), wk =   0.0094787
        k(   23) = (   0.1571429   0.0907273   0.0000000), wk =   0.0094787
        k(   24) = (   0.1642857   0.0948513   0.0000000), wk =   0.0094787
        k(   25) = (   0.1714286   0.0989753   0.0000000), wk =   0.0094787
        k(   26) = (   0.1785714   0.1030993   0.0000000), wk =   0.0094787
        k(   27) = (   0.1857143   0.1072232   0.0000000), wk =   0.0094787
        k(   28) = (   0.1928571   0.1113472   0.0000000), wk =   0.0094787
        k(   29) = (   0.2000000   0.1154712   0.0000000), wk =   0.0094787
        k(   30) = (   0.2071429   0.1195951   0.0000000), wk =   0.0094787
        k(   31) = (   0.2142857   0.1237191   0.0000000), wk =   0.0094787
        k(   32) = (   0.2214286   0.1278431   0.0000000), wk =   0.0094787
        k(   33) = (   0.2285714   0.1319671   0.0000000), wk =   0.0094787
        k(   34) = (   0.2357143   0.1360910   0.0000000), wk =   0.0094787
        k(   35) = (   0.2428571   0.1402150   0.0000000), wk =   0.0094787
        k(   36) = (   0.2500000   0.1443390   0.0000000), wk =   0.0094787
        k(   37) = (   0.2571429   0.1484629   0.0000000), wk =   0.0094787
        k(   38) = (   0.2642857   0.1525869   0.0000000), wk =   0.0094787
        k(   39) = (   0.2714286   0.1567109   0.0000000), wk =   0.0094787
        k(   40) = (   0.2785714   0.1608348   0.0000000), wk =   0.0094787
        k(   41) = (   0.2857143   0.1649588   0.0000000), wk =   0.0094787
        k(   42) = (   0.2928571   0.1690828   0.0000000), wk =   0.0094787
        k(   43) = (   0.3000000   0.1732068   0.0000000), wk =   0.0094787
        k(   44) = (   0.3071429   0.1773307   0.0000000), wk =   0.0094787
        k(   45) = (   0.3142857   0.1814547   0.0000000), wk =   0.0094787
        k(   46) = (   0.3214286   0.1855787   0.0000000), wk =   0.0094787
        k(   47) = (   0.3285714   0.1897026   0.0000000), wk =   0.0094787
        k(   48) = (   0.3357143   0.1938266   0.0000000), wk =   0.0094787
        k(   49) = (   0.3428571   0.1979506   0.0000000), wk =   0.0094787
        k(   50) = (   0.3500000   0.2020745   0.0000000), wk =   0.0094787
        k(   51) = (   0.3571429   0.2061985   0.0000000), wk =   0.0094787
        k(   52) = (   0.3642857   0.2103225   0.0000000), wk =   0.0094787
        k(   53) = (   0.3714286   0.2144465   0.0000000), wk =   0.0094787
        k(   54) = (   0.3785714   0.2185704   0.0000000), wk =   0.0094787
        k(   55) = (   0.3857143   0.2226944   0.0000000), wk =   0.0094787
        k(   56) = (   0.3928571   0.2268184   0.0000000), wk =   0.0094787
        k(   57) = (   0.4000000   0.2309423   0.0000000), wk =   0.0094787
        k(   58) = (   0.4071429   0.2350663   0.0000000), wk =   0.0094787
        k(   59) = (   0.4142857   0.2391903   0.0000000), wk =   0.0094787
        k(   60) = (   0.4214286   0.2433143   0.0000000), wk =   0.0094787
        k(   61) = (   0.4285714   0.2474382   0.0000000), wk =   0.0094787
        k(   62) = (   0.4357143   0.2515622   0.0000000), wk =   0.0094787
        k(   63) = (   0.4428571   0.2556862   0.0000000), wk =   0.0094787
        k(   64) = (   0.4500000   0.2598101   0.0000000), wk =   0.0094787
        k(   65) = (   0.4571429   0.2639341   0.0000000), wk =   0.0094787
        k(   66) = (   0.4642857   0.2680581   0.0000000), wk =   0.0094787
        k(   67) = (   0.4714286   0.2721820   0.0000000), wk =   0.0094787
        k(   68) = (   0.4785714   0.2763060   0.0000000), wk =   0.0094787
        k(   69) = (   0.4857143   0.2804300   0.0000000), wk =   0.0094787
        k(   70) = (   0.4928571   0.2845540   0.0000000), wk =   0.0094787
        k(   71) = (   0.5000000   0.2886779   0.0000000), wk =   0.0094787
        k(   72) = (   0.4976190   0.2928569   0.0000000), wk =   0.0094787
        k(   73) = (   0.4952381   0.2970358   0.0000000), wk =   0.0094787
        k(   74) = (   0.4928571   0.3012148   0.0000000), wk =   0.0094787
        k(   75) = (   0.4904762   0.3053938   0.0000000), wk =   0.0094787
        k(   76) = (   0.4880952   0.3095727   0.0000000), wk =   0.0094787
        k(   77) = (   0.4857143   0.3137517   0.0000000), wk =   0.0094787
        k(   78) = (   0.4833333   0.3179306   0.0000000), wk =   0.0094787
        k(   79) = (   0.4809524   0.3221096   0.0000000), wk =   0.0094787
        k(   80) = (   0.4785714   0.3262885   0.0000000), wk =   0.0094787
        k(   81) = (   0.4761905   0.3304675   0.0000000), wk =   0.0094787
        k(   82) = (   0.4738095   0.3346464   0.0000000), wk =   0.0094787
        k(   83) = (   0.4714286   0.3388254   0.0000000), wk =   0.0094787
        k(   84) = (   0.4690476   0.3430044   0.0000000), wk =   0.0094787
        k(   85) = (   0.4666667   0.3471833   0.0000000), wk =   0.0094787
        k(   86) = (   0.4642857   0.3513623   0.0000000), wk =   0.0094787
        k(   87) = (   0.4619048   0.3555412   0.0000000), wk =   0.0094787
        k(   88) = (   0.4595238   0.3597202   0.0000000), wk =   0.0094787
        k(   89) = (   0.4571429   0.3638991   0.0000000), wk =   0.0094787
        k(   90) = (   0.4547619   0.3680781   0.0000000), wk =   0.0094787
        k(   91) = (   0.4523810   0.3722571   0.0000000), wk =   0.0094787
        k(   92) = (   0.4500000   0.3764360   0.0000000), wk =   0.0094787
        k(   93) = (   0.4476190   0.3806150   0.0000000), wk =   0.0094787
        k(   94) = (   0.4452381   0.3847939   0.0000000), wk =   0.0094787
        k(   95) = (   0.4428571   0.3889729   0.0000000), wk =   0.0094787
        k(   96) = (   0.4404762   0.3931518   0.0000000), wk =   0.0094787
        k(   97) = (   0.4380952   0.3973308   0.0000000), wk =   0.0094787
        k(   98) = (   0.4357143   0.4015098   0.0000000), wk =   0.0094787
        k(   99) = (   0.4333333   0.4056887   0.0000000), wk =   0.0094787
        k(  100) = (   0.4309524   0.4098677   0.0000000), wk =   0.0094787
        k(  101) = (   0.4285714   0.4140466   0.0000000), wk =   0.0094787
        k(  102) = (   0.4261905   0.4182256   0.0000000), wk =   0.0094787
        k(  103) = (   0.4238095   0.4224045   0.0000000), wk =   0.0094787
        k(  104) = (   0.4214286   0.4265835   0.0000000), wk =   0.0094787
        k(  105) = (   0.4190476   0.4307625   0.0000000), wk =   0.0094787
        k(  106) = (   0.4166667   0.4349414   0.0000000), wk =   0.0094787
        k(  107) = (   0.4142857   0.4391204   0.0000000), wk =   0.0094787
        k(  108) = (   0.4119048   0.4432993   0.0000000), wk =   0.0094787
        k(  109) = (   0.4095238   0.4474783   0.0000000), wk =   0.0094787
        k(  110) = (   0.4071429   0.4516572   0.0000000), wk =   0.0094787
        k(  111) = (   0.4047619   0.4558362   0.0000000), wk =   0.0094787
        k(  112) = (   0.4023810   0.4600151   0.0000000), wk =   0.0094787
        k(  113) = (   0.4000000   0.4641941   0.0000000), wk =   0.0094787
        k(  114) = (   0.3976190   0.4683731   0.0000000), wk =   0.0094787
        k(  115) = (   0.3952381   0.4725520   0.0000000), wk =   0.0094787
        k(  116) = (   0.3928571   0.4767310   0.0000000), wk =   0.0094787
        k(  117) = (   0.3904762   0.4809099   0.0000000), wk =   0.0094787
        k(  118) = (   0.3880952   0.4850889   0.0000000), wk =   0.0094787
        k(  119) = (   0.3857143   0.4892678   0.0000000), wk =   0.0094787
        k(  120) = (   0.3833333   0.4934468   0.0000000), wk =   0.0094787
        k(  121) = (   0.3809524   0.4976258   0.0000000), wk =   0.0094787
        k(  122) = (   0.3785714   0.5018047   0.0000000), wk =   0.0094787
        k(  123) = (   0.3761905   0.5059837   0.0000000), wk =   0.0094787
        k(  124) = (   0.3738095   0.5101626   0.0000000), wk =   0.0094787
        k(  125) = (   0.3714286   0.5143416   0.0000000), wk =   0.0094787
        k(  126) = (   0.3690476   0.5185205   0.0000000), wk =   0.0094787
        k(  127) = (   0.3666667   0.5226995   0.0000000), wk =   0.0094787
        k(  128) = (   0.3642857   0.5268785   0.0000000), wk =   0.0094787
        k(  129) = (   0.3619048   0.5310574   0.0000000), wk =   0.0094787
        k(  130) = (   0.3595238   0.5352364   0.0000000), wk =   0.0094787
        k(  131) = (   0.3571429   0.5394153   0.0000000), wk =   0.0094787
        k(  132) = (   0.3547619   0.5435943   0.0000000), wk =   0.0094787
        k(  133) = (   0.3523810   0.5477732   0.0000000), wk =   0.0094787
        k(  134) = (   0.3500000   0.5519522   0.0000000), wk =   0.0094787
        k(  135) = (   0.3476190   0.5561312   0.0000000), wk =   0.0094787
        k(  136) = (   0.3452381   0.5603101   0.0000000), wk =   0.0094787
        k(  137) = (   0.3428571   0.5644891   0.0000000), wk =   0.0094787
        k(  138) = (   0.3404762   0.5686680   0.0000000), wk =   0.0094787
        k(  139) = (   0.3380952   0.5728470   0.0000000), wk =   0.0094787
        k(  140) = (   0.3357143   0.5770259   0.0000000), wk =   0.0094787
        k(  141) = (   0.3333333   0.5812049   0.0000000), wk =   0.0094787
        k(  142) = (   0.3285714   0.5729020   0.0000000), wk =   0.0094787
        k(  143) = (   0.3238095   0.5645990   0.0000000), wk =   0.0094787
        k(  144) = (   0.3190476   0.5562961   0.0000000), wk =   0.0094787
        k(  145) = (   0.3142857   0.5479932   0.0000000), wk =   0.0094787
        k(  146) = (   0.3095238   0.5396903   0.0000000), wk =   0.0094787
        k(  147) = (   0.3047619   0.5313873   0.0000000), wk =   0.0094787
        k(  148) = (   0.3000000   0.5230844   0.0000000), wk =   0.0094787
        k(  149) = (   0.2952381   0.5147815   0.0000000), wk =   0.0094787
        k(  150) = (   0.2904762   0.5064785   0.0000000), wk =   0.0094787
        k(  151) = (   0.2857143   0.4981756   0.0000000), wk =   0.0094787
        k(  152) = (   0.2809524   0.4898727   0.0000000), wk =   0.0094787
        k(  153) = (   0.2761905   0.4815698   0.0000000), wk =   0.0094787
        k(  154) = (   0.2714286   0.4732668   0.0000000), wk =   0.0094787
        k(  155) = (   0.2666667   0.4649639   0.0000000), wk =   0.0094787
        k(  156) = (   0.2619048   0.4566610   0.0000000), wk =   0.0094787
        k(  157) = (   0.2571429   0.4483581   0.0000000), wk =   0.0094787
        k(  158) = (   0.2523810   0.4400551   0.0000000), wk =   0.0094787
        k(  159) = (   0.2476190   0.4317522   0.0000000), wk =   0.0094787
        k(  160) = (   0.2428571   0.4234493   0.0000000), wk =   0.0094787
        k(  161) = (   0.2380952   0.4151464   0.0000000), wk =   0.0094787
        k(  162) = (   0.2333333   0.4068434   0.0000000), wk =   0.0094787
        k(  163) = (   0.2285714   0.3985405   0.0000000), wk =   0.0094787
        k(  164) = (   0.2238095   0.3902376   0.0000000), wk =   0.0094787
        k(  165) = (   0.2190476   0.3819346   0.0000000), wk =   0.0094787
        k(  166) = (   0.2142857   0.3736317   0.0000000), wk =   0.0094787
        k(  167) = (   0.2095238   0.3653288   0.0000000), wk =   0.0094787
        k(  168) = (   0.2047619   0.3570259   0.0000000), wk =   0.0094787
        k(  169) = (   0.2000000   0.3487229   0.0000000), wk =   0.0094787
        k(  170) = (   0.1952381   0.3404200   0.0000000), wk =   0.0094787
        k(  171) = (   0.1904762   0.3321171   0.0000000), wk =   0.0094787
        k(  172) = (   0.1857143   0.3238142   0.0000000), wk =   0.0094787
        k(  173) = (   0.1809524   0.3155112   0.0000000), wk =   0.0094787
        k(  174) = (   0.1761905   0.3072083   0.0000000), wk =   0.0094787
        k(  175) = (   0.1714286   0.2989054   0.0000000), wk =   0.0094787
        k(  176) = (   0.1666667   0.2906024   0.0000000), wk =   0.0094787
        k(  177) = (   0.1619048   0.2822995   0.0000000), wk =   0.0094787
        k(  178) = (   0.1571429   0.2739966   0.0000000), wk =   0.0094787
        k(  179) = (   0.1523810   0.2656937   0.0000000), wk =   0.0094787
        k(  180) = (   0.1476190   0.2573907   0.0000000), wk =   0.0094787
        k(  181) = (   0.1428571   0.2490878   0.0000000), wk =   0.0094787
        k(  182) = (   0.1380952   0.2407849   0.0000000), wk =   0.0094787
        k(  183) = (   0.1333333   0.2324820   0.0000000), wk =   0.0094787
        k(  184) = (   0.1285714   0.2241790   0.0000000), wk =   0.0094787
        k(  185) = (   0.1238095   0.2158761   0.0000000), wk =   0.0094787
        k(  186) = (   0.1190476   0.2075732   0.0000000), wk =   0.0094787
        k(  187) = (   0.1142857   0.1992702   0.0000000), wk =   0.0094787
        k(  188) = (   0.1095238   0.1909673   0.0000000), wk =   0.0094787
        k(  189) = (   0.1047619   0.1826644   0.0000000), wk =   0.0094787
        k(  190) = (   0.1000000   0.1743615   0.0000000), wk =   0.0094787
        k(  191) = (   0.0952381   0.1660585   0.0000000), wk =   0.0094787
        k(  192) = (   0.0904762   0.1577556   0.0000000), wk =   0.0094787
        k(  193) = (   0.0857143   0.1494527   0.0000000), wk =   0.0094787
        k(  194) = (   0.0809524   0.1411498   0.0000000), wk =   0.0094787
        k(  195) = (   0.0761905   0.1328468   0.0000000), wk =   0.0094787
        k(  196) = (   0.0714286   0.1245439   0.0000000), wk =   0.0094787
        k(  197) = (   0.0666667   0.1162410   0.0000000), wk =   0.0094787
        k(  198) = (   0.0619048   0.1079381   0.0000000), wk =   0.0094787
        k(  199) = (   0.0571429   0.0996351   0.0000000), wk =   0.0094787
        k(  200) = (   0.0523810   0.0913322   0.0000000), wk =   0.0094787
        k(  201) = (   0.0476190   0.0830293   0.0000000), wk =   0.0094787
        k(  202) = (   0.0428571   0.0747263   0.0000000), wk =   0.0094787
        k(  203) = (   0.0380952   0.0664234   0.0000000), wk =   0.0094787
        k(  204) = (   0.0333333   0.0581205   0.0000000), wk =   0.0094787
        k(  205) = (   0.0285714   0.0498176   0.0000000), wk =   0.0094787
        k(  206) = (   0.0238095   0.0415146   0.0000000), wk =   0.0094787
        k(  207) = (   0.0190476   0.0332117   0.0000000), wk =   0.0094787
        k(  208) = (   0.0142857   0.0249088   0.0000000), wk =   0.0094787
        k(  209) = (   0.0095238   0.0166059   0.0000000), wk =   0.0094787
        k(  210) = (   0.0047619   0.0083029   0.0000000), wk =   0.0094787
        k(  211) = (   0.0000000   0.0000000   0.0000000), wk =   0.0094787

                       cryst. coord.
        k(    1) = (   0.0000000   0.0000000   0.0000000), wk =   0.0094787
        k(    2) = (   0.0071429   0.0000000   0.0000000), wk =   0.0094787
        k(    3) = (   0.0142857   0.0000000   0.0000000), wk =   0.0094787
        k(    4) = (   0.0214286   0.0000000   0.0000000), wk =   0.0094787
        k(    5) = (   0.0285714   0.0000000   0.0000000), wk =   0.0094787
        k(    6) = (   0.0357143  -0.0000000   0.0000000), wk =   0.0094787
        k(    7) = (   0.0428571   0.0000000   0.0000000), wk =   0.0094787
        k(    8) = (   0.0500000   0.0000000   0.0000000), wk =   0.0094787
        k(    9) = (   0.0571429   0.0000000   0.0000000), wk =   0.0094787
        k(   10) = (   0.0642857   0.0000000   0.0000000), wk =   0.0094787
        k(   11) = (   0.0714286  -0.0000000   0.0000000), wk =   0.0094787
        k(   12) = (   0.0785714  -0.0000000   0.0000000), wk =   0.0094787
        k(   13) = (   0.0857143   0.0000000   0.0000000), wk =   0.0094787
        k(   14) = (   0.0928571   0.0000000   0.0000000), wk =   0.0094787
        k(   15) = (   0.1000000   0.0000000   0.0000000), wk =   0.0094787
        k(   16) = (   0.1071429  -0.0000000   0.0000000), wk =   0.0094787
        k(   17) = (   0.1142857   0.0000000   0.0000000), wk =   0.0094787
        k(   18) = (   0.1214286   0.0000000   0.0000000), wk =   0.0094787
        k(   19) = (   0.1285714   0.0000000   0.0000000), wk =   0.0094787
        k(   20) = (   0.1357143   0.0000000   0.0000000), wk =   0.0094787
        k(   21) = (   0.1428571  -0.0000000   0.0000000), wk =   0.0094787
        k(   22) = (   0.1500000  -0.0000000   0.0000000), wk =   0.0094787
        k(   23) = (   0.1571429  -0.0000000   0.0000000), wk =   0.0094787
        k(   24) = (   0.1642857   0.0000000   0.0000000), wk =   0.0094787
        k(   25) = (   0.1714286   0.0000000   0.0000000), wk =   0.0094787
        k(   26) = (   0.1785714   0.0000000   0.0000000), wk =   0.0094787
        k(   27) = (   0.1857143   0.0000000   0.0000000), wk =   0.0094787
        k(   28) = (   0.1928571   0.0000000   0.0000000), wk =   0.0094787
        k(   29) = (   0.2000000   0.0000000   0.0000000), wk =   0.0094787
        k(   30) = (   0.2071429   0.0000000   0.0000000), wk =   0.0094787
        k(   31) = (   0.2142857  -0.0000000   0.0000000), wk =   0.0094787
        k(   32) = (   0.2214286   0.0000000   0.0000000), wk =   0.0094787
        k(   33) = (   0.2285714   0.0000000   0.0000000), wk =   0.0094787
        k(   34) = (   0.2357143   0.0000000   0.0000000), wk =   0.0094787
        k(   35) = (   0.2428571   0.0000000   0.0000000), wk =   0.0094787
        k(   36) = (   0.2500000   0.0000000   0.0000000), wk =   0.0094787
        k(   37) = (   0.2571429   0.0000000   0.0000000), wk =   0.0094787
        k(   38) = (   0.2642857  -0.0000000   0.0000000), wk =   0.0094787
        k(   39) = (   0.2714286   0.0000000   0.0000000), wk =   0.0094787
        k(   40) = (   0.2785714  -0.0000000   0.0000000), wk =   0.0094787
        k(   41) = (   0.2857143  -0.0000000   0.0000000), wk =   0.0094787
        k(   42) = (   0.2928571   0.0000000   0.0000000), wk =   0.0094787
        k(   43) = (   0.3000000  -0.0000000   0.0000000), wk =   0.0094787
        k(   44) = (   0.3071429   0.0000000   0.0000000), wk =   0.0094787
        k(   45) = (   0.3142857  -0.0000000   0.0000000), wk =   0.0094787
        k(   46) = (   0.3214286   0.0000000   0.0000000), wk =   0.0094787
        k(   47) = (   0.3285714   0.0000000   0.0000000), wk =   0.0094787
        k(   48) = (   0.3357143   0.0000000   0.0000000), wk =   0.0094787
        k(   49) = (   0.3428571   0.0000000   0.0000000), wk =   0.0094787
        k(   50) = (   0.3500000  -0.0000000   0.0000000), wk =   0.0094787
        k(   51) = (   0.3571429   0.0000000   0.0000000), wk =   0.0094787
        k(   52) = (   0.3642857   0.0000000   0.0000000), wk =   0.0094787
        k(   53) = (   0.3714286   0.0000000   0.0000000), wk =   0.0094787
        k(   54) = (   0.3785714   0.0000000   0.0000000), wk =   0.0094787
        k(   55) = (   0.3857143   0.0000000   0.0000000), wk =   0.0094787
        k(   56) = (   0.3928571   0.0000000   0.0000000), wk =   0.0094787
        k(   57) = (   0.4000000   0.0000000   0.0000000), wk =   0.0094787
        k(   58) = (   0.4071429   0.0000000   0.0000000), wk =   0.0094787
        k(   59) = (   0.4142857   0.0000000   0.0000000), wk =   0.0094787
        k(   60) = (   0.4214286  -0.0000000   0.0000000), wk =   0.0094787
        k(   61) = (   0.4285714  -0.0000000   0.0000000), wk =   0.0094787
        k(   62) = (   0.4357143   0.0000000   0.0000000), wk =   0.0094787
        k(   63) = (   0.4428571   0.0000000   0.0000000), wk =   0.0094787
        k(   64) = (   0.4500000  -0.0000000   0.0000000), wk =   0.0094787
        k(   65) = (   0.4571429   0.0000000   0.0000000), wk =   0.0094787
        k(   66) = (   0.4642857  -0.0000000   0.0000000), wk =   0.0094787
        k(   67) = (   0.4714286   0.0000000   0.0000000), wk =   0.0094787
        k(   68) = (   0.4785714   0.0000000   0.0000000), wk =   0.0094787
        k(   69) = (   0.4857143   0.0000000   0.0000000), wk =   0.0094787
        k(   70) = (   0.4928571   0.0000000   0.0000000), wk =   0.0094787
        k(   71) = (   0.5000000   0.0000000   0.0000000), wk =   0.0094787
        k(   72) = (   0.4976190   0.0047619   0.0000000), wk =   0.0094787
        k(   73) = (   0.4952381   0.0095238   0.0000000), wk =   0.0094787
        k(   74) = (   0.4928571   0.0142857   0.0000000), wk =   0.0094787
        k(   75) = (   0.4904762   0.0190476   0.0000000), wk =   0.0094787
        k(   76) = (   0.4880952   0.0238095   0.0000000), wk =   0.0094787
        k(   77) = (   0.4857143   0.0285714   0.0000000), wk =   0.0094787
        k(   78) = (   0.4833333   0.0333333   0.0000000), wk =   0.0094787
        k(   79) = (   0.4809524   0.0380952   0.0000000), wk =   0.0094787
        k(   80) = (   0.4785714   0.0428571   0.0000000), wk =   0.0094787
        k(   81) = (   0.4761905   0.0476190   0.0000000), wk =   0.0094787
        k(   82) = (   0.4738095   0.0523810   0.0000000), wk =   0.0094787
        k(   83) = (   0.4714286   0.0571429   0.0000000), wk =   0.0094787
        k(   84) = (   0.4690476   0.0619048   0.0000000), wk =   0.0094787
        k(   85) = (   0.4666667   0.0666667   0.0000000), wk =   0.0094787
        k(   86) = (   0.4642857   0.0714286   0.0000000), wk =   0.0094787
        k(   87) = (   0.4619048   0.0761905   0.0000000), wk =   0.0094787
        k(   88) = (   0.4595238   0.0809524   0.0000000), wk =   0.0094787
        k(   89) = (   0.4571429   0.0857143   0.0000000), wk =   0.0094787
        k(   90) = (   0.4547619   0.0904762   0.0000000), wk =   0.0094787
        k(   91) = (   0.4523810   0.0952381   0.0000000), wk =   0.0094787
        k(   92) = (   0.4500000   0.1000000   0.0000000), wk =   0.0094787
        k(   93) = (   0.4476190   0.1047619   0.0000000), wk =   0.0094787
        k(   94) = (   0.4452381   0.1095238   0.0000000), wk =   0.0094787
        k(   95) = (   0.4428571   0.1142857   0.0000000), wk =   0.0094787
        k(   96) = (   0.4404762   0.1190476   0.0000000), wk =   0.0094787
        k(   97) = (   0.4380952   0.1238095   0.0000000), wk =   0.0094787
        k(   98) = (   0.4357143   0.1285714   0.0000000), wk =   0.0094787
        k(   99) = (   0.4333333   0.1333333   0.0000000), wk =   0.0094787
        k(  100) = (   0.4309524   0.1380952   0.0000000), wk =   0.0094787
        k(  101) = (   0.4285714   0.1428571   0.0000000), wk =   0.0094787
        k(  102) = (   0.4261905   0.1476190   0.0000000), wk =   0.0094787
        k(  103) = (   0.4238095   0.1523810   0.0000000), wk =   0.0094787
        k(  104) = (   0.4214286   0.1571429   0.0000000), wk =   0.0094787
        k(  105) = (   0.4190476   0.1619048   0.0000000), wk =   0.0094787
        k(  106) = (   0.4166667   0.1666667   0.0000000), wk =   0.0094787
        k(  107) = (   0.4142857   0.1714286   0.0000000), wk =   0.0094787
        k(  108) = (   0.4119048   0.1761905   0.0000000), wk =   0.0094787
        k(  109) = (   0.4095238   0.1809524   0.0000000), wk =   0.0094787
        k(  110) = (   0.4071429   0.1857143   0.0000000), wk =   0.0094787
        k(  111) = (   0.4047619   0.1904762   0.0000000), wk =   0.0094787
        k(  112) = (   0.4023810   0.1952381   0.0000000), wk =   0.0094787
        k(  113) = (   0.4000000   0.2000000   0.0000000), wk =   0.0094787
        k(  114) = (   0.3976190   0.2047619   0.0000000), wk =   0.0094787
        k(  115) = (   0.3952381   0.2095238   0.0000000), wk =   0.0094787
        k(  116) = (   0.3928571   0.2142857   0.0000000), wk =   0.0094787
        k(  117) = (   0.3904762   0.2190476   0.0000000), wk =   0.0094787
        k(  118) = (   0.3880952   0.2238095   0.0000000), wk =   0.0094787
        k(  119) = (   0.3857143   0.2285714   0.0000000), wk =   0.0094787
        k(  120) = (   0.3833333   0.2333333   0.0000000), wk =   0.0094787
        k(  121) = (   0.3809524   0.2380952   0.0000000), wk =   0.0094787
        k(  122) = (   0.3785714   0.2428571   0.0000000), wk =   0.0094787
        k(  123) = (   0.3761905   0.2476190   0.0000000), wk =   0.0094787
        k(  124) = (   0.3738095   0.2523810   0.0000000), wk =   0.0094787
        k(  125) = (   0.3714286   0.2571429   0.0000000), wk =   0.0094787
        k(  126) = (   0.3690476   0.2619048   0.0000000), wk =   0.0094787
        k(  127) = (   0.3666667   0.2666667   0.0000000), wk =   0.0094787
        k(  128) = (   0.3642857   0.2714286   0.0000000), wk =   0.0094787
        k(  129) = (   0.3619048   0.2761905   0.0000000), wk =   0.0094787
        k(  130) = (   0.3595238   0.2809524   0.0000000), wk =   0.0094787
        k(  131) = (   0.3571429   0.2857143   0.0000000), wk =   0.0094787
        k(  132) = (   0.3547619   0.2904762   0.0000000), wk =   0.0094787
        k(  133) = (   0.3523810   0.2952381   0.0000000), wk =   0.0094787
        k(  134) = (   0.3500000   0.3000000   0.0000000), wk =   0.0094787
        k(  135) = (   0.3476190   0.3047619   0.0000000), wk =   0.0094787
        k(  136) = (   0.3452381   0.3095238   0.0000000), wk =   0.0094787
        k(  137) = (   0.3428571   0.3142857   0.0000000), wk =   0.0094787
        k(  138) = (   0.3404762   0.3190476   0.0000000), wk =   0.0094787
        k(  139) = (   0.3380952   0.3238095   0.0000000), wk =   0.0094787
        k(  140) = (   0.3357143   0.3285714   0.0000000), wk =   0.0094787
        k(  141) = (   0.3333333   0.3333333   0.0000000), wk =   0.0094787
        k(  142) = (   0.3285714   0.3285714   0.0000000), wk =   0.0094787
        k(  143) = (   0.3238095   0.3238095   0.0000000), wk =   0.0094787
        k(  144) = (   0.3190476   0.3190476   0.0000000), wk =   0.0094787
        k(  145) = (   0.3142857   0.3142857   0.0000000), wk =   0.0094787
        k(  146) = (   0.3095238   0.3095238   0.0000000), wk =   0.0094787
        k(  147) = (   0.3047619   0.3047619   0.0000000), wk =   0.0094787
        k(  148) = (   0.3000000   0.3000000   0.0000000), wk =   0.0094787
        k(  149) = (   0.2952381   0.2952381   0.0000000), wk =   0.0094787
        k(  150) = (   0.2904762   0.2904762   0.0000000), wk =   0.0094787
        k(  151) = (   0.2857143   0.2857143   0.0000000), wk =   0.0094787
        k(  152) = (   0.2809524   0.2809524   0.0000000), wk =   0.0094787
        k(  153) = (   0.2761905   0.2761905   0.0000000), wk =   0.0094787
        k(  154) = (   0.2714286   0.2714286   0.0000000), wk =   0.0094787
        k(  155) = (   0.2666667   0.2666667   0.0000000), wk =   0.0094787
        k(  156) = (   0.2619048   0.2619048   0.0000000), wk =   0.0094787
        k(  157) = (   0.2571429   0.2571429   0.0000000), wk =   0.0094787
        k(  158) = (   0.2523810   0.2523810   0.0000000), wk =   0.0094787
        k(  159) = (   0.2476190   0.2476190   0.0000000), wk =   0.0094787
        k(  160) = (   0.2428571   0.2428571   0.0000000), wk =   0.0094787
        k(  161) = (   0.2380952   0.2380952   0.0000000), wk =   0.0094787
        k(  162) = (   0.2333333   0.2333333   0.0000000), wk =   0.0094787
        k(  163) = (   0.2285714   0.2285714   0.0000000), wk =   0.0094787
        k(  164) = (   0.2238095   0.2238095   0.0000000), wk =   0.0094787
        k(  165) = (   0.2190476   0.2190476   0.0000000), wk =   0.0094787
        k(  166) = (   0.2142857   0.2142857   0.0000000), wk =   0.0094787
        k(  167) = (   0.2095238   0.2095238   0.0000000), wk =   0.0094787
        k(  168) = (   0.2047619   0.2047619   0.0000000), wk =   0.0094787
        k(  169) = (   0.2000000   0.2000000   0.0000000), wk =   0.0094787
        k(  170) = (   0.1952381   0.1952381   0.0000000), wk =   0.0094787
        k(  171) = (   0.1904762   0.1904762   0.0000000), wk =   0.0094787
        k(  172) = (   0.1857143   0.1857143   0.0000000), wk =   0.0094787
        k(  173) = (   0.1809524   0.1809524   0.0000000), wk =   0.0094787
        k(  174) = (   0.1761905   0.1761905   0.0000000), wk =   0.0094787
        k(  175) = (   0.1714286   0.1714286   0.0000000), wk =   0.0094787
        k(  176) = (   0.1666667   0.1666667   0.0000000), wk =   0.0094787
        k(  177) = (   0.1619048   0.1619048   0.0000000), wk =   0.0094787
        k(  178) = (   0.1571429   0.1571429   0.0000000), wk =   0.0094787
        k(  179) = (   0.1523810   0.1523810   0.0000000), wk =   0.0094787
        k(  180) = (   0.1476190   0.1476190   0.0000000), wk =   0.0094787
        k(  181) = (   0.1428571   0.1428571   0.0000000), wk =   0.0094787
        k(  182) = (   0.1380952   0.1380952   0.0000000), wk =   0.0094787
        k(  183) = (   0.1333333   0.1333333   0.0000000), wk =   0.0094787
        k(  184) = (   0.1285714   0.1285714   0.0000000), wk =   0.0094787
        k(  185) = (   0.1238095   0.1238095   0.0000000), wk =   0.0094787
        k(  186) = (   0.1190476   0.1190476   0.0000000), wk =   0.0094787
        k(  187) = (   0.1142857   0.1142857   0.0000000), wk =   0.0094787
        k(  188) = (   0.1095238   0.1095238   0.0000000), wk =   0.0094787
        k(  189) = (   0.1047619   0.1047619   0.0000000), wk =   0.0094787
        k(  190) = (   0.1000000   0.1000000   0.0000000), wk =   0.0094787
        k(  191) = (   0.0952381   0.0952381   0.0000000), wk =   0.0094787
        k(  192) = (   0.0904762   0.0904762   0.0000000), wk =   0.0094787
        k(  193) = (   0.0857143   0.0857143   0.0000000), wk =   0.0094787
        k(  194) = (   0.0809524   0.0809524   0.0000000), wk =   0.0094787
        k(  195) = (   0.0761905   0.0761905   0.0000000), wk =   0.0094787
        k(  196) = (   0.0714286   0.0714286   0.0000000), wk =   0.0094787
        k(  197) = (   0.0666667   0.0666667   0.0000000), wk =   0.0094787
        k(  198) = (   0.0619048   0.0619048   0.0000000), wk =   0.0094787
        k(  199) = (   0.0571429   0.0571429   0.0000000), wk =   0.0094787
        k(  200) = (   0.0523810   0.0523810   0.0000000), wk =   0.0094787
        k(  201) = (   0.0476190   0.0476190   0.0000000), wk =   0.0094787
        k(  202) = (   0.0428571   0.0428571   0.0000000), wk =   0.0094787
        k(  203) = (   0.0380952   0.0380952   0.0000000), wk =   0.0094787
        k(  204) = (   0.0333333   0.0333333   0.0000000), wk =   0.0094787
        k(  205) = (   0.0285714   0.0285714   0.0000000), wk =   0.0094787
        k(  206) = (   0.0238095   0.0238095   0.0000000), wk =   0.0094787
        k(  207) = (   0.0190476   0.0190476   0.0000000), wk =   0.0094787
        k(  208) = (   0.0142857   0.0142857   0.0000000), wk =   0.0094787
        k(  209) = (   0.0095238   0.0095238   0.0000000), wk =   0.0094787
        k(  210) = (   0.0047619   0.0047619   0.0000000), wk =   0.0094787
        k(  211) = (   0.0000000   0.0000000   0.0000000), wk =   0.0094787

     Dense  grid:   458817 G-vectors     FFT dimensions: (  60,  60, 300)

     Smooth grid:   116185 G-vectors     FFT dimensions: (  40,  40, 192)

     Dynamical RAM for                 wfc:       0.92 MB

     Dynamical RAM for     wfc (w. buffer):       0.92 MB

     Dynamical RAM for           str. fact:       0.58 MB

     Dynamical RAM for           local pot:       0.00 MB

     Dynamical RAM for          nlocal pot:       0.83 MB

     Dynamical RAM for                qrad:       3.59 MB

     Dynamical RAM for          rho,v,vnew:       1.95 MB

     Dynamical RAM for           G-vectors:       1.13 MB

     Dynamical RAM for          h,s,v(r/c):       1.83 MB

     Dynamical RAM for          <psi|beta>:       0.14 MB

     Dynamical RAM for                 psi:       1.84 MB

     Dynamical RAM for                hpsi:       1.84 MB

     Dynamical RAM for      wfcinit/wfcrot:       2.07 MB

     Estimated static dynamical RAM per process >      11.66 MB

     Estimated max dynamical RAM per process >      17.32 MB

     Estimated total dynamical RAM >     415.58 MB

     The potential is recalculated from file :
     tmp/Sb2Te3-uatsx-c3-1.0.save/charge-density

     Starting wfcs are random

     Band Structure Calculation
     Davidson diagonalization with overlap

     Computing kpt #:     1  of   211
     total cpu time spent up to now is        3.9 secs

     Computing kpt #:     2  of   211
     total cpu time spent up to now is        6.2 secs

     Computing kpt #:     3  of   211
     total cpu time spent up to now is        8.5 secs

     Computing kpt #:     4  of   211
     total cpu time spent up to now is       10.8 secs

     Computing kpt #:     5  of   211
     total cpu time spent up to now is       13.0 secs

     Computing kpt #:     6  of   211
     total cpu time spent up to now is       15.1 secs

     Computing kpt #:     7  of   211
     total cpu time spent up to now is       17.0 secs

     Computing kpt #:     8  of   211
     total cpu time spent up to now is       19.0 secs

     Computing kpt #:     9  of   211
     total cpu time spent up to now is       20.9 secs

     Computing kpt #:    10  of   211
     total cpu time spent up to now is       22.8 secs

     Computing kpt #:    11  of   211
     total cpu time spent up to now is       24.7 secs

     Computing kpt #:    12  of   211
     total cpu time spent up to now is       26.5 secs

     Computing kpt #:    13  of   211
     total cpu time spent up to now is       28.4 secs

     Computing kpt #:    14  of   211
     total cpu time spent up to now is       30.5 secs

     Computing kpt #:    15  of   211
     total cpu time spent up to now is       32.6 secs

     Computing kpt #:    16  of   211
     total cpu time spent up to now is       34.7 secs

     Computing kpt #:    17  of   211
     total cpu time spent up to now is       36.9 secs

     Computing kpt #:    18  of   211
     total cpu time spent up to now is       39.1 secs

     Computing kpt #:    19  of   211
     total cpu time spent up to now is       41.2 secs

     Computing kpt #:    20  of   211
     total cpu time spent up to now is       43.3 secs

     Computing kpt #:    21  of   211
     total cpu time spent up to now is       45.3 secs

     Computing kpt #:    22  of   211
     total cpu time spent up to now is       47.4 secs

     Computing kpt #:    23  of   211
     total cpu time spent up to now is       49.8 secs

     Computing kpt #:    24  of   211
     total cpu time spent up to now is       52.0 secs

     Computing kpt #:    25  of   211
     total cpu time spent up to now is       54.2 secs

     Computing kpt #:    26  of   211
     total cpu time spent up to now is       56.6 secs

     Computing kpt #:    27  of   211
     total cpu time spent up to now is       58.8 secs

     Computing kpt #:    28  of   211
     total cpu time spent up to now is       61.0 secs

     Computing kpt #:    29  of   211
     total cpu time spent up to now is       63.3 secs

     Computing kpt #:    30  of   211
     total cpu time spent up to now is       65.7 secs

     Computing kpt #:    31  of   211
     total cpu time spent up to now is       68.1 secs

     Computing kpt #:    32  of   211
     total cpu time spent up to now is       70.5 secs

     Computing kpt #:    33  of   211
     total cpu time spent up to now is       72.7 secs

     Computing kpt #:    34  of   211
     total cpu time spent up to now is       74.9 secs

     Computing kpt #:    35  of   211
     total cpu time spent up to now is       77.3 secs

     Computing kpt #:    36  of   211
     total cpu time spent up to now is       79.5 secs

     Computing kpt #:    37  of   211
     total cpu time spent up to now is       81.6 secs

     Computing kpt #:    38  of   211
     total cpu time spent up to now is       84.0 secs

     Computing kpt #:    39  of   211
     total cpu time spent up to now is       86.3 secs

     Computing kpt #:    40  of   211
     total cpu time spent up to now is       88.8 secs

     Computing kpt #:    41  of   211
     total cpu time spent up to now is       91.2 secs

     Computing kpt #:    42  of   211
     total cpu time spent up to now is       93.7 secs

     Computing kpt #:    43  of   211
     total cpu time spent up to now is       95.9 secs

     Computing kpt #:    44  of   211
     total cpu time spent up to now is       98.0 secs

     Computing kpt #:    45  of   211
     total cpu time spent up to now is      100.0 secs

     Computing kpt #:    46  of   211
     total cpu time spent up to now is      101.9 secs

     Computing kpt #:    47  of   211
     total cpu time spent up to now is      103.8 secs

     Computing kpt #:    48  of   211
     total cpu time spent up to now is      105.7 secs

     Computing kpt #:    49  of   211
     total cpu time spent up to now is      107.6 secs

     Computing kpt #:    50  of   211
     total cpu time spent up to now is      109.6 secs

     Computing kpt #:    51  of   211
     total cpu time spent up to now is      112.0 secs

     Computing kpt #:    52  of   211
     total cpu time spent up to now is      113.9 secs

     Computing kpt #:    53  of   211
     total cpu time spent up to now is      115.9 secs

     Computing kpt #:    54  of   211
     total cpu time spent up to now is      117.9 secs

     Computing kpt #:    55  of   211
     total cpu time spent up to now is      119.9 secs

     Computing kpt #:    56  of   211
     total cpu time spent up to now is      122.1 secs

     Computing kpt #:    57  of   211
     total cpu time spent up to now is      124.1 secs

     Computing kpt #:    58  of   211
     total cpu time spent up to now is      126.1 secs

     Computing kpt #:    59  of   211
     total cpu time spent up to now is      128.2 secs

     Computing kpt #:    60  of   211
     total cpu time spent up to now is      130.2 secs

     Computing kpt #:    61  of   211
     total cpu time spent up to now is      132.5 secs

     Computing kpt #:    62  of   211
     total cpu time spent up to now is      134.7 secs

     Computing kpt #:    63  of   211
     total cpu time spent up to now is      136.8 secs

     Computing kpt #:    64  of   211
     total cpu time spent up to now is      138.9 secs

     Computing kpt #:    65  of   211
     total cpu time spent up to now is      141.3 secs

     Computing kpt #:    66  of   211
     total cpu time spent up to now is      143.9 secs

     Computing kpt #:    67  of   211
     total cpu time spent up to now is      146.1 secs

     Computing kpt #:    68  of   211
     total cpu time spent up to now is      148.4 secs

     Computing kpt #:    69  of   211
     total cpu time spent up to now is      150.5 secs

     Computing kpt #:    70  of   211
     total cpu time spent up to now is      152.9 secs

     Computing kpt #:    71  of   211
     total cpu time spent up to now is      155.3 secs

     Computing kpt #:    72  of   211
     total cpu time spent up to now is      157.8 secs

     Computing kpt #:    73  of   211
     total cpu time spent up to now is      160.2 secs

     Computing kpt #:    74  of   211
     total cpu time spent up to now is      162.8 secs

     Computing kpt #:    75  of   211
     total cpu time spent up to now is      165.2 secs

     Computing kpt #:    76  of   211
     total cpu time spent up to now is      167.7 secs

     Computing kpt #:    77  of   211
     total cpu time spent up to now is      170.8 secs

     Computing kpt #:    78  of   211
     total cpu time spent up to now is      173.4 secs

     Computing kpt #:    79  of   211
     total cpu time spent up to now is      175.8 secs

     Computing kpt #:    80  of   211
     total cpu time spent up to now is      178.4 secs

     Computing kpt #:    81  of   211
     total cpu time spent up to now is      180.8 secs

     Computing kpt #:    82  of   211
     total cpu time spent up to now is      183.7 secs

     Computing kpt #:    83  of   211
     total cpu time spent up to now is      185.8 secs

     Computing kpt #:    84  of   211
     total cpu time spent up to now is      188.0 secs

     Computing kpt #:    85  of   211
     total cpu time spent up to now is      190.2 secs

     Computing kpt #:    86  of   211
     total cpu time spent up to now is      192.4 secs

     Computing kpt #:    87  of   211
     total cpu time spent up to now is      194.7 secs

     Computing kpt #:    88  of   211
     total cpu time spent up to now is      197.0 secs

     Computing kpt #:    89  of   211
     total cpu time spent up to now is      199.2 secs

     Computing kpt #:    90  of   211
     total cpu time spent up to now is      201.4 secs

     Computing kpt #:    91  of   211
     total cpu time spent up to now is      203.6 secs

     Computing kpt #:    92  of   211
     total cpu time spent up to now is      205.8 secs

     Computing kpt #:    93  of   211
     total cpu time spent up to now is      208.1 secs

     Computing kpt #:    94  of   211
     total cpu time spent up to now is      210.6 secs

     Computing kpt #:    95  of   211
     total cpu time spent up to now is      213.0 secs

     Computing kpt #:    96  of   211
     total cpu time spent up to now is      215.5 secs

     Computing kpt #:    97  of   211
     total cpu time spent up to now is      217.8 secs

     Computing kpt #:    98  of   211
     total cpu time spent up to now is      220.1 secs

     Computing kpt #:    99  of   211
     total cpu time spent up to now is      222.4 secs

     Computing kpt #:   100  of   211
     total cpu time spent up to now is      224.6 secs

     Computing kpt #:   101  of   211
     total cpu time spent up to now is      226.8 secs

     Computing kpt #:   102  of   211
     total cpu time spent up to now is      229.0 secs

     Computing kpt #:   103  of   211
     total cpu time spent up to now is      231.2 secs

     Computing kpt #:   104  of   211
     total cpu time spent up to now is      233.5 secs

     Computing kpt #:   105  of   211
     total cpu time spent up to now is      236.0 secs

     Computing kpt #:   106  of   211
     total cpu time spent up to now is      238.5 secs

     Computing kpt #:   107  of   211
     c_bands:  1 eigenvalues not converged
     total cpu time spent up to now is      241.7 secs

     Computing kpt #:   108  of   211
     total cpu time spent up to now is      244.2 secs

     Computing kpt #:   109  of   211
     total cpu time spent up to now is      247.1 secs

     Computing kpt #:   110  of   211
     total cpu time spent up to now is      249.6 secs

     Computing kpt #:   111  of   211
     total cpu time spent up to now is      252.0 secs

     Computing kpt #:   112  of   211
     total cpu time spent up to now is      254.4 secs

     Computing kpt #:   113  of   211
     total cpu time spent up to now is      256.5 secs

     Computing kpt #:   114  of   211
     total cpu time spent up to now is      258.7 secs

     Computing kpt #:   115  of   211
     total cpu time spent up to now is      261.0 secs

     Computing kpt #:   116  of   211
     total cpu time spent up to now is      263.2 secs

     Computing kpt #:   117  of   211
     total cpu time spent up to now is      265.5 secs

     Computing kpt #:   118  of   211
     total cpu time spent up to now is      268.0 secs

     Computing kpt #:   119  of   211
     total cpu time spent up to now is      270.8 secs

     Computing kpt #:   120  of   211
     c_bands:  1 eigenvalues not converged
     total cpu time spent up to now is      274.1 secs

     Computing kpt #:   121  of   211
     total cpu time spent up to now is      276.6 secs

     Computing kpt #:   122  of   211
     total cpu time spent up to now is      279.1 secs

     Computing kpt #:   123  of   211
     total cpu time spent up to now is      281.3 secs

     Computing kpt #:   124  of   211
     total cpu time spent up to now is      283.6 secs

     Computing kpt #:   125  of   211
     total cpu time spent up to now is      286.1 secs

     Computing kpt #:   126  of   211
     total cpu time spent up to now is      288.4 secs

     Computing kpt #:   127  of   211
     total cpu time spent up to now is      290.9 secs

     Computing kpt #:   128  of   211
     total cpu time spent up to now is      293.3 secs

     Computing kpt #:   129  of   211
     total cpu time spent up to now is      295.8 secs

     Computing kpt #:   130  of   211
     total cpu time spent up to now is      298.1 secs

     Computing kpt #:   131  of   211
     total cpu time spent up to now is      300.3 secs

     Computing kpt #:   132  of   211
     total cpu time spent up to now is      302.6 secs

     Computing kpt #:   133  of   211
     total cpu time spent up to now is      304.9 secs

     Computing kpt #:   134  of   211
     total cpu time spent up to now is      307.3 secs

     Computing kpt #:   135  of   211
     total cpu time spent up to now is      309.7 secs

     Computing kpt #:   136  of   211
     total cpu time spent up to now is      312.3 secs

     Computing kpt #:   137  of   211
     total cpu time spent up to now is      314.7 secs

     Computing kpt #:   138  of   211
     total cpu time spent up to now is      317.1 secs

     Computing kpt #:   139  of   211
     total cpu time spent up to now is      319.4 secs

     Computing kpt #:   140  of   211
     total cpu time spent up to now is      321.8 secs

     Computing kpt #:   141  of   211
     total cpu time spent up to now is      324.1 secs

     Computing kpt #:   142  of   211
     total cpu time spent up to now is      326.4 secs

     Computing kpt #:   143  of   211
     total cpu time spent up to now is      328.7 secs

     Computing kpt #:   144  of   211
     total cpu time spent up to now is      331.0 secs

     Computing kpt #:   145  of   211
     total cpu time spent up to now is      333.5 secs

     Computing kpt #:   146  of   211
     total cpu time spent up to now is      336.0 secs

     Computing kpt #:   147  of   211
     total cpu time spent up to now is      338.3 secs

     Computing kpt #:   148  of   211
     total cpu time spent up to now is      340.6 secs

     Computing kpt #:   149  of   211
     total cpu time spent up to now is      342.9 secs

     Computing kpt #:   150  of   211
     total cpu time spent up to now is      345.2 secs

     Computing kpt #:   151  of   211
     total cpu time spent up to now is      347.7 secs

     Computing kpt #:   152  of   211
     total cpu time spent up to now is      350.4 secs

     Computing kpt #:   153  of   211
     total cpu time spent up to now is      352.9 secs

     Computing kpt #:   154  of   211
     total cpu time spent up to now is      355.4 secs

     Computing kpt #:   155  of   211
     total cpu time spent up to now is      358.0 secs

     Computing kpt #:   156  of   211
     total cpu time spent up to now is      360.5 secs

     Computing kpt #:   157  of   211
     total cpu time spent up to now is      363.0 secs

     Computing kpt #:   158  of   211
     total cpu time spent up to now is      365.4 secs

     Computing kpt #:   159  of   211
     total cpu time spent up to now is      367.7 secs

     Computing kpt #:   160  of   211
     total cpu time spent up to now is      370.0 secs

     Computing kpt #:   161  of   211
     total cpu time spent up to now is      372.6 secs

     Computing kpt #:   162  of   211
     total cpu time spent up to now is      375.1 secs

     Computing kpt #:   163  of   211
     total cpu time spent up to now is      377.3 secs

     Computing kpt #:   164  of   211
     total cpu time spent up to now is      379.5 secs

     Computing kpt #:   165  of   211
     total cpu time spent up to now is      381.7 secs

     Computing kpt #:   166  of   211
     total cpu time spent up to now is      383.8 secs

     Computing kpt #:   167  of   211
     total cpu time spent up to now is      386.3 secs

     Computing kpt #:   168  of   211
     total cpu time spent up to now is      388.7 secs

     Computing kpt #:   169  of   211
     total cpu time spent up to now is      391.0 secs

     Computing kpt #:   170  of   211
     total cpu time spent up to now is      393.1 secs

     Computing kpt #:   171  of   211
     total cpu time spent up to now is      395.3 secs

     Computing kpt #:   172  of   211
     total cpu time spent up to now is      397.4 secs

     Computing kpt #:   173  of   211
     total cpu time spent up to now is      399.5 secs

     Computing kpt #:   174  of   211
     total cpu time spent up to now is      401.6 secs

     Computing kpt #:   175  of   211
     total cpu time spent up to now is      403.7 secs

     Computing kpt #:   176  of   211
     total cpu time spent up to now is      405.9 secs

     Computing kpt #:   177  of   211
     total cpu time spent up to now is      407.9 secs

     Computing kpt #:   178  of   211
     total cpu time spent up to now is      410.4 secs

     Computing kpt #:   179  of   211
     c_bands:  1 eigenvalues not converged
     total cpu time spent up to now is      413.6 secs

     Computing kpt #:   180  of   211
     total cpu time spent up to now is      416.1 secs

     Computing kpt #:   181  of   211
     total cpu time spent up to now is      418.5 secs

     Computing kpt #:   182  of   211
     total cpu time spent up to now is      420.8 secs

     Computing kpt #:   183  of   211
     total cpu time spent up to now is      423.0 secs

     Computing kpt #:   184  of   211
     total cpu time spent up to now is      425.4 secs

     Computing kpt #:   185  of   211
     total cpu time spent up to now is      427.9 secs

     Computing kpt #:   186  of   211
     total cpu time spent up to now is      430.1 secs

     Computing kpt #:   187  of   211
     total cpu time spent up to now is      432.6 secs

     Computing kpt #:   188  of   211
     total cpu time spent up to now is      435.0 secs

     Computing kpt #:   189  of   211
     total cpu time spent up to now is      437.4 secs

     Computing kpt #:   190  of   211
     total cpu time spent up to now is      439.8 secs

     Computing kpt #:   191  of   211
     total cpu time spent up to now is      442.0 secs

     Computing kpt #:   192  of   211
     total cpu time spent up to now is      444.1 secs

     Computing kpt #:   193  of   211
     total cpu time spent up to now is      446.1 secs

     Computing kpt #:   194  of   211
     total cpu time spent up to now is      448.4 secs

     Computing kpt #:   195  of   211
     total cpu time spent up to now is      450.7 secs

     Computing kpt #:   196  of   211
     total cpu time spent up to now is      453.1 secs

     Computing kpt #:   197  of   211
     total cpu time spent up to now is      455.5 secs

     Computing kpt #:   198  of   211
     total cpu time spent up to now is      457.9 secs

     Computing kpt #:   199  of   211
     total cpu time spent up to now is      460.2 secs

     Computing kpt #:   200  of   211
     total cpu time spent up to now is      462.7 secs

     Computing kpt #:   201  of   211
     total cpu time spent up to now is      465.0 secs

     Computing kpt #:   202  of   211
     total cpu time spent up to now is      467.3 secs

     Computing kpt #:   203  of   211
     total cpu time spent up to now is      469.6 secs

     Computing kpt #:   204  of   211
     total cpu time spent up to now is      472.0 secs

     Computing kpt #:   205  of   211
     total cpu time spent up to now is      474.2 secs

     Computing kpt #:   206  of   211
     total cpu time spent up to now is      476.7 secs

     Computing kpt #:   207  of   211
     total cpu time spent up to now is      479.2 secs

     Computing kpt #:   208  of   211
     total cpu time spent up to now is      481.6 secs

     Computing kpt #:   209  of   211
     total cpu time spent up to now is      484.1 secs

     Computing kpt #:   210  of   211
     total cpu time spent up to now is      486.4 secs

     Computing kpt #:   211  of   211
     total cpu time spent up to now is      488.8 secs

     ethr =  1.28E-10,  avg # of iterations = 59.2

     total cpu time spent up to now is      488.8 secs

     End of band structure calculation

          k = 0.0000 0.0000 0.0000 ( 14485 PWs)   bands (ev):

   -34.6336 -34.6335 -34.6279 -34.6278 -34.6059 -34.6037 -34.5999 -34.5983
   -34.5944 -34.5887 -34.5212 -34.5109 -34.5075 -34.4713 -34.4711 -27.3915
   -27.3914 -27.3875 -27.3874 -27.3828 -27.3796 -27.3790 -27.3789 -27.3756
   -27.3750 -10.6175 -10.0901  -9.0042  -6.2476  -4.8367  -0.1467   0.2555
     0.3418   0.4763   0.5406   0.8547   1.0836   1.1347   1.3899   2.4368
     2.8852   2.9236   3.8884   3.9545   3.9800   6.2691   6.4679   7.0168
     7.6887   7.7079   7.8540   8.4634   8.7124   8.8680   9.0090   9.1602
     9.7061   9.7601  10.0817  10.2047  10.5926  11.1995  11.3471  11.5489
    11.6555  11.7258  12.8491  12.9409  14.0206  14.1558  14.2629  14.3241
    14.4516  15.1647  15.9250  16.0653  16.1146  16.2585  16.3427  16.4176
    16.7810  17.2281  17.2997  17.3620  17.4305  17.4981  17.6004  17.6824
    17.6847  17.7822  17.7990  17.8771  18.0048  18.2712  19.2062  19.2830
    19.3136  19.3371  19.4058  19.5519

          k = 0.0071 0.0041 0.0000 ( 14485 PWs)   bands (ev):

   -34.6336 -34.6335 -34.6279 -34.6278 -34.6059 -34.6037 -34.5999 -34.5983
   -34.5944 -34.5887 -34.5212 -34.5109 -34.5075 -34.4713 -34.4711 -27.3915
   -27.3914 -27.3875 -27.3874 -27.3828 -27.3796 -27.3790 -27.3789 -27.3756
   -27.3750 -10.6170 -10.0897  -9.0040  -6.2476  -4.8374  -0.1476   0.2497
     0.3391   0.4716   0.5397   0.8578   1.0811   1.1353   1.3953   2.4429
     2.8816   2.9239   3.8927   3.9546   3.9801   6.2700   6.4681   7.0170
     7.6889   7.7041   7.8545   8.4668   8.7118   8.8649   9.0094   9.1594
     9.7114   9.7625  10.0808  10.2074  10.5954  11.1976  11.3419  11.5249
    11.6829  11.7332  12.8489  12.9422  14.0062  14.1399  14.2737  14.3372
    14.4568  15.1685  15.9048  16.0501  16.1064  16.2823  16.3557  16.4189
    16.7863  17.1885  17.2452  17.3950  17.4502  17.4969  17.5784  17.6138
    17.7318  17.8001  17.8209  17.9105  18.0196  18.2839  19.1442  19.2236
    19.3032  19.3966  19.4229  19.5231

          k = 0.0143 0.0082 0.0000 ( 14491 PWs)   bands (ev):

   -34.6336 -34.6335 -34.6279 -34.6278 -34.6059 -34.6037 -34.5999 -34.5983
   -34.5944 -34.5887 -34.5212 -34.5109 -34.5075 -34.4713 -34.4711 -27.3915
   -27.3914 -27.3874 -27.3874 -27.3828 -27.3796 -27.3790 -27.3789 -27.3756
   -27.3750 -10.6157 -10.0885  -9.0032  -6.2478  -4.8396  -0.1504   0.2326
     0.3312   0.4575   0.5375   0.8658   1.0740   1.1371   1.4110   2.4607
     2.8704   2.9256   3.9050   3.9545   3.9813   6.2724   6.4687   7.0177
     7.6889   7.6935   7.8561   8.4764   8.7095   8.8559   9.0113   9.1572
     9.7264   9.7697  10.0784  10.2157  10.6040  11.1911  11.3273  11.4831
    11.7328  11.7569  12.8482  12.9460  13.9691  14.1044  14.2941  14.3692
    14.4738  15.1785  15.8527  16.0151  16.0920  16.3281  16.3890  16.4249
    16.8029  17.0759  17.2200  17.3414  17.4405  17.4926  17.5768  17.6316
    17.7105  17.7985  17.9240  17.9852  18.0620  18.3199  19.0324  19.1446
    19.2411  19.4213  19.4739  19.4952

          k = 0.0214 0.0124 0.0000 ( 14486 PWs)   bands (ev):

   -34.6336 -34.6335 -34.6279 -34.6278 -34.6059 -34.6037 -34.5999 -34.5983
   -34.5944 -34.5887 -34.5212 -34.5109 -34.5075 -34.4713 -34.4711 -27.3915
   -27.3914 -27.3874 -27.3874 -27.3828 -27.3797 -27.3790 -27.3789 -27.3757
   -27.3750 -10.6135 -10.0864  -9.0019  -6.2480  -4.8433  -0.1555   0.2052
     0.3192   0.4350   0.5343   0.8747   1.0651   1.1402   1.4364   2.4892
     2.8525   2.9291   3.9219   3.9538   3.9863   6.2766   6.4697   7.0187
     7.6742   7.6908   7.8593   8.4914   8.7051   8.8414   9.0163   9.1540
     9.7485   9.7815  10.0754  10.2294  10.6185  11.1785  11.3055  11.4447
    11.7743  11.8057  12.8471  12.9524  13.9192  14.0620  14.3106  14.4098
    14.5047  15.1905  15.7869  15.9729  16.0760  16.3643  16.4285  16.4468
    16.8303  16.9576  17.1676  17.2810  17.3760  17.4598  17.5782  17.6835
    17.7598  17.7868  18.0151  18.0868  18.1265  18.3749  18.9156  19.0441
    19.1745  19.3899  19.4522  19.5036

          k = 0.0286 0.0165 0.0000 ( 14495 PWs)   bands (ev):

   -34.6336 -34.6335 -34.6279 -34.6278 -34.6059 -34.6037 -34.5999 -34.5983
   -34.5944 -34.5887 -34.5212 -34.5109 -34.5075 -34.4713 -34.4711 -27.3915
   -27.3914 -27.3874 -27.3874 -27.3828 -27.3797 -27.3790 -27.3788 -27.3757
   -27.3750 -10.6105 -10.0836  -9.0002  -6.2483  -4.8485  -0.1631   0.1695
     0.3037   0.4058   0.5303   0.8771   1.0603   1.1444   1.4697   2.5263
     2.8297   2.9346   3.9326   3.9580   3.9995   6.2823   6.4710   7.0200
     7.6501   7.6920   7.8644   8.5108   8.6969   8.8240   9.0251   9.1503
     9.7739   9.7974  10.0739  10.2486  10.6388  11.1581  11.2791  11.4159
    11.8129  11.8668  12.8456  12.9612  13.8632  14.0176  14.3203  14.4540
    14.5478  15.1969  15.7242  15.9285  16.0574  16.3794  16.4582  16.4949
    16.8256  16.8808  17.0843  17.2201  17.3372  17.4233  17.5224  17.7648
    17.7793  17.8456  18.0947  18.1966  18.2063  18.4446  18.8039  18.9319
    19.1081  19.3432  19.4120  19.4720

          k = 0.0357 0.0206 0.0000 ( 14492 PWs)   bands (ev):

   -34.6336 -34.6335 -34.6279 -34.6278 -34.6059 -34.6037 -34.5999 -34.5983
   -34.5944 -34.5887 -34.5212 -34.5109 -34.5075 -34.4713 -34.4711 -27.3915
   -27.3914 -27.3874 -27.3874 -27.3828 -27.3797 -27.3790 -27.3788 -27.3757
   -27.3750 -10.6065 -10.0800  -8.9979  -6.2488  -4.8552  -0.1740   0.1274
     0.2851   0.3723   0.5253   0.8649   1.0671   1.1498   1.5086   2.5691
     2.8052   2.9420   3.9284   3.9701   4.0252   6.2896   6.4727   7.0213
     7.6211   7.6936   7.8716   8.5331   8.6829   8.8077   9.0379   9.1466
     9.7987   9.8160  10.0766  10.2731  10.6652  11.1292  11.2511  11.3977
    11.8554  11.9295  12.8440  12.9723  13.8047  13.9729  14.3258  14.4994
    14.5982  15.1875  15.6782  15.8844  16.0352  16.3815  16.4794  16.5501
    16.7219  16.8833  17.0216  17.1621  17.3034  17.3892  17.4658  17.7742
    17.8542  17.9355  18.1716  18.2823  18.3091  18.5194  18.7136  18.8148
    19.0425  19.2914  19.3680  19.4245

          k = 0.0429 0.0247 0.0000 ( 14478 PWs)   bands (ev):

   -34.6336 -34.6335 -34.6279 -34.6278 -34.6059 -34.6037 -34.5999 -34.5983
   -34.5944 -34.5887 -34.5212 -34.5109 -34.5075 -34.4712 -34.4711 -27.3915
   -27.3914 -27.3874 -27.3874 -27.3828 -27.3797 -27.3790 -27.3788 -27.3757
   -27.3750 -10.6017 -10.0755  -8.9951  -6.2493  -4.8633  -0.1892   0.0813
     0.2639   0.3366   0.5190   0.8362   1.0877   1.1561   1.5507   2.6123
     2.7848   2.9511   3.9180   3.9822   4.0616   6.2984   6.4747   7.0225
     7.5887   7.6953   7.8808   8.5570   8.6617   8.7961   9.0540   9.1436
     9.8193   9.8354  10.0876  10.3025  10.6977  11.0933  11.2238  11.3887
    11.9012  11.9917  12.8424  12.9856  13.7462  13.9288  14.3308  14.5445
    14.6515  15.1546  15.6571  15.8423  16.0096  16.3729  16.4849  16.6056
    16.6282  16.8114  17.0386  17.1132  17.2667  17.3543  17.4136  17.7943
    17.9310  18.0254  18.2465  18.3373  18.4144  18.5565  18.6977  18.7074
    18.9779  19.2380  19.3246  19.3729

          k = 0.0500 0.0289 0.0000 ( 14481 PWs)   bands (ev):

   -34.6336 -34.6335 -34.6279 -34.6278 -34.6059 -34.6037 -34.5999 -34.5983
   -34.5944 -34.5887 -34.5212 -34.5109 -34.5075 -34.4712 -34.4711 -27.3915
   -27.3914 -27.3874 -27.3873 -27.3828 -27.3797 -27.3790 -27.3788 -27.3757
   -27.3750 -10.5959 -10.0703  -8.9919  -6.2500  -4.8729  -0.2102   0.0337
     0.2403   0.3004   0.5112   0.7948   1.1181   1.1634   1.5933   2.6437
     2.7813   2.9619   3.9051   3.9942   4.1042   6.3086   6.4771   7.0232
     7.5544   7.6971   7.8920   8.5809   8.6348   8.7901   9.0723   9.1422
     9.8290   9.8578  10.1099  10.3361  10.7361  11.0535  11.1985  11.3861
    11.9496  12.0521  12.8408  13.0009  13.6895  13.8859  14.3376  14.5877
    14.7030  15.1008  15.6576  15.8036  15.9816  16.3417  16.4716  16.5594
    16.6564  16.7254  17.0379  17.1109  17.2340  17.3176  17.3689  17.8299
    18.0062  18.1082  18.2947  18.3511  18.5034  18.5632  18.6171  18.7947
    18.9151  19.1850  19.2866  19.3211

          k = 0.0571 0.0330 0.0000 ( 14477 PWs)   bands (ev):

   -34.6336 -34.6335 -34.6279 -34.6278 -34.6059 -34.6037 -34.5999 -34.5983
   -34.5944 -34.5887 -34.5212 -34.5109 -34.5075 -34.4712 -34.4711 -27.3915
   -27.3914 -27.3874 -27.3873 -27.3828 -27.3797 -27.3790 -27.3788 -27.3757
   -27.3750 -10.5894 -10.0642  -8.9881  -6.2508  -4.8841  -0.2387  -0.0130
     0.2146   0.2649   0.5019   0.7455   1.1530   1.1727   1.6339   2.6493
     2.8094   2.9744   3.8907   4.0070   4.1504   6.3203   6.4796   7.0231
     7.5196   7.6990   7.9052   8.5914   8.6172   8.7885   9.0910   9.1443
     9.8266   9.8834  10.1438  10.3731  10.7799  11.0132  11.1757  11.3878
    11.9995  12.1099  12.8397  13.0176  13.6363  13.8447  14.3477  14.6280
    14.7443  15.0405  15.6659  15.7700  15.9532  16.2790  16.4596  16.4853
    16.6717  16.7026  17.0050  17.1206  17.2135  17.2873  17.3442  17.8730
    18.0780  18.1629  18.2627  18.4136  18.4548  18.5941  18.6962  18.8490
    18.9048  19.1337  19.2602  19.2736

          k = 0.0643 0.0371 0.0000 ( 14482 PWs)   bands (ev):

   -34.6336 -34.6335 -34.6279 -34.6278 -34.6059 -34.6038 -34.5999 -34.5983
   -34.5944 -34.5887 -34.5212 -34.5109 -34.5075 -34.4712 -34.4711 -27.3915
   -27.3913 -27.3874 -27.3873 -27.3828 -27.3798 -27.3790 -27.3788 -27.3757
   -27.3750 -10.5819 -10.0573  -8.9839  -6.2518  -4.8967  -0.2763  -0.0567
     0.1874   0.2307   0.4910   0.6913   1.1747   1.1990   1.6701   2.6381
     2.8609   2.9885   3.8757   4.0208   4.1986   6.3332   6.4824   7.0216
     7.4856   7.7009   7.9202   8.5636   8.6360   8.7893   9.1067   9.1535
     9.8154   9.9107  10.1874  10.4123  10.8271  10.9767  11.1560  11.3919
    12.0505  12.1640  12.8392  13.0352  13.5886  13.8055  14.3616  14.6640
    14.7552  15.0011  15.6644  15.7431  15.9255  16.2077  16.3843  16.4589
    16.6653  16.7220  16.9846  17.0986  17.1871  17.2526  17.3744  17.9021
    18.1173  18.1752  18.2513  18.3917  18.4922  18.6604  18.7826  18.8137
    18.9929  19.0862  19.2225  19.2752

          k = 0.0714 0.0412 0.0000 ( 14479 PWs)   bands (ev):

   -34.6336 -34.6335 -34.6279 -34.6278 -34.6059 -34.6038 -34.5999 -34.5983
   -34.5944 -34.5887 -34.5212 -34.5109 -34.5075 -34.4712 -34.4711 -27.3915
   -27.3913 -27.3874 -27.3873 -27.3828 -27.3798 -27.3790 -27.3788 -27.3758
   -27.3750 -10.5735 -10.0497  -8.9792  -6.2529  -4.9108  -0.3233  -0.0966
     0.1593   0.1978   0.4786   0.6346   1.1837   1.2400   1.6994   2.6251
     2.9214   3.0045   3.8609   4.0359   4.2477   6.3474   6.4852   7.0180
     7.4537   7.7028   7.9371   8.5309   8.6591   8.7911   9.1166   9.1728
     9.7987   9.9386  10.2381  10.4523  10.8678  10.9557  11.1399  11.3975
    12.1019  12.2137  12.8398  13.0525  13.5484  13.7687  14.3787  14.6931
    14.7169  15.0086  15.6404  15.7231  15.8921  16.1568  16.2740  16.4619
    16.6747  16.7163  16.9806  17.0673  17.1588  17.2131  17.4372  17.8759
    18.1251  18.1665  18.2446  18.4343  18.5662  18.7172  18.7365  18.9026
    19.0284  19.0696  19.1880  19.3405

          k = 0.0786 0.0454 0.0000 ( 14497 PWs)   bands (ev):

   -34.6336 -34.6335 -34.6279 -34.6278 -34.6059 -34.6038 -34.5999 -34.5983
   -34.5944 -34.5887 -34.5212 -34.5109 -34.5075 -34.4712 -34.4710 -27.3915
   -27.3913 -27.3874 -27.3872 -27.3827 -27.3798 -27.3790 -27.3788 -27.3758
   -27.3750 -10.5644 -10.0413  -8.9741  -6.2543  -4.9264  -0.3788  -0.1332
     0.1307   0.1661   0.4647   0.5769   1.1916   1.2829   1.7195   2.6173
     2.9824   3.0245   3.8473   4.0523   4.2971   6.3626   6.4881   7.0118
     7.4254   7.7047   7.9556   8.4994   8.6817   8.7925   9.1231   9.1999
     9.7793   9.9665  10.2936  10.4913  10.8727  10.9809  11.1281  11.4037
    12.1531  12.2580  12.8420  13.0681  13.5181  13.7347  14.3959  14.6423
    14.7200  15.0498  15.5915  15.7094  15.8398  16.1398  16.1687  16.4643
    16.6767  16.7037  16.9726  17.0403  17.1361  17.1905  17.5032  17.8030
    18.0483  18.1881  18.3128  18.5099  18.6169  18.7008  18.7686  18.9483
    18.9969  19.1113  19.1997  19.4510

          k = 0.0857 0.0495 0.0000 ( 14485 PWs)   bands (ev):

   -34.6336 -34.6335 -34.6279 -34.6277 -34.6059 -34.6038 -34.5999 -34.5983
   -34.5944 -34.5887 -34.5212 -34.5109 -34.5075 -34.4712 -34.4710 -27.3915
   -27.3912 -27.3874 -27.3872 -27.3827 -27.3798 -27.3790 -27.3787 -27.3758
   -27.3750 -10.5543 -10.0320  -8.9684  -6.2559  -4.9434  -0.4407  -0.1678
     0.1016   0.1350   0.4493   0.5198   1.1989   1.3264   1.7288   2.6179
     3.0265   3.0627   3.8361   4.0700   4.3459   6.3788   6.4909   7.0025
     7.4017   7.7067   7.9759   8.4705   8.7035   8.7922   9.1296   9.2319
     9.7590   9.9940  10.3521  10.5274  10.8569  11.0389  11.1216  11.4104
    12.2033  12.2962  12.8460  13.0807  13.5000  13.7041  14.4007  14.5736
    14.7365  15.1042  15.5213  15.7038  15.7681  16.0548  16.1696  16.4626
    16.6402  16.7225  16.9422  17.0198  17.1087  17.2098  17.5474  17.7370
    17.9336  18.2601  18.3790  18.5880  18.5942  18.7392  18.8021  18.9442
    18.9749  19.1299  19.2972  19.5819

          k = 0.0929 0.0536 0.0000 ( 14477 PWs)   bands (ev):

   -34.6335 -34.6335 -34.6279 -34.6277 -34.6059 -34.6038 -34.5999 -34.5983
   -34.5944 -34.5887 -34.5212 -34.5109 -34.5075 -34.4712 -34.4710 -27.3915
   -27.3912 -27.3874 -27.3871 -27.3827 -27.3799 -27.3790 -27.3787 -27.3759
   -27.3750 -10.5434 -10.0220  -8.9624  -6.2577  -4.9619  -0.5073  -0.2017
     0.0721   0.1040   0.4327   0.4650   1.2058   1.3698   1.7265   2.6283
     3.0499   3.1204   3.8289   4.0890   4.3938   6.3957   6.4934   6.9897
     7.3835   7.7088   7.9977   8.4448   8.7244   8.7895   9.1374   9.2675
     9.7392  10.0204  10.4115  10.5581  10.8465  11.0999  11.1273  11.4176
    12.2520  12.3277  12.8519  13.0900  13.4955  13.6775  14.3613  14.5484
    14.7451  15.1626  15.4362  15.6830  15.7084  15.9583  16.2080  16.4542
    16.5941  16.7492  16.8986  16.9919  17.0899  17.2574  17.5230  17.7350
    17.8226  18.3345  18.4345  18.5457  18.6657  18.7735  18.8438  18.9300
    18.9609  19.1674  19.4236  19.7211

          k = 0.1000 0.0577 0.0000 ( 14477 PWs)   bands (ev):

   -34.6335 -34.6335 -34.6278 -34.6277 -34.6059 -34.6038 -34.5999 -34.5983
   -34.5943 -34.5887 -34.5211 -34.5109 -34.5075 -34.4712 -34.4710 -27.3915
   -27.3911 -27.3874 -27.3871 -27.3827 -27.3799 -27.3790 -27.3787 -27.3759
   -27.3750 -10.5316 -10.0112  -8.9559  -6.2597  -4.9818  -0.5770  -0.2356
     0.0417   0.0720   0.4132   0.4156   1.2121   1.4127   1.7128   2.6481
     3.0704   3.1775   3.8274   4.1092   4.4404   6.4129   6.4955   6.9739
     7.3712   7.7112   8.0211   8.4229   8.7446   8.7836   9.1472   9.3058
     9.7213  10.0453  10.4681  10.5824  10.8499  11.1172  11.1867  11.4260
    12.2980  12.3523  12.8593  13.0971  13.5042  13.6555  14.2794  14.5694
    14.7456  15.2172  15.3457  15.5901  15.7210  15.8720  16.2535  16.4383
    16.5457  16.7787  16.8509  16.9530  17.0822  17.3174  17.4563  17.6912
    17.8082  18.3992  18.4557  18.5186  18.7238  18.7859  18.8845  18.9321
    18.9781  19.2272  19.5568  19.8623

          k = 0.1071 0.0619 0.0000 ( 14483 PWs)   bands (ev):

   -34.6335 -34.6335 -34.6278 -34.6277 -34.6059 -34.6038 -34.6000 -34.5983
   -34.5943 -34.5886 -34.5211 -34.5109 -34.5075 -34.4712 -34.4710 -27.3915
   -27.3911 -27.3874 -27.3870 -27.3827 -27.3799 -27.3790 -27.3787 -27.3759
   -27.3750 -10.5189  -9.9997  -8.9490  -6.2621  -5.0032  -0.6488  -0.2697
     0.0104   0.0373   0.3684   0.3960   1.2177   1.4545   1.6890   2.6761
     3.0910   3.2292   3.8337   4.1306   4.4853   6.4297   6.4975   6.9557
     7.3647   7.7141   8.0461   8.4051   8.7635   8.7746   9.1595   9.3460
     9.7060  10.0683  10.5142  10.6054  10.8698  11.1274  11.2609  11.4369
    12.3391  12.3714  12.8671  13.1053  13.5238  13.6388  14.1836  14.6097
    14.7383  15.2106  15.3086  15.4910  15.7420  15.7969  16.2986  16.4163
    16.4976  16.7970  16.8122  16.9124  17.0656  17.3797  17.4066  17.5833
    17.8746  18.4128  18.4523  18.5277  18.7479  18.8017  18.9073  18.9684
    19.0449  19.2999  19.6907  19.9872

          k = 0.1143 0.0660 0.0000 ( 14481 PWs)   bands (ev):

   -34.6335 -34.6335 -34.6278 -34.6277 -34.6059 -34.6038 -34.6000 -34.5983
   -34.5943 -34.5886 -34.5211 -34.5109 -34.5075 -34.4712 -34.4710 -27.3915
   -27.3910 -27.3874 -27.3870 -27.3826 -27.3800 -27.3791 -27.3786 -27.3760
   -27.3750 -10.5054  -9.9873  -8.9416  -6.2648  -5.0261  -0.7219  -0.3040
    -0.0218  -0.0013   0.3298   0.3761   1.2226   1.4949   1.6569   2.7102
     3.1121   3.2732   3.8496   4.1531   4.5282   6.4445   6.5002   6.9366
     7.3635   7.7176   8.0726   8.3916   8.7600   8.7838   9.1743   9.3873
     9.6944  10.0892  10.5383  10.6394  10.9049  11.1428  11.3338  11.4544
    12.3662  12.3937  12.8743  13.1181  13.5500  13.6285  14.0865  14.6590
    14.7242  15.1153  15.3344  15.4079  15.7263  15.7749  16.3301  16.3970
    16.4539  16.7522  16.8152  16.8945  17.0177  17.3818  17.4525  17.4859
    17.9467  18.3674  18.4663  18.5300  18.7366  18.8375  18.9422  19.0422
    19.1277  19.3797  19.8170  19.9508

          k = 0.1214 0.0701 0.0000 ( 14479 PWs)   bands (ev):

   -34.6335 -34.6334 -34.6278 -34.6277 -34.6059 -34.6038 -34.6000 -34.5983
   -34.5943 -34.5886 -34.5211 -34.5109 -34.5075 -34.4712 -34.4710 -27.3915
   -27.3910 -27.3875 -27.3869 -27.3826 -27.3800 -27.3791 -27.3786 -27.3760
   -27.3751 -10.4911  -9.9742  -8.9339  -6.2679  -5.0503  -0.7957  -0.3385
    -0.0552  -0.0444   0.2989   0.3554   1.2267   1.5326   1.6191   2.7482
     3.1335   3.3087   3.8760   4.1766   4.5692   6.4538   6.5063   6.9182
     7.3669   7.7220   8.1006   8.3825   8.7434   8.8021   9.1919   9.4285
     9.6872  10.1078  10.5437  10.6835  10.9517  11.1642  11.3958  11.4879
    12.3737  12.4248  12.8802  13.1382  13.5763  13.6257  13.9947  14.7031
    14.7151  15.0095  15.2548  15.4353  15.6666  15.8095  16.3197  16.3811
    16.4430  16.7054  16.7804  16.9138  16.9448  17.3338  17.4611  17.5222
    18.0184  18.3195  18.4567  18.5187  18.7076  18.8938  18.9988  19.1309
    19.2159  19.4627  19.8249  19.9604

          k = 0.1286 0.0742 0.0000 ( 14484 PWs)   bands (ev):

   -34.6335 -34.6334 -34.6278 -34.6277 -34.6059 -34.6038 -34.6000 -34.5983
   -34.5943 -34.5886 -34.5211 -34.5110 -34.5075 -34.4712 -34.4709 -27.3915
   -27.3909 -27.3875 -27.3869 -27.3826 -27.3801 -27.3791 -27.3786 -27.3760
   -27.3751 -10.4759  -9.9604  -8.9258  -6.2713  -5.0760  -0.8699  -0.3730
    -0.0962  -0.0856   0.2755   0.3339   1.2300   1.5540   1.5905   2.7878
     3.1553   3.3365   3.9128   4.2012   4.6082   6.4542   6.5184   6.9020
     7.3742   7.7275   8.1301   8.3779   8.7234   8.8201   9.2122   9.4682
     9.6854  10.1242  10.5426  10.7278  11.0063  11.1916  11.4385  11.5469
    12.3722  12.4542  12.8851  13.1667  13.5925  13.6309  13.9180  14.6789
    14.7725  14.9037  15.1443  15.4919  15.6112  15.8495  16.2838  16.3400
    16.4777  16.6608  16.7323  16.8388  16.9655  17.2385  17.5176  17.5880
    18.0873  18.2738  18.4321  18.4988  18.6735  18.9621  19.0694  19.2243
    19.3073  19.5411  19.7313  19.9801

          k = 0.1357 0.0784 0.0000 ( 14496 PWs)   bands (ev):

   -34.6335 -34.6334 -34.6278 -34.6277 -34.6059 -34.6038 -34.6000 -34.5983
   -34.5943 -34.5886 -34.5211 -34.5110 -34.5075 -34.4712 -34.4709 -27.3915
   -27.3909 -27.3875 -27.3868 -27.3826 -27.3801 -27.3791 -27.3786 -27.3761
   -27.3751 -10.4599  -9.9458  -8.9173  -6.2752  -5.1031  -0.9441  -0.4072
    -0.1486  -0.1199   0.2584   0.3118   1.2324   1.5171   1.6142   2.8267
     3.1773   3.3587   3.9583   4.2268   4.6452   6.4461   6.5354   6.8896
     7.3847   7.7343   8.1611   8.3776   8.7008   8.8375   9.2355   9.5047
     9.6899  10.1385  10.5412  10.7674  11.0649  11.2250  11.4742  11.6210
    12.3654  12.4787  12.8901  13.2025  13.5846  13.6407  13.8734  14.6502
    14.7881  14.8436  15.0316  15.5467  15.5630  15.8920  16.2413  16.2932
    16.5186  16.6199  16.6795  16.7403  17.0070  17.1461  17.5972  17.6496
    18.1490  18.2336  18.4001  18.4765  18.6403  19.0349  19.1473  19.3173
    19.4005  19.5612  19.6951  19.8985

          k = 0.1429 0.0825 0.0000 ( 14496 PWs)   bands (ev):

   -34.6335 -34.6334 -34.6278 -34.6276 -34.6059 -34.6038 -34.6000 -34.5983
   -34.5943 -34.5886 -34.5211 -34.5110 -34.5075 -34.4712 -34.4709 -27.3915
[...]
     9.9135  10.1768  10.4415  10.8468  11.1058  11.1684  11.3773  11.7006
    12.5032  12.5703  12.9766  13.1802  13.5002  13.6420  13.9467  14.2572
    14.9627  15.0962  15.2672  15.2788  15.4113  15.5052  15.8119  16.4864
    16.6573  16.6976  16.9635  17.0753  17.1960  17.3699  17.4490  17.6895
    17.7881  17.9069  17.9995  18.0522  18.7143  19.3266  19.5146  19.6120
    19.6500  19.7255  19.8462  19.9488

          k = 0.0762 0.1328 0.0000 ( 14490 PWs)   bands (ev):

   -34.6336 -34.6333 -34.6279 -34.6276 -34.6059 -34.6038 -34.6000 -34.5983
   -34.5943 -34.5886 -34.5211 -34.5109 -34.5075 -34.4711 -34.4710 -27.3915
   -27.3909 -27.3875 -27.3868 -27.3825 -27.3800 -27.3792 -27.3785 -27.3760
   -27.3752 -10.4669  -9.9520  -8.9203  -6.2708  -5.0847  -0.8179  -0.4630
    -0.2292  -0.0858   0.2229   0.5567   0.9243   1.6415   1.6921   2.7964
     3.0911   3.3012   4.0369   4.1972   4.6218   6.5101   6.5190   6.9370
     7.2303   7.7193   8.2187   8.5038   8.6116   8.7669   9.0877   9.5439
     9.8862  10.1253  10.4528  10.7976  11.0480  11.1940  11.3064  11.6146
    12.4850  12.5340  12.9808  13.1205  13.4558  13.6559  14.0360  14.3340
    14.9205  15.1722  15.2277  15.3874  15.4732  15.5886  15.8215  16.4492
    16.6415  16.6617  17.0041  17.0593  17.2546  17.4361  17.5043  17.6699
    17.7965  17.8654  17.9892  18.0326  18.5947  19.2176  19.5160  19.5832
    19.6619  19.7016  19.9398  19.9761

          k = 0.0714 0.1245 0.0000 ( 14501 PWs)   bands (ev):

   -34.6336 -34.6334 -34.6279 -34.6276 -34.6059 -34.6038 -34.6000 -34.5983
   -34.5943 -34.5886 -34.5211 -34.5109 -34.5075 -34.4712 -34.4710 -27.3915
   -27.3909 -27.3875 -27.3869 -27.3826 -27.3799 -27.3792 -27.3786 -27.3759
   -27.3752 -10.4850  -9.9685  -8.9301  -6.2670  -5.0548  -0.7422  -0.4037
    -0.1594  -0.0639   0.2419   0.5793   0.9513   1.6026   1.7065   2.7984
     3.0189   3.2828   4.0293   4.1260   4.5828   6.4862   6.5141   6.9571
     7.2527   7.7063   8.1650   8.5141   8.5978   8.7915   9.0701   9.5053
     9.8629  10.0767  10.4698  10.7387  10.9910  11.2172  11.2501  11.5299
    12.4523  12.4977  13.0015  13.0678  13.4133  13.6643  14.1274  14.4164
    14.8778  15.1016  15.3271  15.4766  15.5348  15.6741  15.8725  16.4026
    16.6082  16.6398  16.9729  17.0605  17.3374  17.4954  17.5593  17.6597
    17.8180  17.8518  17.9909  18.0252  18.4738  19.0987  19.4861  19.5350
    19.6545  19.6872  19.8728  19.9984

          k = 0.0667 0.1162 0.0000 ( 14503 PWs)   bands (ev):

   -34.6336 -34.6334 -34.6279 -34.6276 -34.6059 -34.6038 -34.6000 -34.5983
   -34.5943 -34.5886 -34.5211 -34.5109 -34.5075 -34.4712 -34.4710 -27.3915
   -27.3910 -27.3875 -27.3869 -27.3826 -27.3799 -27.3792 -27.3786 -27.3759
   -27.3752 -10.5020  -9.9840  -8.9393  -6.2637  -5.0268  -0.6664  -0.3474
    -0.0882  -0.0406   0.2595   0.6017   0.9774   1.5571   1.7222   2.7988
     2.9506   3.2612   4.0201   4.0638   4.5410   6.4614   6.5104   6.9748
     7.2796   7.6961   8.1141   8.5266   8.5909   8.8019   9.0640   9.4623
     9.8440  10.0330  10.4902  10.6717  10.9368  11.1915  11.2499  11.4499
    12.4073  12.4621  13.0028  13.0529  13.3760  13.6699  14.2176  14.4991
    14.8415  15.0214  15.4419  15.4896  15.6310  15.7731  15.9560  16.3519
    16.5618  16.6296  16.9222  17.0460  17.4154  17.5465  17.6208  17.6564
    17.8354  17.8631  18.0024  18.0512  18.3556  18.9770  19.3966  19.5155
    19.6108  19.6858  19.7699  19.8969

          k = 0.0619 0.1079 0.0000 ( 14501 PWs)   bands (ev):

   -34.6336 -34.6334 -34.6279 -34.6277 -34.6059 -34.6038 -34.5999 -34.5983
   -34.5943 -34.5886 -34.5211 -34.5109 -34.5075 -34.4712 -34.4710 -27.3915
   -27.3911 -27.3875 -27.3870 -27.3826 -27.3799 -27.3792 -27.3786 -27.3758
   -27.3752 -10.5178  -9.9985  -8.9479  -6.2608  -5.0007  -0.5913  -0.2932
    -0.0363   0.0037   0.2759   0.6242   1.0018   1.5080   1.7353   2.7968
     2.8886   3.2344   3.9998   4.0224   4.4961   6.4374   6.5063   6.9897
     7.3107   7.6888   8.0666   8.5405   8.5909   8.7980   9.0678   9.4161
     9.8302   9.9946  10.5100  10.5991  10.8887  11.1470  11.2667  11.3818
    12.3539  12.4261  12.9648  13.0866  13.3498  13.6750  14.3022  14.5740
    14.8184  14.9494  15.4647  15.5589  15.7412  15.8795  16.0512  16.3031
    16.5152  16.6220  16.8757  17.0066  17.4749  17.5717  17.6693  17.7012
    17.8433  17.8797  18.0261  18.1158  18.2502  18.8569  19.2808  19.4880
    19.5581  19.6337  19.6999  19.8000

          k = 0.0571 0.0996 0.0000 ( 14499 PWs)   bands (ev):

   -34.6336 -34.6334 -34.6279 -34.6277 -34.6059 -34.6038 -34.5999 -34.5983
   -34.5943 -34.5887 -34.5212 -34.5109 -34.5075 -34.4712 -34.4711 -27.3915
   -27.3911 -27.3875 -27.3871 -27.3827 -27.3798 -27.3792 -27.3787 -27.3758
   -27.3751 -10.5325 -10.0120  -8.9560  -6.2583  -4.9764  -0.5178  -0.2402
    -0.0114   0.0753   0.2915   0.6473   1.0241   1.4562   1.7433   2.7906
     2.8365   3.2011   3.9624   4.0095   4.4482   6.4147   6.5019   7.0018
     7.3456   7.6841   8.0229   8.5556   8.5975   8.7835   9.0764   9.3687
     9.8222   9.9610  10.5155  10.5317  10.8526  11.1004  11.2639  11.3442
    12.2955  12.3879  12.9297  13.1138  13.3452  13.6816  14.3743  14.6271
    14.8178  14.8944  15.4304  15.6762  15.8515  15.9806  16.1343  16.2763
    16.4740  16.6166  16.8360  16.9559  17.5040  17.5640  17.7288  17.7574
    17.8636  17.8953  18.0377  18.1708  18.2263  18.7428  19.1513  19.4162
    19.5023  19.5308  19.6581  19.7337

          k = 0.0524 0.0913 0.0000 ( 14491 PWs)   bands (ev):

   -34.6336 -34.6334 -34.6279 -34.6277 -34.6059 -34.6038 -34.5999 -34.5983
   -34.5944 -34.5887 -34.5212 -34.5109 -34.5075 -34.4712 -34.4711 -27.3915
   -27.3912 -27.3875 -27.3871 -27.3827 -27.3798 -27.3791 -27.3787 -27.3758
   -27.3751 -10.5460 -10.0244  -8.9636  -6.2562  -4.9541  -0.4474  -0.1878
     0.0113   0.1490   0.3068   0.6716   1.0440   1.4026   1.7438   2.7741
     2.8021   3.1615   3.9328   4.0009   4.3975   6.3931   6.4975   7.0109
     7.3836   7.6819   7.9831   8.5719   8.6097   8.7627   9.0846   9.3221
     9.8199   9.9314  10.4448  10.5257  10.8363  11.0469  11.2374  11.3445
    12.2341  12.3460  12.9015  13.1186  13.3721  13.6914  14.4249  14.6429
    14.8366  14.8773  15.3988  15.7921  15.9576  16.0393  16.1853  16.3157
    16.4488  16.6142  16.8039  16.9049  17.5043  17.5447  17.7603  17.8007
    17.8724  17.9600  17.9967  18.2200  18.3177  18.6418  19.0145  19.3044
    19.3682  19.5002  19.5773  19.7052

          k = 0.0476 0.0830 0.0000 ( 14485 PWs)   bands (ev):

   -34.6336 -34.6335 -34.6279 -34.6277 -34.6059 -34.6038 -34.5999 -34.5983
   -34.5944 -34.5887 -34.5212 -34.5109 -34.5075 -34.4712 -34.4711 -27.3915
   -27.3912 -27.3875 -27.3872 -27.3827 -27.3798 -27.3791 -27.3787 -27.3758
   -27.3751 -10.5584 -10.0357  -8.9705  -6.2543  -4.9337  -0.3819  -0.1357
     0.0365   0.2188   0.3224   0.6980   1.0615   1.3480   1.7347   2.7480
     2.7854   3.1173   3.9139   3.9930   4.3445   6.3730   6.4930   7.0174
     7.4241   7.6815   7.9473   8.5894   8.6254   8.7395   9.0884   9.2787
     9.8230   9.9048  10.3700  10.5066  10.8444  10.9867  11.2139  11.3563
    12.1709  12.2996  12.8804  13.1041  13.4252  13.7062  14.4487  14.6234
    14.8568  14.9086  15.3822  15.9028  16.0122  16.0597  16.2611  16.3720
    16.4708  16.6157  16.7821  16.8613  17.4727  17.5332  17.7392  17.8287
    17.8462  17.9902  18.0771  18.2879  18.4191  18.5722  18.8751  19.1759
    19.2227  19.4287  19.5185  19.6674

          k = 0.0429 0.0747 0.0000 ( 14481 PWs)   bands (ev):

   -34.6336 -34.6335 -34.6279 -34.6277 -34.6059 -34.6038 -34.5999 -34.5983
   -34.5944 -34.5887 -34.5212 -34.5109 -34.5075 -34.4712 -34.4711 -27.3915
   -27.3913 -27.3875 -27.3872 -27.3827 -27.3797 -27.3791 -27.3788 -27.3757
   -27.3751 -10.5696 -10.0460  -8.9768  -6.2528  -4.9152  -0.3233  -0.0837
     0.0663   0.2804   0.3407   0.7273   1.0764   1.2933   1.7148   2.7259
     2.7725   3.0717   3.9044   3.9858   4.2897   6.3543   6.4887   7.0215
     7.4664   7.6826   7.9157   8.6072   8.6409   8.7193   9.0857   9.2408
     9.8302   9.8804  10.2983  10.4722  10.8707  10.9264  11.2007  11.3689
    12.1068  12.2482  12.8658  13.0807  13.4927  13.7273  14.4505  14.5854
    14.8744  14.9575  15.3929  15.9489  16.0122  16.1387  16.3305  16.4257
    16.5395  16.6240  16.7789  16.8327  17.4160  17.5268  17.7072  17.7776
    17.8358  18.0666  18.1789  18.3289  18.5088  18.5785  18.7408  19.0413
    19.0749  19.3055  19.5017  19.6382

          k = 0.0381 0.0664 0.0000 ( 14482 PWs)   bands (ev):

   -34.6336 -34.6335 -34.6279 -34.6277 -34.6059 -34.6038 -34.5999 -34.5983
   -34.5944 -34.5887 -34.5212 -34.5109 -34.5075 -34.4712 -34.4711 -27.3915
   -27.3913 -27.3875 -27.3872 -27.3828 -27.3797 -27.3791 -27.3788 -27.3757
   -27.3751 -10.5796 -10.0552  -8.9825  -6.2516  -4.8987  -0.2738  -0.0317
     0.1016   0.3248   0.3687   0.7598   1.0887   1.2396   1.6842   2.7046
     2.7647   3.0288   3.9019   3.9792   4.2341   6.3372   6.4846   7.0235
     7.5095   7.6846   7.8886   8.6200   8.6495   8.7134   9.0762   9.2104
     9.8387   9.8575  10.2322  10.4296  10.8523  10.9260  11.1965  11.3806
    12.0427  12.1918  12.8565  13.0551  13.5662  13.7561  14.4397  14.5426
    14.8611  15.0231  15.4352  15.8913  16.0829  16.1988  16.3902  16.4973
    16.5859  16.6551  16.8066  16.8349  17.3419  17.5212  17.6694  17.7242
    17.8283  18.1192  18.2635  18.3634  18.5807  18.5924  18.6984  18.9082
    18.9278  19.1736  19.4925  19.6153

          k = 0.0333 0.0581 0.0000 ( 14485 PWs)   bands (ev):

   -34.6336 -34.6335 -34.6279 -34.6277 -34.6059 -34.6038 -34.5999 -34.5983
   -34.5944 -34.5887 -34.5212 -34.5109 -34.5075 -34.4712 -34.4711 -27.3915
   -27.3913 -27.3875 -27.3873 -27.3828 -27.3797 -27.3791 -27.3788 -27.3757
   -27.3751 -10.5885 -10.0634  -8.9875  -6.2505  -4.8842  -0.2344   0.0203
     0.1422   0.3497   0.4080   0.7952   1.0981   1.1888   1.6443   2.6749
     2.7687   2.9922   3.9042   3.9733   4.1788   6.3218   6.4809   7.0241
     7.5522   7.6868   7.8663   8.6119   8.6591   8.7284   9.0616   9.1878
     9.8333   9.8473  10.1744  10.3848  10.7958  10.9755  11.2000  11.3913
    11.9792  12.1309  12.8512  13.0302  13.6409  13.7941  14.4226  14.5011
    14.8186  15.0943  15.5005  15.8382  16.1125  16.2538  16.4689  16.5328
    16.5912  16.7318  16.8442  16.9008  17.2588  17.5160  17.6295  17.6809
    17.8203  18.1043  18.3417  18.3784  18.5394  18.6653  18.7740  18.7843
    18.8182  19.0474  19.4866  19.5966

          k = 0.0286 0.0498 0.0000 ( 14487 PWs)   bands (ev):

   -34.6336 -34.6335 -34.6279 -34.6278 -34.6059 -34.6038 -34.5999 -34.5983
   -34.5944 -34.5887 -34.5212 -34.5109 -34.5075 -34.4712 -34.4711 -27.3915
   -27.3914 -27.3875 -27.3873 -27.3828 -27.3797 -27.3790 -27.3788 -27.3757
   -27.3750 -10.5962 -10.0704  -8.9919  -6.2497  -4.8716  -0.2047   0.0717
     0.1858   0.3689   0.4449   0.8312   1.1030   1.1451   1.5979   2.6351
     2.7844   2.9638   3.9088   3.9683   4.1254   6.3082   6.4776   7.0235
     7.5931   7.6889   7.8493   8.5874   8.6740   8.7539   9.0453   9.1723
     9.8115   9.8473  10.1288  10.3413  10.7431  11.0299  11.2108  11.4018
    11.9174  12.0661  12.8486  13.0075  13.7132  13.8423  14.4026  14.4632
    14.7590  15.1569  15.5758  15.8050  16.1137  16.3006  16.5185  16.5552
    16.5974  16.8369  16.9042  16.9870  17.1850  17.5118  17.5881  17.6469
    17.8126  18.0614  18.2530  18.4366  18.5771  18.6439  18.6697  18.7952
    18.8908  18.9739  19.4837  19.5804

          k = 0.0238 0.0415 0.0000 ( 14481 PWs)   bands (ev):

   -34.6336 -34.6335 -34.6279 -34.6278 -34.6059 -34.6037 -34.5999 -34.5983
   -34.5944 -34.5887 -34.5212 -34.5109 -34.5075 -34.4712 -34.4711 -27.3915
   -27.3914 -27.3875 -27.3873 -27.3828 -27.3797 -27.3790 -27.3788 -27.3757
   -27.3750 -10.6027 -10.0764  -8.9957  -6.2490  -4.8609  -0.1833   0.1209
     0.2288   0.3891   0.4745   0.8624   1.0927   1.1236   1.5484   2.5893
     2.8075   2.9432   3.9135   3.9643   4.0760   6.2965   6.4747   7.0222
     7.6301   7.6903   7.8385   8.5586   8.6878   8.7824   9.0305   9.1625
     9.7892   9.8379  10.0986  10.3018  10.6974  11.0824  11.2297  11.4135
    11.8583  11.9984  12.8477  12.9876  13.7813  13.9001  14.3809  14.4295
    14.6912  15.1987  15.6490  15.8077  16.1059  16.3316  16.4927  16.5451
    16.6943  16.9368  16.9884  17.0250  17.1821  17.5098  17.5481  17.6209
    17.8056  18.0154  18.1195  18.4188  18.4599  18.6266  18.7253  18.7955
    18.9589  19.0510  19.4849  19.5653

          k = 0.0190 0.0332 0.0000 ( 14482 PWs)   bands (ev):

   -34.6336 -34.6335 -34.6279 -34.6278 -34.6059 -34.6037 -34.5999 -34.5983
   -34.5944 -34.5887 -34.5212 -34.5109 -34.5075 -34.4712 -34.4711 -27.3915
   -27.3914 -27.3875 -27.3874 -27.3828 -27.3797 -27.3790 -27.3788 -27.3757
   -27.3750 -10.6080 -10.0813  -8.9987  -6.2484  -4.8522  -0.1683   0.1659
     0.2669   0.4123   0.4969   0.8809   1.0748   1.1231   1.4995   2.5428
     2.8332   2.9294   3.9155   3.9614   4.0338   6.2868   6.4723   7.0207
     7.6608   7.6910   7.8346   8.5298   8.6984   8.8102   9.0194   9.1575
     9.7668   9.8191  10.0835  10.2678  10.6596  11.1271  11.2574  11.4286
    11.8035  11.9290  12.8478  12.9710  13.8451  13.9641  14.3572  14.4004
    14.6216  15.2128  15.7148  15.8528  16.0971  16.3486  16.4525  16.5172
    16.8103  16.9347  17.0822  17.0918  17.2613  17.5087  17.5238  17.5997
    17.7991  17.9608  17.9943  18.3134  18.3240  18.5621  18.7974  18.8916
    19.0560  19.1580  19.4925  19.5489

          k = 0.0143 0.0249 0.0000 ( 14490 PWs)   bands (ev):

   -34.6336 -34.6335 -34.6279 -34.6278 -34.6059 -34.6037 -34.5999 -34.5983
   -34.5944 -34.5887 -34.5212 -34.5109 -34.5075 -34.4712 -34.4711 -27.3915
   -27.3914 -27.3875 -27.3874 -27.3828 -27.3797 -27.3790 -27.3788 -27.3757
   -27.3750 -10.6121 -10.0852  -9.0011  -6.2481  -4.8454  -0.1581   0.2041
     0.2975   0.4373   0.5138   0.8815   1.0711   1.1255   1.4555   2.5004
     2.8572   2.9215   3.9121   3.9593   4.0031   6.2791   6.4704   7.0192
     7.6829   7.6913   7.8373   8.5036   8.7055   8.8345   9.0125   9.1563
     9.7450   9.7967  10.0789  10.2405  10.6302  11.1602  11.2908  11.4508
    11.7544  11.8598  12.8482  12.9579  13.9054  14.0291  14.3309  14.3754
    14.5558  15.2044  15.7809  15.9226  16.0910  16.3531  16.4051  16.4837
    16.8589  16.9547  17.1694  17.1967  17.3475  17.4951  17.5497  17.5803
    17.7914  17.8466  17.9329  18.1865  18.2029  18.4576  18.9087  19.0119
    19.1514  19.2585  19.5097  19.5247

          k = 0.0095 0.0166 0.0000 ( 14488 PWs)   bands (ev):

   -34.6336 -34.6335 -34.6279 -34.6278 -34.6059 -34.6037 -34.5999 -34.5983
   -34.5944 -34.5887 -34.5212 -34.5109 -34.5075 -34.4713 -34.4711 -27.3915
   -27.3914 -27.3875 -27.3874 -27.3828 -27.3796 -27.3790 -27.3789 -27.3756
   -27.3750 -10.6151 -10.0879  -9.0028  -6.2478  -4.8405  -0.1515   0.2327
     0.3207   0.4589   0.5269   0.8706   1.0768   1.1289   1.4203   2.4664
     2.8746   2.9194   3.9026   3.9572   3.9868   6.2736   6.4690   7.0179
     7.6892   7.6986   7.8443   8.4824   8.7097   8.8529   9.0095   9.1575
     9.7254   9.7771  10.0794  10.2207  10.6092  11.1824  11.3212  11.4837
    11.7123  11.7950  12.8486  12.9485  13.9603  14.0890  14.3022  14.3532
    14.5007  15.1864  15.8481  15.9942  16.0909  16.3300  16.3701  16.4495
    16.8184  17.0749  17.2234  17.2933  17.4340  17.4843  17.5564  17.6183
    17.7282  17.7917  17.8733  18.0610  18.1024  18.3621  19.0277  19.1302
    19.2316  19.3386  19.4825  19.5293

          k = 0.0048 0.0083 0.0000 ( 14490 PWs)   bands (ev):

   -34.6336 -34.6335 -34.6279 -34.6278 -34.6059 -34.6037 -34.5999 -34.5983
   -34.5944 -34.5887 -34.5212 -34.5109 -34.5075 -34.4713 -34.4711 -27.3915
   -27.3914 -27.3875 -27.3874 -27.3828 -27.3796 -27.3790 -27.3789 -27.3756
   -27.3750 -10.6169 -10.0895  -9.0039  -6.2476  -4.8377  -0.1478   0.2499
     0.3362   0.4722   0.5367   0.8592   1.0820   1.1328   1.3977   2.4444
     2.8831   2.9217   3.8925   3.9553   3.9812   6.2702   6.4682   7.0171
     7.6889   7.7057   7.8512   8.4684   8.7118   8.8642   9.0090   9.1593
     9.7113   9.7644  10.0809  10.2087  10.5967  11.1953  11.3406  11.5243
    11.6764  11.7447  12.8490  12.9428  14.0032  14.1361  14.2754  14.3335
    14.4642  15.1707  15.9030  16.0474  16.1022  16.2827  16.3528  16.4251
    16.7904  17.1916  17.2457  17.3703  17.4471  17.4979  17.5790  17.6274
    17.7290  17.7850  17.7912  17.9502  18.0311  18.2953  19.1409  19.2314
    19.2917  19.3619  19.4344  19.5354

          k = 0.0000 0.0000 0.0000 ( 14485 PWs)   bands (ev):

   -34.6336 -34.6335 -34.6279 -34.6278 -34.6059 -34.6037 -34.5999 -34.5983
   -34.5944 -34.5887 -34.5212 -34.5109 -34.5075 -34.4713 -34.4711 -27.3915
   -27.3914 -27.3875 -27.3874 -27.3828 -27.3796 -27.3790 -27.3789 -27.3756
   -27.3750 -10.6175 -10.0901  -9.0042  -6.2476  -4.8367  -0.1467   0.2555
     0.3418   0.4763   0.5406   0.8547   1.0836   1.1347   1.3899   2.4368
     2.8852   2.9236   3.8884   3.9545   3.9800   6.2691   6.4679   7.0168
     7.6887   7.7079   7.8540   8.4634   8.7124   8.8680   9.0090   9.1602
     9.7061   9.7601  10.0817  10.2047  10.5926  11.1995  11.3471  11.5489
    11.6555  11.7258  12.8491  12.9409  14.0206  14.1558  14.2629  14.3241
    14.4516  15.1647  15.9250  16.0653  16.1146  16.2585  16.3427  16.4176
    16.7810  17.2281  17.2997  17.3620  17.4305  17.4981  17.6004  17.6824
    17.6847  17.7822  17.7990  17.8771  18.0048  18.2712  19.2062  19.2830
    19.3136  19.3371  19.4058  19.5519

     Writing all to output data dir tmp/Sb2Te3-uatsx-c3-1.0.save/ :
     XML data file, pseudopotentials, collected wavefunctions

     init_run     :      1.13s CPU      1.14s WALL (       1 calls)
     electrons    :    859.02s CPU    487.32s WALL (       1 calls)

     Called by init_run:
     wfcinit      :      0.00s CPU      0.00s WALL (       1 calls)
     wfcinit:wfcr :     17.34s CPU      8.93s WALL (     211 calls)
     potinit      :      0.48s CPU      0.48s WALL (       1 calls)
     hinit0       :      0.54s CPU      0.56s WALL (       1 calls)

     Called by electrons:
     c_bands      :    859.01s CPU    487.30s WALL (       1 calls)
     v_of_rho     :      0.04s CPU      0.03s WALL (       1 calls)
     v_h          :      0.00s CPU      0.01s WALL (       1 calls)
     v_xc         :      0.04s CPU      0.03s WALL (       1 calls)

     Called by c_bands:
     init_us_2    :      0.19s CPU      0.10s WALL (     211 calls)
     cegterg      :    838.16s CPU    475.81s WALL (     721 calls)

     Called by sum_band:

     Called by *egterg:
     cdiaghg      :    277.01s CPU    190.03s WALL (   12712 calls)
     cegterg:over :     51.26s CPU     27.94s WALL (   12501 calls)
     cegterg:upda :     26.55s CPU     11.44s WALL (   12501 calls)
     cegterg:last :     40.06s CPU     20.01s WALL (    5860 calls)
     h_psi        :    431.82s CPU    218.06s WALL (   13433 calls)
     g_psi        :      2.63s CPU      1.97s WALL (   12501 calls)

     Called by h_psi:
     h_psi:calbec :     20.42s CPU      8.67s WALL (   13433 calls)
     vloc_psi     :    398.35s CPU    203.52s WALL (   13433 calls)
     add_vuspsi   :     11.58s CPU      5.05s WALL (   13433 calls)

     General routines
     calbec       :     20.36s CPU      8.64s WALL (   13433 calls)
     fft          :      0.56s CPU      0.57s WALL (      11 calls)
     ffts         :      0.42s CPU      0.42s WALL (       1 calls)
     fftw         :    333.13s CPU    170.67s WALL ( 1215852 calls)
     interpolate  :      0.42s CPU      0.42s WALL (       1 calls)
     davcio       :      0.09s CPU      0.16s WALL (     422 calls)

     Parallel routines

     PWSCF        :  14m28.23s CPU   9m 8.37s WALL


   This run was terminated on:  20:15:32  14Aug2025            

=------------------------------------------------------------------------------=
   JOB DONE.
=------------------------------------------------------------------------------=
