
     Program PWSCF v.7.4.1 starts on 14Aug2025 at 19:50:35 

     This program is part of the open-source Quantum ESPRESSO suite
     for quantum simulation of materials; please cite
         "P. Giannozzi et al., J. Phys.:Condens. Matter 21 395502 (2009);
         "P. Giannozzi et al., J. Phys.:Condens. Matter 29 465901 (2017);
         "P. Giannozzi et al., J. Chem. Phys. 152 154105 (2020);
          URL http://www.quantum-espresso.org", 
     in publications or presentations arising from this work. More details at
     http://www.quantum-espresso.org/quote

     Parallel version (MPI & OpenMP), running on      48 processor cores
     Number of MPI processes:                24
     Threads/MPI process:                     2

     MPI processes distributed on     2 nodes
     121769 MiB available memory on the printing compute node when the environment starts

     Waiting for input...
     Reading input from standard input

     Current dimensions of program PWSCF are:
     Max number of different atomic species (ntypx) = 10
     Max number of k-points (npk) =  40000
     Max angular momentum in pseudopotentials (lmaxx) =  4

     IMPORTANT: XC functional enforced from input :
     Exchange-correlation= PBE
                           (   1   4   3   4   0   0   0)
     Any further DFT definition will be discarded
     Please, verify this is what you really want


     Atomic positions and unit cell read from directory:
     tmp/Sb2Te3-uatsx-c3-0.0.save/

     Message from routine setup:
     no reason to have ecutrho>4*ecutwfc

     R & G space division:  proc/nbgrp/npool/nimage =      24
     Subspace diagonalization in iterative solution of the eigenvalue problem:
     a serial algorithm will be used


     Parallelization info
     --------------------
     sticks:   dense  smooth     PW     G-vecs:    dense   smooth      PW
     Min          94      38     10                18908     4792     720
     Max          95      39     11                18933     4815     753
     Sum        2275     925    253               454177   115133   17665

     Using Slab Decomposition



     bravais-lattice index     =            0
     lattice parameter (alat)  =       8.1456  a.u.
     unit-cell volume          =    2407.5243 (a.u.)^3
     number of atoms/cell      =            5
     number of atomic types    =            2
     number of electrons       =        78.00
     number of Kohn-Sham states=          100
     kinetic-energy cutoff     =      50.0000  Ry
     charge density cutoff     =     500.0000  Ry
     Exchange-correlation= PBE
                           (   1   4   3   4   0   0   0)

     celldm(1)=   8.145633  celldm(2)=   0.000000  celldm(3)=   0.000000
     celldm(4)=   0.000000  celldm(5)=   0.000000  celldm(6)=   0.000000

     crystal axes: (cart. coord. in units of alat)
               a(1) = (   1.000000   0.000000   0.000000 )  
               a(2) = (  -0.500000   0.866351   0.000000 )  
               a(3) = (   0.000000   0.000000   5.141647 )  

     reciprocal axes: (cart. coord. in units 2 pi/alat)
               b(1) = (  1.000000  0.577133 -0.000000 )  
               b(2) = (  0.000000  1.154267  0.000000 )  
               b(3) = (  0.000000 -0.000000  0.194490 )  


     PseudoPot. # 1 for Sb read from file:
     /zfs-home/202401017n1/pseudos/Sb_ONCV_PBE-1.2.upf
     MD5 check sum: 0417cd6c0fe8ce4611e2b23135f1abd9
     Pseudo is Norm-conserving, Zval = 15.0
     Generated using ONCVPSP code by D. R. Hamann
     Using radial grid of  602 points,  6 beta functions with: 
                l(1) =   0
                l(2) =   0
                l(3) =   1
                l(4) =   1
                l(5) =   2
                l(6) =   2

     PseudoPot. # 2 for Te read from file:
     /zfs-home/202401017n1/pseudos/Te_ONCV_PBE-1.2.upf
     MD5 check sum: dd4de4dac1e38587f63aaf3700bb29d3
     Pseudo is Norm-conserving, Zval = 16.0
     Generated using ONCVPSP code by D. R. Hamann
     Using radial grid of  602 points,  6 beta functions with: 
                l(1) =   0
                l(2) =   0
                l(3) =   1
                l(4) =   1
                l(5) =   2
                l(6) =   2

     atomic species   valence    mass     pseudopotential
     Sb               15.00   121.76000     Sb( 1.00)
     Te               16.00   127.60000     Te( 1.00)

     No symmetry found


                                    s                        frac. trans.

      isym =  1     identity                                     

 cryst.   s( 1) = (     1          0          0      )
                  (     0          1          0      )
                  (     0          0          1      )

 cart.    s( 1) = (  1.0000000  0.0000000  0.0000000 )
                  (  0.0000000  1.0000000  0.0000000 )
                  (  0.0000000  0.0000000  1.0000000 )


   Cartesian axes

     site n.     atom                  positions (alat units)
         1        Sb     tau(   1) = (   0.5754431   0.4220521   3.0333851  )
         2        Te     tau(   2) = (   0.5747551   0.4223309   1.7144876  )
         3        Sb     tau(   3) = (   0.0752910   0.1326355   2.1082148  )
         4        Te     tau(   4) = (   0.0751205   0.1338578   3.4271228  )
         5        Te     tau(   5) = (   0.0748618   0.7114055   2.5708084  )

     -------------------------------------------------
     Parameters for Dispersion (Grimme-D2) Correction:
     -------------------------------------------------
       atom      VdW radius       C_6     

        Sb         3.555       1333.532
        Te         3.575       1101.101

   Crystallographic axes

     site n.     atom                  positions (cryst. coord.)
         1        Sb     tau(   1) = (  0.8190235  0.4871607  0.5899637  )
         2        Te     tau(   2) = (  0.8184963  0.4874825  0.3334511  )
         3        Sb     tau(   3) = (  0.1518394  0.1530967  0.4100271  )
         4        Te     tau(   4) = (  0.1523743  0.1545076  0.6665418  )
         5        Te     tau(   5) = (  0.4854376  0.8211517  0.4999971  )

     number of k points=   211
                       cart. coord. in units 2pi/alat
        k(    1) = (   0.0000000   0.0000000   0.0000000), wk =   0.0094787
        k(    2) = (   0.0071429   0.0041224   0.0000000), wk =   0.0094787
        k(    3) = (   0.0142857   0.0082448   0.0000000), wk =   0.0094787
        k(    4) = (   0.0214286   0.0123671   0.0000000), wk =   0.0094787
        k(    5) = (   0.0285714   0.0164895   0.0000000), wk =   0.0094787
        k(    6) = (   0.0357143   0.0206119   0.0000000), wk =   0.0094787
        k(    7) = (   0.0428571   0.0247343   0.0000000), wk =   0.0094787
        k(    8) = (   0.0500000   0.0288567   0.0000000), wk =   0.0094787
        k(    9) = (   0.0571429   0.0329790   0.0000000), wk =   0.0094787
        k(   10) = (   0.0642857   0.0371014   0.0000000), wk =   0.0094787
        k(   11) = (   0.0714286   0.0412238   0.0000000), wk =   0.0094787
        k(   12) = (   0.0785714   0.0453462   0.0000000), wk =   0.0094787
        k(   13) = (   0.0857143   0.0494686   0.0000000), wk =   0.0094787
        k(   14) = (   0.0928571   0.0535910   0.0000000), wk =   0.0094787
        k(   15) = (   0.1000000   0.0577133   0.0000000), wk =   0.0094787
        k(   16) = (   0.1071429   0.0618357   0.0000000), wk =   0.0094787
        k(   17) = (   0.1142857   0.0659581   0.0000000), wk =   0.0094787
        k(   18) = (   0.1214286   0.0700805   0.0000000), wk =   0.0094787
        k(   19) = (   0.1285714   0.0742029   0.0000000), wk =   0.0094787
        k(   20) = (   0.1357143   0.0783252   0.0000000), wk =   0.0094787
        k(   21) = (   0.1428571   0.0824476   0.0000000), wk =   0.0094787
        k(   22) = (   0.1500000   0.0865700   0.0000000), wk =   0.0094787
        k(   23) = (   0.1571429   0.0906924   0.0000000), wk =   0.0094787
        k(   24) = (   0.1642857   0.0948148   0.0000000), wk =   0.0094787
        k(   25) = (   0.1714286   0.0989371   0.0000000), wk =   0.0094787
        k(   26) = (   0.1785714   0.1030595   0.0000000), wk =   0.0094787
        k(   27) = (   0.1857143   0.1071819   0.0000000), wk =   0.0094787
        k(   28) = (   0.1928571   0.1113043   0.0000000), wk =   0.0094787
        k(   29) = (   0.2000000   0.1154267   0.0000000), wk =   0.0094787
        k(   30) = (   0.2071429   0.1195490   0.0000000), wk =   0.0094787
        k(   31) = (   0.2142857   0.1236714   0.0000000), wk =   0.0094787
        k(   32) = (   0.2214286   0.1277938   0.0000000), wk =   0.0094787
        k(   33) = (   0.2285714   0.1319162   0.0000000), wk =   0.0094787
        k(   34) = (   0.2357143   0.1360386   0.0000000), wk =   0.0094787
        k(   35) = (   0.2428571   0.1401610   0.0000000), wk =   0.0094787
        k(   36) = (   0.2500000   0.1442833   0.0000000), wk =   0.0094787
        k(   37) = (   0.2571429   0.1484057   0.0000000), wk =   0.0094787
        k(   38) = (   0.2642857   0.1525281   0.0000000), wk =   0.0094787
        k(   39) = (   0.2714286   0.1566505   0.0000000), wk =   0.0094787
        k(   40) = (   0.2785714   0.1607729   0.0000000), wk =   0.0094787
        k(   41) = (   0.2857143   0.1648952   0.0000000), wk =   0.0094787
        k(   42) = (   0.2928571   0.1690176   0.0000000), wk =   0.0094787
        k(   43) = (   0.3000000   0.1731400   0.0000000), wk =   0.0094787
        k(   44) = (   0.3071429   0.1772624   0.0000000), wk =   0.0094787
        k(   45) = (   0.3142857   0.1813848   0.0000000), wk =   0.0094787
        k(   46) = (   0.3214286   0.1855071   0.0000000), wk =   0.0094787
        k(   47) = (   0.3285714   0.1896295   0.0000000), wk =   0.0094787
        k(   48) = (   0.3357143   0.1937519   0.0000000), wk =   0.0094787
        k(   49) = (   0.3428571   0.1978743   0.0000000), wk =   0.0094787
        k(   50) = (   0.3500000   0.2019967   0.0000000), wk =   0.0094787
        k(   51) = (   0.3571429   0.2061190   0.0000000), wk =   0.0094787
        k(   52) = (   0.3642857   0.2102414   0.0000000), wk =   0.0094787
        k(   53) = (   0.3714286   0.2143638   0.0000000), wk =   0.0094787
        k(   54) = (   0.3785714   0.2184862   0.0000000), wk =   0.0094787
        k(   55) = (   0.3857143   0.2226086   0.0000000), wk =   0.0094787
        k(   56) = (   0.3928571   0.2267309   0.0000000), wk =   0.0094787
        k(   57) = (   0.4000000   0.2308533   0.0000000), wk =   0.0094787
        k(   58) = (   0.4071429   0.2349757   0.0000000), wk =   0.0094787
        k(   59) = (   0.4142857   0.2390981   0.0000000), wk =   0.0094787
        k(   60) = (   0.4214286   0.2432205   0.0000000), wk =   0.0094787
        k(   61) = (   0.4285714   0.2473429   0.0000000), wk =   0.0094787
        k(   62) = (   0.4357143   0.2514652   0.0000000), wk =   0.0094787
        k(   63) = (   0.4428571   0.2555876   0.0000000), wk =   0.0094787
        k(   64) = (   0.4500000   0.2597100   0.0000000), wk =   0.0094787
        k(   65) = (   0.4571429   0.2638324   0.0000000), wk =   0.0094787
        k(   66) = (   0.4642857   0.2679548   0.0000000), wk =   0.0094787
        k(   67) = (   0.4714286   0.2720771   0.0000000), wk =   0.0094787
        k(   68) = (   0.4785714   0.2761995   0.0000000), wk =   0.0094787
        k(   69) = (   0.4857143   0.2803219   0.0000000), wk =   0.0094787
        k(   70) = (   0.4928571   0.2844443   0.0000000), wk =   0.0094787
        k(   71) = (   0.5000000   0.2885667   0.0000000), wk =   0.0094787
        k(   72) = (   0.4976190   0.2926890   0.0000000), wk =   0.0094787
        k(   73) = (   0.4952381   0.2968114   0.0000000), wk =   0.0094787
        k(   74) = (   0.4928571   0.3009338   0.0000000), wk =   0.0094787
        k(   75) = (   0.4904762   0.3050562   0.0000000), wk =   0.0094787
        k(   76) = (   0.4880952   0.3091786   0.0000000), wk =   0.0094787
        k(   77) = (   0.4857143   0.3133009   0.0000000), wk =   0.0094787
        k(   78) = (   0.4833333   0.3174233   0.0000000), wk =   0.0094787
        k(   79) = (   0.4809524   0.3215457   0.0000000), wk =   0.0094787
        k(   80) = (   0.4785714   0.3256681   0.0000000), wk =   0.0094787
        k(   81) = (   0.4761905   0.3297905   0.0000000), wk =   0.0094787
        k(   82) = (   0.4738095   0.3339129   0.0000000), wk =   0.0094787
        k(   83) = (   0.4714286   0.3380352   0.0000000), wk =   0.0094787
        k(   84) = (   0.4690476   0.3421576   0.0000000), wk =   0.0094787
        k(   85) = (   0.4666667   0.3462800   0.0000000), wk =   0.0094787
        k(   86) = (   0.4642857   0.3504024   0.0000000), wk =   0.0094787
        k(   87) = (   0.4619048   0.3545248   0.0000000), wk =   0.0094787
        k(   88) = (   0.4595238   0.3586471   0.0000000), wk =   0.0094787
        k(   89) = (   0.4571429   0.3627695   0.0000000), wk =   0.0094787
        k(   90) = (   0.4547619   0.3668919   0.0000000), wk =   0.0094787
        k(   91) = (   0.4523810   0.3710143   0.0000000), wk =   0.0094787
        k(   92) = (   0.4500000   0.3751367   0.0000000), wk =   0.0094787
        k(   93) = (   0.4476190   0.3792590   0.0000000), wk =   0.0094787
        k(   94) = (   0.4452381   0.3833814   0.0000000), wk =   0.0094787
        k(   95) = (   0.4428571   0.3875038   0.0000000), wk =   0.0094787
        k(   96) = (   0.4404762   0.3916262   0.0000000), wk =   0.0094787
        k(   97) = (   0.4380952   0.3957486   0.0000000), wk =   0.0094787
        k(   98) = (   0.4357143   0.3998709   0.0000000), wk =   0.0094787
        k(   99) = (   0.4333333   0.4039933   0.0000000), wk =   0.0094787
        k(  100) = (   0.4309524   0.4081157   0.0000000), wk =   0.0094787
        k(  101) = (   0.4285714   0.4122381   0.0000000), wk =   0.0094787
        k(  102) = (   0.4261905   0.4163605   0.0000000), wk =   0.0094787
        k(  103) = (   0.4238095   0.4204829   0.0000000), wk =   0.0094787
        k(  104) = (   0.4214286   0.4246052   0.0000000), wk =   0.0094787
        k(  105) = (   0.4190476   0.4287276   0.0000000), wk =   0.0094787
        k(  106) = (   0.4166667   0.4328500   0.0000000), wk =   0.0094787
        k(  107) = (   0.4142857   0.4369724   0.0000000), wk =   0.0094787
        k(  108) = (   0.4119048   0.4410948   0.0000000), wk =   0.0094787
        k(  109) = (   0.4095238   0.4452171   0.0000000), wk =   0.0094787
        k(  110) = (   0.4071429   0.4493395   0.0000000), wk =   0.0094787
        k(  111) = (   0.4047619   0.4534619   0.0000000), wk =   0.0094787
        k(  112) = (   0.4023810   0.4575843   0.0000000), wk =   0.0094787
        k(  113) = (   0.4000000   0.4617067   0.0000000), wk =   0.0094787
        k(  114) = (   0.3976190   0.4658290   0.0000000), wk =   0.0094787
        k(  115) = (   0.3952381   0.4699514   0.0000000), wk =   0.0094787
        k(  116) = (   0.3928571   0.4740738   0.0000000), wk =   0.0094787
        k(  117) = (   0.3904762   0.4781962   0.0000000), wk =   0.0094787
        k(  118) = (   0.3880952   0.4823186   0.0000000), wk =   0.0094787
        k(  119) = (   0.3857143   0.4864409   0.0000000), wk =   0.0094787
        k(  120) = (   0.3833333   0.4905633   0.0000000), wk =   0.0094787
        k(  121) = (   0.3809524   0.4946857   0.0000000), wk =   0.0094787
        k(  122) = (   0.3785714   0.4988081   0.0000000), wk =   0.0094787
        k(  123) = (   0.3761905   0.5029305   0.0000000), wk =   0.0094787
        k(  124) = (   0.3738095   0.5070529   0.0000000), wk =   0.0094787
        k(  125) = (   0.3714286   0.5111752   0.0000000), wk =   0.0094787
        k(  126) = (   0.3690476   0.5152976   0.0000000), wk =   0.0094787
        k(  127) = (   0.3666667   0.5194200   0.0000000), wk =   0.0094787
        k(  128) = (   0.3642857   0.5235424   0.0000000), wk =   0.0094787
        k(  129) = (   0.3619048   0.5276648   0.0000000), wk =   0.0094787
        k(  130) = (   0.3595238   0.5317871   0.0000000), wk =   0.0094787
        k(  131) = (   0.3571429   0.5359095   0.0000000), wk =   0.0094787
        k(  132) = (   0.3547619   0.5400319   0.0000000), wk =   0.0094787
        k(  133) = (   0.3523810   0.5441543   0.0000000), wk =   0.0094787
        k(  134) = (   0.3500000   0.5482767   0.0000000), wk =   0.0094787
        k(  135) = (   0.3476190   0.5523990   0.0000000), wk =   0.0094787
        k(  136) = (   0.3452381   0.5565214   0.0000000), wk =   0.0094787
        k(  137) = (   0.3428571   0.5606438   0.0000000), wk =   0.0094787
        k(  138) = (   0.3404762   0.5647662   0.0000000), wk =   0.0094787
        k(  139) = (   0.3380952   0.5688886   0.0000000), wk =   0.0094787
        k(  140) = (   0.3357143   0.5730109   0.0000000), wk =   0.0094787
        k(  141) = (   0.3333333   0.5771333   0.0000000), wk =   0.0094787
        k(  142) = (   0.3285714   0.5688886   0.0000000), wk =   0.0094787
        k(  143) = (   0.3238095   0.5606438   0.0000000), wk =   0.0094787
        k(  144) = (   0.3190476   0.5523990   0.0000000), wk =   0.0094787
        k(  145) = (   0.3142857   0.5441543   0.0000000), wk =   0.0094787
        k(  146) = (   0.3095238   0.5359095   0.0000000), wk =   0.0094787
        k(  147) = (   0.3047619   0.5276648   0.0000000), wk =   0.0094787
        k(  148) = (   0.3000000   0.5194200   0.0000000), wk =   0.0094787
        k(  149) = (   0.2952381   0.5111752   0.0000000), wk =   0.0094787
        k(  150) = (   0.2904762   0.5029305   0.0000000), wk =   0.0094787
        k(  151) = (   0.2857143   0.4946857   0.0000000), wk =   0.0094787
        k(  152) = (   0.2809524   0.4864409   0.0000000), wk =   0.0094787
        k(  153) = (   0.2761905   0.4781962   0.0000000), wk =   0.0094787
        k(  154) = (   0.2714286   0.4699514   0.0000000), wk =   0.0094787
        k(  155) = (   0.2666667   0.4617067   0.0000000), wk =   0.0094787
        k(  156) = (   0.2619048   0.4534619   0.0000000), wk =   0.0094787
        k(  157) = (   0.2571429   0.4452171   0.0000000), wk =   0.0094787
        k(  158) = (   0.2523810   0.4369724   0.0000000), wk =   0.0094787
        k(  159) = (   0.2476190   0.4287276   0.0000000), wk =   0.0094787
        k(  160) = (   0.2428571   0.4204829   0.0000000), wk =   0.0094787
        k(  161) = (   0.2380952   0.4122381   0.0000000), wk =   0.0094787
        k(  162) = (   0.2333333   0.4039933   0.0000000), wk =   0.0094787
        k(  163) = (   0.2285714   0.3957486   0.0000000), wk =   0.0094787
        k(  164) = (   0.2238095   0.3875038   0.0000000), wk =   0.0094787
        k(  165) = (   0.2190476   0.3792590   0.0000000), wk =   0.0094787
        k(  166) = (   0.2142857   0.3710143   0.0000000), wk =   0.0094787
        k(  167) = (   0.2095238   0.3627695   0.0000000), wk =   0.0094787
        k(  168) = (   0.2047619   0.3545248   0.0000000), wk =   0.0094787
        k(  169) = (   0.2000000   0.3462800   0.0000000), wk =   0.0094787
        k(  170) = (   0.1952381   0.3380352   0.0000000), wk =   0.0094787
        k(  171) = (   0.1904762   0.3297905   0.0000000), wk =   0.0094787
        k(  172) = (   0.1857143   0.3215457   0.0000000), wk =   0.0094787
        k(  173) = (   0.1809524   0.3133009   0.0000000), wk =   0.0094787
        k(  174) = (   0.1761905   0.3050562   0.0000000), wk =   0.0094787
        k(  175) = (   0.1714286   0.2968114   0.0000000), wk =   0.0094787
        k(  176) = (   0.1666667   0.2885667   0.0000000), wk =   0.0094787
        k(  177) = (   0.1619048   0.2803219   0.0000000), wk =   0.0094787
        k(  178) = (   0.1571429   0.2720771   0.0000000), wk =   0.0094787
        k(  179) = (   0.1523810   0.2638324   0.0000000), wk =   0.0094787
        k(  180) = (   0.1476190   0.2555876   0.0000000), wk =   0.0094787
        k(  181) = (   0.1428571   0.2473429   0.0000000), wk =   0.0094787
        k(  182) = (   0.1380952   0.2390981   0.0000000), wk =   0.0094787
        k(  183) = (   0.1333333   0.2308533   0.0000000), wk =   0.0094787
        k(  184) = (   0.1285714   0.2226086   0.0000000), wk =   0.0094787
        k(  185) = (   0.1238095   0.2143638   0.0000000), wk =   0.0094787
        k(  186) = (   0.1190476   0.2061190   0.0000000), wk =   0.0094787
        k(  187) = (   0.1142857   0.1978743   0.0000000), wk =   0.0094787
        k(  188) = (   0.1095238   0.1896295   0.0000000), wk =   0.0094787
        k(  189) = (   0.1047619   0.1813848   0.0000000), wk =   0.0094787
        k(  190) = (   0.1000000   0.1731400   0.0000000), wk =   0.0094787
        k(  191) = (   0.0952381   0.1648952   0.0000000), wk =   0.0094787
        k(  192) = (   0.0904762   0.1566505   0.0000000), wk =   0.0094787
        k(  193) = (   0.0857143   0.1484057   0.0000000), wk =   0.0094787
        k(  194) = (   0.0809524   0.1401610   0.0000000), wk =   0.0094787
        k(  195) = (   0.0761905   0.1319162   0.0000000), wk =   0.0094787
        k(  196) = (   0.0714286   0.1236714   0.0000000), wk =   0.0094787
        k(  197) = (   0.0666667   0.1154267   0.0000000), wk =   0.0094787
        k(  198) = (   0.0619048   0.1071819   0.0000000), wk =   0.0094787
        k(  199) = (   0.0571429   0.0989371   0.0000000), wk =   0.0094787
        k(  200) = (   0.0523810   0.0906924   0.0000000), wk =   0.0094787
        k(  201) = (   0.0476190   0.0824476   0.0000000), wk =   0.0094787
        k(  202) = (   0.0428571   0.0742029   0.0000000), wk =   0.0094787
        k(  203) = (   0.0380952   0.0659581   0.0000000), wk =   0.0094787
        k(  204) = (   0.0333333   0.0577133   0.0000000), wk =   0.0094787
        k(  205) = (   0.0285714   0.0494686   0.0000000), wk =   0.0094787
        k(  206) = (   0.0238095   0.0412238   0.0000000), wk =   0.0094787
        k(  207) = (   0.0190476   0.0329790   0.0000000), wk =   0.0094787
        k(  208) = (   0.0142857   0.0247343   0.0000000), wk =   0.0094787
        k(  209) = (   0.0095238   0.0164895   0.0000000), wk =   0.0094787
        k(  210) = (   0.0047619   0.0082448   0.0000000), wk =   0.0094787
        k(  211) = (   0.0000000   0.0000000   0.0000000), wk =   0.0094787

                       cryst. coord.
        k(    1) = (   0.0000000   0.0000000   0.0000000), wk =   0.0094787
        k(    2) = (   0.0071429   0.0000000   0.0000000), wk =   0.0094787
        k(    3) = (   0.0142857   0.0000000   0.0000000), wk =   0.0094787
        k(    4) = (   0.0214286   0.0000000   0.0000000), wk =   0.0094787
        k(    5) = (   0.0285714   0.0000000   0.0000000), wk =   0.0094787
        k(    6) = (   0.0357143   0.0000000   0.0000000), wk =   0.0094787
        k(    7) = (   0.0428571   0.0000000   0.0000000), wk =   0.0094787
        k(    8) = (   0.0500000  -0.0000000   0.0000000), wk =   0.0094787
        k(    9) = (   0.0571429   0.0000000   0.0000000), wk =   0.0094787
        k(   10) = (   0.0642857   0.0000000   0.0000000), wk =   0.0094787
        k(   11) = (   0.0714286   0.0000000   0.0000000), wk =   0.0094787
        k(   12) = (   0.0785714   0.0000000   0.0000000), wk =   0.0094787
        k(   13) = (   0.0857143   0.0000000   0.0000000), wk =   0.0094787
        k(   14) = (   0.0928571   0.0000000   0.0000000), wk =   0.0094787
        k(   15) = (   0.1000000  -0.0000000   0.0000000), wk =   0.0094787
        k(   16) = (   0.1071429   0.0000000   0.0000000), wk =   0.0094787
        k(   17) = (   0.1142857   0.0000000   0.0000000), wk =   0.0094787
        k(   18) = (   0.1214286   0.0000000   0.0000000), wk =   0.0094787
        k(   19) = (   0.1285714   0.0000000   0.0000000), wk =   0.0094787
        k(   20) = (   0.1357143   0.0000000   0.0000000), wk =   0.0094787
        k(   21) = (   0.1428571   0.0000000   0.0000000), wk =   0.0094787
        k(   22) = (   0.1500000   0.0000000   0.0000000), wk =   0.0094787
        k(   23) = (   0.1571429   0.0000000   0.0000000), wk =   0.0094787
        k(   24) = (   0.1642857   0.0000000   0.0000000), wk =   0.0094787
        k(   25) = (   0.1714286   0.0000000   0.0000000), wk =   0.0094787
        k(   26) = (   0.1785714   0.0000000   0.0000000), wk =   0.0094787
        k(   27) = (   0.1857143   0.0000000   0.0000000), wk =   0.0094787
        k(   28) = (   0.1928571  -0.0000000   0.0000000), wk =   0.0094787
        k(   29) = (   0.2000000  -0.0000000   0.0000000), wk =   0.0094787
        k(   30) = (   0.2071429  -0.0000000   0.0000000), wk =   0.0094787
        k(   31) = (   0.2142857   0.0000000   0.0000000), wk =   0.0094787
        k(   32) = (   0.2214286   0.0000000   0.0000000), wk =   0.0094787
        k(   33) = (   0.2285714   0.0000000   0.0000000), wk =   0.0094787
        k(   34) = (   0.2357143   0.0000000   0.0000000), wk =   0.0094787
        k(   35) = (   0.2428571   0.0000000   0.0000000), wk =   0.0094787
        k(   36) = (   0.2500000   0.0000000   0.0000000), wk =   0.0094787
        k(   37) = (   0.2571429   0.0000000   0.0000000), wk =   0.0094787
        k(   38) = (   0.2642857   0.0000000   0.0000000), wk =   0.0094787
        k(   39) = (   0.2714286   0.0000000   0.0000000), wk =   0.0094787
        k(   40) = (   0.2785714   0.0000000   0.0000000), wk =   0.0094787
        k(   41) = (   0.2857143   0.0000000   0.0000000), wk =   0.0094787
        k(   42) = (   0.2928571   0.0000000   0.0000000), wk =   0.0094787
        k(   43) = (   0.3000000   0.0000000   0.0000000), wk =   0.0094787
        k(   44) = (   0.3071429   0.0000000   0.0000000), wk =   0.0094787
        k(   45) = (   0.3142857   0.0000000   0.0000000), wk =   0.0094787
        k(   46) = (   0.3214286   0.0000000   0.0000000), wk =   0.0094787
        k(   47) = (   0.3285714   0.0000000   0.0000000), wk =   0.0094787
        k(   48) = (   0.3357143   0.0000000   0.0000000), wk =   0.0094787
        k(   49) = (   0.3428571   0.0000000   0.0000000), wk =   0.0094787
        k(   50) = (   0.3500000   0.0000000   0.0000000), wk =   0.0094787
        k(   51) = (   0.3571429   0.0000000   0.0000000), wk =   0.0094787
        k(   52) = (   0.3642857   0.0000000   0.0000000), wk =   0.0094787
        k(   53) = (   0.3714286   0.0000000   0.0000000), wk =   0.0094787
        k(   54) = (   0.3785714   0.0000000   0.0000000), wk =   0.0094787
        k(   55) = (   0.3857143  -0.0000000   0.0000000), wk =   0.0094787
        k(   56) = (   0.3928571   0.0000000   0.0000000), wk =   0.0094787
        k(   57) = (   0.4000000  -0.0000000   0.0000000), wk =   0.0094787
        k(   58) = (   0.4071429   0.0000000   0.0000000), wk =   0.0094787
        k(   59) = (   0.4142857  -0.0000000   0.0000000), wk =   0.0094787
        k(   60) = (   0.4214286   0.0000000   0.0000000), wk =   0.0094787
        k(   61) = (   0.4285714   0.0000000   0.0000000), wk =   0.0094787
        k(   62) = (   0.4357143   0.0000000   0.0000000), wk =   0.0094787
        k(   63) = (   0.4428571   0.0000000   0.0000000), wk =   0.0094787
        k(   64) = (   0.4500000   0.0000000   0.0000000), wk =   0.0094787
        k(   65) = (   0.4571429   0.0000000   0.0000000), wk =   0.0094787
        k(   66) = (   0.4642857   0.0000000   0.0000000), wk =   0.0094787
        k(   67) = (   0.4714286   0.0000000   0.0000000), wk =   0.0094787
        k(   68) = (   0.4785714   0.0000000   0.0000000), wk =   0.0094787
        k(   69) = (   0.4857143   0.0000000   0.0000000), wk =   0.0094787
        k(   70) = (   0.4928571   0.0000000   0.0000000), wk =   0.0094787
        k(   71) = (   0.5000000   0.0000000   0.0000000), wk =   0.0094787
        k(   72) = (   0.4976190   0.0047619   0.0000000), wk =   0.0094787
        k(   73) = (   0.4952381   0.0095238   0.0000000), wk =   0.0094787
        k(   74) = (   0.4928571   0.0142857   0.0000000), wk =   0.0094787
        k(   75) = (   0.4904762   0.0190476   0.0000000), wk =   0.0094787
        k(   76) = (   0.4880952   0.0238095   0.0000000), wk =   0.0094787
        k(   77) = (   0.4857143   0.0285714   0.0000000), wk =   0.0094787
        k(   78) = (   0.4833333   0.0333333   0.0000000), wk =   0.0094787
        k(   79) = (   0.4809524   0.0380952   0.0000000), wk =   0.0094787
        k(   80) = (   0.4785714   0.0428571   0.0000000), wk =   0.0094787
        k(   81) = (   0.4761905   0.0476190   0.0000000), wk =   0.0094787
        k(   82) = (   0.4738095   0.0523810   0.0000000), wk =   0.0094787
        k(   83) = (   0.4714286   0.0571429   0.0000000), wk =   0.0094787
        k(   84) = (   0.4690476   0.0619048   0.0000000), wk =   0.0094787
        k(   85) = (   0.4666667   0.0666667   0.0000000), wk =   0.0094787
        k(   86) = (   0.4642857   0.0714286   0.0000000), wk =   0.0094787
        k(   87) = (   0.4619048   0.0761905   0.0000000), wk =   0.0094787
        k(   88) = (   0.4595238   0.0809524   0.0000000), wk =   0.0094787
        k(   89) = (   0.4571429   0.0857143   0.0000000), wk =   0.0094787
        k(   90) = (   0.4547619   0.0904762   0.0000000), wk =   0.0094787
        k(   91) = (   0.4523810   0.0952381   0.0000000), wk =   0.0094787
        k(   92) = (   0.4500000   0.1000000   0.0000000), wk =   0.0094787
        k(   93) = (   0.4476190   0.1047619   0.0000000), wk =   0.0094787
        k(   94) = (   0.4452381   0.1095238   0.0000000), wk =   0.0094787
        k(   95) = (   0.4428571   0.1142857   0.0000000), wk =   0.0094787
        k(   96) = (   0.4404762   0.1190476   0.0000000), wk =   0.0094787
        k(   97) = (   0.4380952   0.1238095   0.0000000), wk =   0.0094787
        k(   98) = (   0.4357143   0.1285714   0.0000000), wk =   0.0094787
        k(   99) = (   0.4333333   0.1333333   0.0000000), wk =   0.0094787
        k(  100) = (   0.4309524   0.1380952   0.0000000), wk =   0.0094787
        k(  101) = (   0.4285714   0.1428571   0.0000000), wk =   0.0094787
        k(  102) = (   0.4261905   0.1476190   0.0000000), wk =   0.0094787
        k(  103) = (   0.4238095   0.1523810   0.0000000), wk =   0.0094787
        k(  104) = (   0.4214286   0.1571429   0.0000000), wk =   0.0094787
        k(  105) = (   0.4190476   0.1619048   0.0000000), wk =   0.0094787
        k(  106) = (   0.4166667   0.1666667   0.0000000), wk =   0.0094787
        k(  107) = (   0.4142857   0.1714286   0.0000000), wk =   0.0094787
        k(  108) = (   0.4119048   0.1761905   0.0000000), wk =   0.0094787
        k(  109) = (   0.4095238   0.1809524   0.0000000), wk =   0.0094787
        k(  110) = (   0.4071429   0.1857143   0.0000000), wk =   0.0094787
        k(  111) = (   0.4047619   0.1904762   0.0000000), wk =   0.0094787
        k(  112) = (   0.4023810   0.1952381   0.0000000), wk =   0.0094787
        k(  113) = (   0.4000000   0.2000000   0.0000000), wk =   0.0094787
        k(  114) = (   0.3976190   0.2047619   0.0000000), wk =   0.0094787
        k(  115) = (   0.3952381   0.2095238   0.0000000), wk =   0.0094787
        k(  116) = (   0.3928571   0.2142857   0.0000000), wk =   0.0094787
        k(  117) = (   0.3904762   0.2190476   0.0000000), wk =   0.0094787
        k(  118) = (   0.3880952   0.2238095   0.0000000), wk =   0.0094787
        k(  119) = (   0.3857143   0.2285714   0.0000000), wk =   0.0094787
        k(  120) = (   0.3833333   0.2333333   0.0000000), wk =   0.0094787
        k(  121) = (   0.3809524   0.2380952   0.0000000), wk =   0.0094787
        k(  122) = (   0.3785714   0.2428571   0.0000000), wk =   0.0094787
        k(  123) = (   0.3761905   0.2476190   0.0000000), wk =   0.0094787
        k(  124) = (   0.3738095   0.2523810   0.0000000), wk =   0.0094787
        k(  125) = (   0.3714286   0.2571429   0.0000000), wk =   0.0094787
        k(  126) = (   0.3690476   0.2619048   0.0000000), wk =   0.0094787
        k(  127) = (   0.3666667   0.2666667   0.0000000), wk =   0.0094787
        k(  128) = (   0.3642857   0.2714286   0.0000000), wk =   0.0094787
        k(  129) = (   0.3619048   0.2761905   0.0000000), wk =   0.0094787
        k(  130) = (   0.3595238   0.2809524   0.0000000), wk =   0.0094787
        k(  131) = (   0.3571429   0.2857143   0.0000000), wk =   0.0094787
        k(  132) = (   0.3547619   0.2904762   0.0000000), wk =   0.0094787
        k(  133) = (   0.3523810   0.2952381   0.0000000), wk =   0.0094787
        k(  134) = (   0.3500000   0.3000000   0.0000000), wk =   0.0094787
        k(  135) = (   0.3476190   0.3047619   0.0000000), wk =   0.0094787
        k(  136) = (   0.3452381   0.3095238   0.0000000), wk =   0.0094787
        k(  137) = (   0.3428571   0.3142857   0.0000000), wk =   0.0094787
        k(  138) = (   0.3404762   0.3190476   0.0000000), wk =   0.0094787
        k(  139) = (   0.3380952   0.3238095   0.0000000), wk =   0.0094787
        k(  140) = (   0.3357143   0.3285714   0.0000000), wk =   0.0094787
        k(  141) = (   0.3333333   0.3333333   0.0000000), wk =   0.0094787
        k(  142) = (   0.3285714   0.3285714   0.0000000), wk =   0.0094787
        k(  143) = (   0.3238095   0.3238095   0.0000000), wk =   0.0094787
        k(  144) = (   0.3190476   0.3190476   0.0000000), wk =   0.0094787
        k(  145) = (   0.3142857   0.3142857   0.0000000), wk =   0.0094787
        k(  146) = (   0.3095238   0.3095238   0.0000000), wk =   0.0094787
        k(  147) = (   0.3047619   0.3047619   0.0000000), wk =   0.0094787
        k(  148) = (   0.3000000   0.3000000   0.0000000), wk =   0.0094787
        k(  149) = (   0.2952381   0.2952381   0.0000000), wk =   0.0094787
        k(  150) = (   0.2904762   0.2904762   0.0000000), wk =   0.0094787
        k(  151) = (   0.2857143   0.2857143   0.0000000), wk =   0.0094787
        k(  152) = (   0.2809524   0.2809524   0.0000000), wk =   0.0094787
        k(  153) = (   0.2761905   0.2761905   0.0000000), wk =   0.0094787
        k(  154) = (   0.2714286   0.2714286   0.0000000), wk =   0.0094787
        k(  155) = (   0.2666667   0.2666667   0.0000000), wk =   0.0094787
        k(  156) = (   0.2619048   0.2619048   0.0000000), wk =   0.0094787
        k(  157) = (   0.2571429   0.2571429   0.0000000), wk =   0.0094787
        k(  158) = (   0.2523810   0.2523810   0.0000000), wk =   0.0094787
        k(  159) = (   0.2476190   0.2476190   0.0000000), wk =   0.0094787
        k(  160) = (   0.2428571   0.2428571   0.0000000), wk =   0.0094787
        k(  161) = (   0.2380952   0.2380952   0.0000000), wk =   0.0094787
        k(  162) = (   0.2333333   0.2333333   0.0000000), wk =   0.0094787
        k(  163) = (   0.2285714   0.2285714   0.0000000), wk =   0.0094787
        k(  164) = (   0.2238095   0.2238095   0.0000000), wk =   0.0094787
        k(  165) = (   0.2190476   0.2190476   0.0000000), wk =   0.0094787
        k(  166) = (   0.2142857   0.2142857   0.0000000), wk =   0.0094787
        k(  167) = (   0.2095238   0.2095238   0.0000000), wk =   0.0094787
        k(  168) = (   0.2047619   0.2047619   0.0000000), wk =   0.0094787
        k(  169) = (   0.2000000   0.2000000   0.0000000), wk =   0.0094787
        k(  170) = (   0.1952381   0.1952381   0.0000000), wk =   0.0094787
        k(  171) = (   0.1904762   0.1904762   0.0000000), wk =   0.0094787
        k(  172) = (   0.1857143   0.1857143   0.0000000), wk =   0.0094787
        k(  173) = (   0.1809524   0.1809524   0.0000000), wk =   0.0094787
        k(  174) = (   0.1761905   0.1761905   0.0000000), wk =   0.0094787
        k(  175) = (   0.1714286   0.1714286   0.0000000), wk =   0.0094787
        k(  176) = (   0.1666667   0.1666667   0.0000000), wk =   0.0094787
        k(  177) = (   0.1619048   0.1619048   0.0000000), wk =   0.0094787
        k(  178) = (   0.1571429   0.1571429   0.0000000), wk =   0.0094787
        k(  179) = (   0.1523810   0.1523810   0.0000000), wk =   0.0094787
        k(  180) = (   0.1476190   0.1476190   0.0000000), wk =   0.0094787
        k(  181) = (   0.1428571   0.1428571   0.0000000), wk =   0.0094787
        k(  182) = (   0.1380952   0.1380952   0.0000000), wk =   0.0094787
        k(  183) = (   0.1333333   0.1333333   0.0000000), wk =   0.0094787
        k(  184) = (   0.1285714   0.1285714   0.0000000), wk =   0.0094787
        k(  185) = (   0.1238095   0.1238095   0.0000000), wk =   0.0094787
        k(  186) = (   0.1190476   0.1190476   0.0000000), wk =   0.0094787
        k(  187) = (   0.1142857   0.1142857   0.0000000), wk =   0.0094787
        k(  188) = (   0.1095238   0.1095238   0.0000000), wk =   0.0094787
        k(  189) = (   0.1047619   0.1047619   0.0000000), wk =   0.0094787
        k(  190) = (   0.1000000   0.1000000   0.0000000), wk =   0.0094787
        k(  191) = (   0.0952381   0.0952381   0.0000000), wk =   0.0094787
        k(  192) = (   0.0904762   0.0904762   0.0000000), wk =   0.0094787
        k(  193) = (   0.0857143   0.0857143   0.0000000), wk =   0.0094787
        k(  194) = (   0.0809524   0.0809524   0.0000000), wk =   0.0094787
        k(  195) = (   0.0761905   0.0761905   0.0000000), wk =   0.0094787
        k(  196) = (   0.0714286   0.0714286   0.0000000), wk =   0.0094787
        k(  197) = (   0.0666667   0.0666667   0.0000000), wk =   0.0094787
        k(  198) = (   0.0619048   0.0619048   0.0000000), wk =   0.0094787
        k(  199) = (   0.0571429   0.0571429   0.0000000), wk =   0.0094787
        k(  200) = (   0.0523810   0.0523810   0.0000000), wk =   0.0094787
        k(  201) = (   0.0476190   0.0476190   0.0000000), wk =   0.0094787
        k(  202) = (   0.0428571   0.0428571   0.0000000), wk =   0.0094787
        k(  203) = (   0.0380952   0.0380952   0.0000000), wk =   0.0094787
        k(  204) = (   0.0333333   0.0333333   0.0000000), wk =   0.0094787
        k(  205) = (   0.0285714   0.0285714   0.0000000), wk =   0.0094787
        k(  206) = (   0.0238095   0.0238095   0.0000000), wk =   0.0094787
        k(  207) = (   0.0190476   0.0190476   0.0000000), wk =   0.0094787
        k(  208) = (   0.0142857   0.0142857   0.0000000), wk =   0.0094787
        k(  209) = (   0.0095238   0.0095238   0.0000000), wk =   0.0094787
        k(  210) = (   0.0047619   0.0047619   0.0000000), wk =   0.0094787
        k(  211) = (   0.0000000   0.0000000   0.0000000), wk =   0.0094787

     Dense  grid:   454177 G-vectors     FFT dimensions: (  60,  60, 300)

     Smooth grid:   115133 G-vectors     FFT dimensions: (  40,  40, 192)

     Dynamical RAM for                 wfc:       0.91 MB

     Dynamical RAM for     wfc (w. buffer):       0.91 MB

     Dynamical RAM for           str. fact:       0.58 MB

     Dynamical RAM for           local pot:       0.00 MB

     Dynamical RAM for          nlocal pot:       0.82 MB

     Dynamical RAM for                qrad:       3.59 MB

     Dynamical RAM for          rho,v,vnew:       1.94 MB

     Dynamical RAM for           G-vectors:       1.12 MB

     Dynamical RAM for          h,s,v(r/c):       1.83 MB

     Dynamical RAM for          <psi|beta>:       0.14 MB

     Dynamical RAM for                 psi:       1.82 MB

     Dynamical RAM for                hpsi:       1.82 MB

     Dynamical RAM for      wfcinit/wfcrot:       2.05 MB

     Estimated static dynamical RAM per process >      11.61 MB

     Estimated max dynamical RAM per process >      17.23 MB

     Estimated total dynamical RAM >     413.46 MB

     The potential is recalculated from file :
     tmp/Sb2Te3-uatsx-c3-0.0.save/charge-density

     Starting wfcs are random

     Band Structure Calculation
     Davidson diagonalization with overlap

     Computing kpt #:     1  of   211
     total cpu time spent up to now is        3.9 secs

     Computing kpt #:     2  of   211
     total cpu time spent up to now is        6.3 secs

     Computing kpt #:     3  of   211
     total cpu time spent up to now is        8.8 secs

     Computing kpt #:     4  of   211
     total cpu time spent up to now is       11.1 secs

     Computing kpt #:     5  of   211
     total cpu time spent up to now is       13.2 secs

     Computing kpt #:     6  of   211
     total cpu time spent up to now is       15.3 secs

     Computing kpt #:     7  of   211
     total cpu time spent up to now is       17.4 secs

     Computing kpt #:     8  of   211
     total cpu time spent up to now is       19.2 secs

     Computing kpt #:     9  of   211
     total cpu time spent up to now is       21.1 secs

     Computing kpt #:    10  of   211
     total cpu time spent up to now is       22.9 secs

     Computing kpt #:    11  of   211
     total cpu time spent up to now is       24.8 secs

     Computing kpt #:    12  of   211
     total cpu time spent up to now is       26.7 secs

     Computing kpt #:    13  of   211
     total cpu time spent up to now is       28.7 secs

     Computing kpt #:    14  of   211
     total cpu time spent up to now is       30.7 secs

     Computing kpt #:    15  of   211
     total cpu time spent up to now is       32.8 secs

     Computing kpt #:    16  of   211
     total cpu time spent up to now is       35.2 secs

     Computing kpt #:    17  of   211
     total cpu time spent up to now is       37.4 secs

     Computing kpt #:    18  of   211
     total cpu time spent up to now is       39.8 secs

     Computing kpt #:    19  of   211
     total cpu time spent up to now is       42.0 secs

     Computing kpt #:    20  of   211
     total cpu time spent up to now is       44.0 secs

     Computing kpt #:    21  of   211
     total cpu time spent up to now is       46.0 secs

     Computing kpt #:    22  of   211
     total cpu time spent up to now is       47.9 secs

     Computing kpt #:    23  of   211
     total cpu time spent up to now is       50.1 secs

     Computing kpt #:    24  of   211
     total cpu time spent up to now is       52.3 secs

     Computing kpt #:    25  of   211
     total cpu time spent up to now is       54.5 secs

     Computing kpt #:    26  of   211
     total cpu time spent up to now is       56.9 secs

     Computing kpt #:    27  of   211
     total cpu time spent up to now is       59.3 secs

     Computing kpt #:    28  of   211
     total cpu time spent up to now is       61.5 secs

     Computing kpt #:    29  of   211
     total cpu time spent up to now is       63.8 secs

     Computing kpt #:    30  of   211
     total cpu time spent up to now is       66.0 secs

     Computing kpt #:    31  of   211
     total cpu time spent up to now is       68.4 secs

     Computing kpt #:    32  of   211
     total cpu time spent up to now is       70.8 secs

     Computing kpt #:    33  of   211
     total cpu time spent up to now is       73.0 secs

     Computing kpt #:    34  of   211
     total cpu time spent up to now is       75.2 secs

     Computing kpt #:    35  of   211
     total cpu time spent up to now is       77.4 secs

     Computing kpt #:    36  of   211
     total cpu time spent up to now is       79.6 secs

     Computing kpt #:    37  of   211
     total cpu time spent up to now is       81.8 secs

     Computing kpt #:    38  of   211
     total cpu time spent up to now is       84.0 secs

     Computing kpt #:    39  of   211
     total cpu time spent up to now is       86.2 secs

     Computing kpt #:    40  of   211
     total cpu time spent up to now is       88.6 secs

     Computing kpt #:    41  of   211
     total cpu time spent up to now is       90.6 secs

     Computing kpt #:    42  of   211
     total cpu time spent up to now is       93.1 secs

     Computing kpt #:    43  of   211
     total cpu time spent up to now is       95.2 secs

     Computing kpt #:    44  of   211
     total cpu time spent up to now is       97.2 secs

     Computing kpt #:    45  of   211
     total cpu time spent up to now is       99.1 secs

     Computing kpt #:    46  of   211
     total cpu time spent up to now is      101.2 secs

     Computing kpt #:    47  of   211
     total cpu time spent up to now is      103.3 secs

     Computing kpt #:    48  of   211
     total cpu time spent up to now is      105.4 secs

     Computing kpt #:    49  of   211
     total cpu time spent up to now is      107.3 secs

     Computing kpt #:    50  of   211
     total cpu time spent up to now is      109.4 secs

     Computing kpt #:    51  of   211
     total cpu time spent up to now is      111.4 secs

     Computing kpt #:    52  of   211
     total cpu time spent up to now is      113.4 secs

     Computing kpt #:    53  of   211
     total cpu time spent up to now is      115.4 secs

     Computing kpt #:    54  of   211
     total cpu time spent up to now is      117.4 secs

     Computing kpt #:    55  of   211
     total cpu time spent up to now is      119.5 secs

     Computing kpt #:    56  of   211
     total cpu time spent up to now is      121.5 secs

     Computing kpt #:    57  of   211
     total cpu time spent up to now is      123.7 secs

     Computing kpt #:    58  of   211
     total cpu time spent up to now is      125.8 secs

     Computing kpt #:    59  of   211
     total cpu time spent up to now is      127.8 secs

     Computing kpt #:    60  of   211
     total cpu time spent up to now is      130.0 secs

     Computing kpt #:    61  of   211
     total cpu time spent up to now is      132.3 secs

     Computing kpt #:    62  of   211
     total cpu time spent up to now is      134.5 secs

     Computing kpt #:    63  of   211
     total cpu time spent up to now is      136.4 secs

     Computing kpt #:    64  of   211
     total cpu time spent up to now is      138.5 secs

     Computing kpt #:    65  of   211
     total cpu time spent up to now is      140.7 secs

     Computing kpt #:    66  of   211
     total cpu time spent up to now is      142.9 secs

     Computing kpt #:    67  of   211
     total cpu time spent up to now is      145.3 secs

     Computing kpt #:    68  of   211
     total cpu time spent up to now is      147.5 secs

     Computing kpt #:    69  of   211
     total cpu time spent up to now is      149.6 secs

     Computing kpt #:    70  of   211
     total cpu time spent up to now is      151.8 secs

     Computing kpt #:    71  of   211
     total cpu time spent up to now is      154.3 secs

     Computing kpt #:    72  of   211
     total cpu time spent up to now is      156.4 secs

     Computing kpt #:    73  of   211
     total cpu time spent up to now is      158.9 secs

     Computing kpt #:    74  of   211
     total cpu time spent up to now is      161.3 secs

     Computing kpt #:    75  of   211
     total cpu time spent up to now is      163.5 secs

     Computing kpt #:    76  of   211
     total cpu time spent up to now is      165.9 secs

     Computing kpt #:    77  of   211
     total cpu time spent up to now is      168.5 secs

     Computing kpt #:    78  of   211
     total cpu time spent up to now is      171.2 secs

     Computing kpt #:    79  of   211
     total cpu time spent up to now is      173.9 secs

     Computing kpt #:    80  of   211
     total cpu time spent up to now is      176.3 secs

     Computing kpt #:    81  of   211
     total cpu time spent up to now is      178.5 secs

     Computing kpt #:    82  of   211
     total cpu time spent up to now is      180.7 secs

     Computing kpt #:    83  of   211
     total cpu time spent up to now is      182.9 secs

     Computing kpt #:    84  of   211
     total cpu time spent up to now is      185.1 secs

     Computing kpt #:    85  of   211
     total cpu time spent up to now is      187.3 secs

     Computing kpt #:    86  of   211
     total cpu time spent up to now is      189.4 secs

     Computing kpt #:    87  of   211
     total cpu time spent up to now is      191.6 secs

     Computing kpt #:    88  of   211
     total cpu time spent up to now is      193.8 secs

     Computing kpt #:    89  of   211
     total cpu time spent up to now is      195.9 secs

     Computing kpt #:    90  of   211
     total cpu time spent up to now is      198.0 secs

     Computing kpt #:    91  of   211
     total cpu time spent up to now is      200.1 secs

     Computing kpt #:    92  of   211
     total cpu time spent up to now is      202.3 secs

     Computing kpt #:    93  of   211
     total cpu time spent up to now is      204.5 secs

     Computing kpt #:    94  of   211
     total cpu time spent up to now is      206.9 secs

     Computing kpt #:    95  of   211
     total cpu time spent up to now is      209.3 secs

     Computing kpt #:    96  of   211
     total cpu time spent up to now is      211.9 secs

     Computing kpt #:    97  of   211
     total cpu time spent up to now is      214.2 secs

     Computing kpt #:    98  of   211
     total cpu time spent up to now is      216.7 secs

     Computing kpt #:    99  of   211
     total cpu time spent up to now is      219.0 secs

     Computing kpt #:   100  of   211
     total cpu time spent up to now is      221.2 secs

     Computing kpt #:   101  of   211
     total cpu time spent up to now is      223.3 secs

     Computing kpt #:   102  of   211
     total cpu time spent up to now is      225.5 secs

     Computing kpt #:   103  of   211
     total cpu time spent up to now is      227.6 secs

     Computing kpt #:   104  of   211
     total cpu time spent up to now is      229.8 secs

     Computing kpt #:   105  of   211
     total cpu time spent up to now is      232.1 secs

     Computing kpt #:   106  of   211
     total cpu time spent up to now is      234.7 secs

     Computing kpt #:   107  of   211
     total cpu time spent up to now is      237.2 secs

     Computing kpt #:   108  of   211
     total cpu time spent up to now is      239.7 secs

     Computing kpt #:   109  of   211
     total cpu time spent up to now is      242.1 secs

     Computing kpt #:   110  of   211
     c_bands:  1 eigenvalues not converged
     total cpu time spent up to now is      245.4 secs

     Computing kpt #:   111  of   211
     c_bands:  1 eigenvalues not converged
     total cpu time spent up to now is      248.6 secs

     Computing kpt #:   112  of   211
     total cpu time spent up to now is      251.7 secs

     Computing kpt #:   113  of   211
     total cpu time spent up to now is      254.2 secs

     Computing kpt #:   114  of   211
     total cpu time spent up to now is      256.6 secs

     Computing kpt #:   115  of   211
     total cpu time spent up to now is      259.0 secs

     Computing kpt #:   116  of   211
     total cpu time spent up to now is      261.4 secs

     Computing kpt #:   117  of   211
     total cpu time spent up to now is      264.0 secs

     Computing kpt #:   118  of   211
     c_bands:  1 eigenvalues not converged
     total cpu time spent up to now is      267.2 secs

     Computing kpt #:   119  of   211
     total cpu time spent up to now is      269.7 secs

     Computing kpt #:   120  of   211
     total cpu time spent up to now is      272.1 secs

     Computing kpt #:   121  of   211
     total cpu time spent up to now is      274.5 secs

     Computing kpt #:   122  of   211
     total cpu time spent up to now is      276.8 secs

     Computing kpt #:   123  of   211
     total cpu time spent up to now is      279.1 secs

     Computing kpt #:   124  of   211
     total cpu time spent up to now is      281.4 secs

     Computing kpt #:   125  of   211
     total cpu time spent up to now is      283.7 secs

     Computing kpt #:   126  of   211
     total cpu time spent up to now is      286.1 secs

     Computing kpt #:   127  of   211
     total cpu time spent up to now is      288.6 secs

     Computing kpt #:   128  of   211
     total cpu time spent up to now is      291.0 secs

     Computing kpt #:   129  of   211
     total cpu time spent up to now is      293.3 secs

     Computing kpt #:   130  of   211
     total cpu time spent up to now is      295.5 secs

     Computing kpt #:   131  of   211
     total cpu time spent up to now is      297.8 secs

     Computing kpt #:   132  of   211
     total cpu time spent up to now is      300.0 secs

     Computing kpt #:   133  of   211
     total cpu time spent up to now is      302.3 secs

     Computing kpt #:   134  of   211
     total cpu time spent up to now is      304.6 secs

     Computing kpt #:   135  of   211
     total cpu time spent up to now is      307.0 secs

     Computing kpt #:   136  of   211
     total cpu time spent up to now is      309.6 secs

     Computing kpt #:   137  of   211
     total cpu time spent up to now is      312.2 secs

     Computing kpt #:   138  of   211
     total cpu time spent up to now is      314.7 secs

     Computing kpt #:   139  of   211
     total cpu time spent up to now is      317.0 secs

     Computing kpt #:   140  of   211
     total cpu time spent up to now is      319.2 secs

     Computing kpt #:   141  of   211
     total cpu time spent up to now is      321.5 secs

     Computing kpt #:   142  of   211
     total cpu time spent up to now is      323.8 secs

     Computing kpt #:   143  of   211
     total cpu time spent up to now is      326.1 secs

     Computing kpt #:   144  of   211
     total cpu time spent up to now is      328.4 secs

     Computing kpt #:   145  of   211
     total cpu time spent up to now is      330.8 secs

     Computing kpt #:   146  of   211
     total cpu time spent up to now is      333.4 secs

     Computing kpt #:   147  of   211
     total cpu time spent up to now is      335.8 secs

     Computing kpt #:   148  of   211
     total cpu time spent up to now is      338.1 secs

     Computing kpt #:   149  of   211
     total cpu time spent up to now is      340.4 secs

     Computing kpt #:   150  of   211
     total cpu time spent up to now is      342.8 secs

     Computing kpt #:   151  of   211
     total cpu time spent up to now is      345.3 secs

     Computing kpt #:   152  of   211
     c_bands:  1 eigenvalues not converged
     total cpu time spent up to now is      348.6 secs

     Computing kpt #:   153  of   211
     total cpu time spent up to now is      350.9 secs

     Computing kpt #:   154  of   211
     total cpu time spent up to now is      353.3 secs

     Computing kpt #:   155  of   211
     total cpu time spent up to now is      355.8 secs

     Computing kpt #:   156  of   211
     total cpu time spent up to now is      358.9 secs

     Computing kpt #:   157  of   211
     total cpu time spent up to now is      361.4 secs

     Computing kpt #:   158  of   211
     total cpu time spent up to now is      363.8 secs

     Computing kpt #:   159  of   211
     total cpu time spent up to now is      366.1 secs

     Computing kpt #:   160  of   211
     total cpu time spent up to now is      368.4 secs

     Computing kpt #:   161  of   211
     total cpu time spent up to now is      370.9 secs

     Computing kpt #:   162  of   211
     total cpu time spent up to now is      373.5 secs

     Computing kpt #:   163  of   211
     total cpu time spent up to now is      376.0 secs

     Computing kpt #:   164  of   211
     total cpu time spent up to now is      378.2 secs

     Computing kpt #:   165  of   211
     total cpu time spent up to now is      380.3 secs

     Computing kpt #:   166  of   211
     total cpu time spent up to now is      382.5 secs

     Computing kpt #:   167  of   211
     total cpu time spent up to now is      384.7 secs

     Computing kpt #:   168  of   211
     total cpu time spent up to now is      386.9 secs

     Computing kpt #:   169  of   211
     total cpu time spent up to now is      389.3 secs

     Computing kpt #:   170  of   211
     total cpu time spent up to now is      391.5 secs

     Computing kpt #:   171  of   211
     total cpu time spent up to now is      393.6 secs

     Computing kpt #:   172  of   211
     total cpu time spent up to now is      395.6 secs

     Computing kpt #:   173  of   211
     total cpu time spent up to now is      397.7 secs

     Computing kpt #:   174  of   211
     total cpu time spent up to now is      399.7 secs

     Computing kpt #:   175  of   211
     total cpu time spent up to now is      401.8 secs

     Computing kpt #:   176  of   211
     total cpu time spent up to now is      404.5 secs

     Computing kpt #:   177  of   211
     total cpu time spent up to now is      406.7 secs

     Computing kpt #:   178  of   211
     total cpu time spent up to now is      408.8 secs

     Computing kpt #:   179  of   211
     c_bands:  1 eigenvalues not converged
     total cpu time spent up to now is      412.0 secs

     Computing kpt #:   180  of   211
     total cpu time spent up to now is      414.2 secs

     Computing kpt #:   181  of   211
     total cpu time spent up to now is      416.5 secs

     Computing kpt #:   182  of   211
     total cpu time spent up to now is      418.7 secs

     Computing kpt #:   183  of   211
     total cpu time spent up to now is      420.8 secs

     Computing kpt #:   184  of   211
     total cpu time spent up to now is      423.9 secs

     Computing kpt #:   185  of   211
     total cpu time spent up to now is      426.5 secs

     Computing kpt #:   186  of   211
     total cpu time spent up to now is      428.9 secs

     Computing kpt #:   187  of   211
     total cpu time spent up to now is      431.4 secs

     Computing kpt #:   188  of   211
     total cpu time spent up to now is      433.9 secs

     Computing kpt #:   189  of   211
     total cpu time spent up to now is      436.5 secs

     Computing kpt #:   190  of   211
     total cpu time spent up to now is      438.7 secs

     Computing kpt #:   191  of   211
     total cpu time spent up to now is      440.8 secs

     Computing kpt #:   192  of   211
     total cpu time spent up to now is      442.9 secs

     Computing kpt #:   193  of   211
     total cpu time spent up to now is      445.0 secs

     Computing kpt #:   194  of   211
     total cpu time spent up to now is      447.3 secs

     Computing kpt #:   195  of   211
     total cpu time spent up to now is      449.8 secs

     Computing kpt #:   196  of   211
     total cpu time spent up to now is      452.0 secs

     Computing kpt #:   197  of   211
     total cpu time spent up to now is      454.1 secs

     Computing kpt #:   198  of   211
     total cpu time spent up to now is      456.4 secs

     Computing kpt #:   199  of   211
     total cpu time spent up to now is      458.8 secs

     Computing kpt #:   200  of   211
     total cpu time spent up to now is      461.3 secs

     Computing kpt #:   201  of   211
     total cpu time spent up to now is      463.6 secs

     Computing kpt #:   202  of   211
     total cpu time spent up to now is      465.9 secs

     Computing kpt #:   203  of   211
     total cpu time spent up to now is      468.2 secs

     Computing kpt #:   204  of   211
     total cpu time spent up to now is      470.5 secs

     Computing kpt #:   205  of   211
     total cpu time spent up to now is      472.9 secs

     Computing kpt #:   206  of   211
     total cpu time spent up to now is      475.3 secs

     Computing kpt #:   207  of   211
     total cpu time spent up to now is      478.1 secs

     Computing kpt #:   208  of   211
     total cpu time spent up to now is      480.6 secs

     Computing kpt #:   209  of   211
     total cpu time spent up to now is      483.1 secs

     Computing kpt #:   210  of   211
     total cpu time spent up to now is      485.6 secs

     Computing kpt #:   211  of   211
     c_bands:  1 eigenvalues not converged
     total cpu time spent up to now is      488.9 secs

     ethr =  1.28E-10,  avg # of iterations = 59.4

     total cpu time spent up to now is      488.9 secs

     End of band structure calculation

          k = 0.0000 0.0000 0.0000 ( 14301 PWs)   bands (ev):

   -34.5677 -34.5675 -34.5620 -34.5619 -34.5409 -34.5394 -34.5350 -34.5341
   -34.5301 -34.5245 -34.4589 -34.4469 -34.4466 -34.4077 -34.4077 -27.3123
   -27.3122 -27.3092 -27.3091 -27.3033 -27.3004 -27.3003 -27.3002 -27.2973
   -27.2972 -10.6060 -10.0687  -8.9722  -6.1931  -4.7410  -0.1079   0.3774
     0.3797   0.5931   0.5974   0.9286   1.1937   1.1953   1.4957   2.5602
     2.9934   2.9952   4.0347   4.0532   4.0572   6.3261   6.5274   7.0683
     7.7616   7.8621   7.8666   8.5226   8.8106   8.9651   9.1721   9.1770
     9.8259   9.8298  10.1622  10.2746  10.6581  11.3649  11.3694  11.6632
    11.7933  11.7962  12.9103  12.9970  14.1938  14.1975  14.4122  14.4162
    14.5363  15.2765  16.1224  16.1264  16.1878  16.4412  16.4452  16.5117
    16.8874  17.3719  17.5076  17.5115  17.5572  17.6755  17.6792  17.8919
    17.8959  17.9183  17.9385  17.9420  18.1477  18.4113  19.4129  19.4170
    19.4869  19.4919  19.4957  19.7288

          k = 0.0071 0.0041 0.0000 ( 14317 PWs)   bands (ev):

   -34.5677 -34.5675 -34.5620 -34.5619 -34.5409 -34.5394 -34.5350 -34.5341
   -34.5301 -34.5245 -34.4589 -34.4469 -34.4466 -34.4077 -34.4077 -27.3123
   -27.3122 -27.3092 -27.3091 -27.3033 -27.3004 -27.3003 -27.3002 -27.2973
   -27.2972 -10.6055 -10.0683  -8.9720  -6.1932  -4.7417  -0.1087   0.3707
     0.3776   0.5886   0.5955   0.9325   1.1911   1.1950   1.5018   2.5660
     2.9909   2.9948   4.0385   4.0542   4.0570   6.3270   6.5277   7.0686
     7.7617   7.8595   7.8654   8.5264   8.8102   8.9623   9.1717   9.1765
     9.8284   9.8343  10.1619  10.2778  10.6613  11.3607  11.3659  11.6431
    11.7999  11.8206  12.9103  12.9984  14.1788  14.1844  14.4203  14.4254
    14.5451  15.2811  16.1049  16.1132  16.1821  16.4536  16.4572  16.5149
    16.8957  17.3632  17.4292  17.4843  17.6098  17.6951  17.6975  17.7878
    17.8462  17.9282  17.9917  18.0361  18.1670  18.4279  19.3580  19.3832
    19.4193  19.5078  19.5724  19.7029

          k = 0.0143 0.0082 0.0000 ( 14313 PWs)   bands (ev):

   -34.5677 -34.5675 -34.5620 -34.5619 -34.5409 -34.5394 -34.5350 -34.5341
   -34.5301 -34.5245 -34.4589 -34.4469 -34.4466 -34.4077 -34.4077 -27.3123
   -27.3122 -27.3092 -27.3091 -27.3033 -27.3004 -27.3003 -27.3002 -27.2973
   -27.2972 -10.6042 -10.0670  -8.9712  -6.1932  -4.7439  -0.1111   0.3514
     0.3713   0.5720   0.5936   0.9427   1.1813   1.1969   1.5195   2.5828
     2.9799   2.9973   4.0440   4.0562   4.0627   6.3295   6.5283   7.0693
     7.7618   7.8462   7.8677   8.5372   8.8088   8.9539   9.1705   9.1759
     9.8356   9.8473  10.1612  10.2873  10.6711  11.3480  11.3555  11.6057
    11.8185  11.8719  12.9104  13.0027  14.1385  14.1536  14.4284  14.4560
    14.5722  15.2935  16.0519  16.0836  16.1732  16.4738  16.4887  16.5286
    16.9205  17.2846  17.3868  17.4320  17.6007  17.6553  17.7181  17.7887
    17.8125  17.9176  18.0644  18.1534  18.2206  18.4760  19.2460  19.3257
    19.3478  19.5102  19.5922  19.6729

          k = 0.0214 0.0124 0.0000 ( 14320 PWs)   bands (ev):

   -34.5677 -34.5675 -34.5620 -34.5619 -34.5409 -34.5394 -34.5350 -34.5341
   -34.5301 -34.5245 -34.4589 -34.4469 -34.4466 -34.4077 -34.4077 -27.3123
   -27.3122 -27.3092 -27.3091 -27.3033 -27.3004 -27.3003 -27.3002 -27.2973
   -27.2972 -10.6019 -10.0650  -8.9699  -6.1934  -4.7475  -0.1152   0.3214
     0.3610   0.5453   0.5910   0.9552   1.1681   1.2001   1.5474   2.6093
     2.9634   3.0017   4.0404   4.0602   4.0835   6.3338   6.5294   7.0704
     7.7618   7.8248   7.8724   8.5541   8.8056   8.9405   9.1685   9.1771
     9.8471   9.8659  10.1614  10.3031  10.6876  11.3285  11.3368  11.5714
    11.8472  11.9313  12.9106  13.0099  14.0847  14.1142  14.4315  14.4964
    14.6147  15.3098  15.9826  16.0442  16.1641  16.4811  16.5355  16.5526
    16.9597  17.1663  17.3650  17.3719  17.5486  17.5679  17.6761  17.8514
    17.8712  17.9168  18.1400  18.2622  18.2989  18.5516  19.1273  19.2518
    19.2627  19.4822  19.5576  19.6327

          k = 0.0286 0.0165 0.0000 ( 14317 PWs)   bands (ev):

   -34.5677 -34.5675 -34.5620 -34.5619 -34.5409 -34.5394 -34.5350 -34.5341
   -34.5300 -34.5245 -34.4589 -34.4469 -34.4466 -34.4077 -34.4077 -27.3123
   -27.3122 -27.3092 -27.3091 -27.3033 -27.3004 -27.3003 -27.3002 -27.2973
   -27.2972 -10.5987 -10.0620  -8.9681  -6.1936  -4.7526  -0.1215   0.2832
     0.3471   0.5110   0.5873   0.9625   1.1580   1.2045   1.5832   2.6427
     2.9440   3.0078   4.0321   4.0660   4.1141   6.3397   6.5309   7.0719
     7.7599   7.7987   7.8792   8.5753   8.7993   8.9240   9.1655   9.1820
     9.8626   9.8863  10.1646  10.3248  10.7108  11.3035  11.3095  11.5468
    11.8835  11.9932  12.9108  13.0200  14.0245  14.0710  14.4313  14.5409
    14.6665  15.3231  15.9132  16.0008  16.1530  16.4818  16.5755  16.5896
    17.0055  17.0447  17.3100  17.3117  17.4729  17.5330  17.6135  17.8896
    17.9167  17.9877  18.2174  18.3566  18.3963  18.6484  19.0104  19.1429
    19.1970  19.4366  19.5123  19.5808

          k = 0.0357 0.0206 0.0000 ( 14321 PWs)   bands (ev):

   -34.5677 -34.5675 -34.5620 -34.5619 -34.5409 -34.5394 -34.5350 -34.5341
   -34.5300 -34.5245 -34.4589 -34.4469 -34.4466 -34.4077 -34.4077 -27.3123
   -27.3122 -27.3092 -27.3091 -27.3033 -27.3004 -27.3003 -27.3002 -27.2973
   -27.2972 -10.5947 -10.0583  -8.9657  -6.1938  -4.7591  -0.1306   0.2390
     0.3299   0.4718   0.5821   0.9551   1.1597   1.2098   1.6241   2.6787
     2.9264   3.0156   4.0210   4.0735   4.1513   6.3472   6.5328   7.0735
     7.7479   7.7783   7.8879   8.5996   8.7874   8.9082   9.1622   9.1913
     9.8817   9.9037  10.1737  10.3522  10.7408  11.2684  11.2815  11.5326
    11.9255  12.0553  12.9113  13.0328  13.9615  14.0266  14.4310  14.5867
    14.7230  15.3238  15.8556  15.9568  16.1398  16.4802  16.5931  16.6464
    16.9244  17.0359  17.2410  17.2497  17.4246  17.5034  17.5487  17.9025
    17.9878  18.0765  18.2961  18.4350  18.5059  18.7514  18.9087  19.0278
    19.1311  19.3838  19.4662  19.5265

          k = 0.0429 0.0247 0.0000 ( 14323 PWs)   bands (ev):

   -34.5677 -34.5675 -34.5620 -34.5619 -34.5409 -34.5394 -34.5350 -34.5341
   -34.5300 -34.5245 -34.4589 -34.4469 -34.4466 -34.4077 -34.4077 -27.3123
   -27.3122 -27.3092 -27.3091 -27.3033 -27.3004 -27.3003 -27.3002 -27.2973
   -27.2972 -10.5897 -10.0537  -8.9628  -6.1942  -4.7671  -0.1432   0.1911
     0.3098   0.4296   0.5755   0.9291   1.1775   1.2160   1.6677   2.7097
     2.9186   3.0250   4.0079   4.0825   4.1935   6.3562   6.5351   7.0751
     7.7173   7.7732   7.8985   8.6253   8.7678   8.8971   9.1588   9.2047
     9.9039   9.9140  10.1920  10.3845  10.7774  11.2257  11.2556  11.5263
    11.9714  12.1162  12.9122  13.0482  13.8982  13.9822  14.4329  14.6319
    14.7810  15.3028  15.8182  15.9144  16.1251  16.4768  16.6027  16.7030
    16.8118  17.0008  17.1922  17.2170  17.3905  17.4757  17.4851  17.9327
    18.0614  18.1629  18.3759  18.4955  18.6110  18.7740  18.9058  18.9246
    19.0655  19.3285  19.4230  19.4738

          k = 0.0500 0.0289 0.0000 ( 14313 PWs)   bands (ev):

   -34.5677 -34.5675 -34.5620 -34.5619 -34.5409 -34.5394 -34.5350 -34.5341
   -34.5300 -34.5244 -34.4588 -34.4469 -34.4466 -34.4077 -34.4077 -27.3123
   -27.3122 -27.3092 -27.3091 -27.3033 -27.3004 -27.3003 -27.3002 -27.2973
   -27.2973 -10.5839 -10.0483  -8.9593  -6.1946  -4.7765  -0.1607   0.1414
     0.2872   0.3863   0.5673   0.8883   1.2074   1.2229   1.7112   2.7259
     2.9310   3.0360   3.9932   4.0931   4.2393   6.3668   6.5378   7.0764
     7.6803   7.7731   7.9109   8.6512   8.7410   8.8921   9.1560   9.2218
     9.9150   9.9285  10.2211  10.4209  10.8202  11.1809  11.2309  11.5252
    12.0203  12.1749  12.9136  13.0661  13.8362  13.9388  14.4388  14.6753
    14.8374  15.2579  15.8010  15.8751  16.1113  16.4671  16.5960  16.7185
    16.7552  16.9136  17.1408  17.2232  17.3744  17.4231  17.4547  17.9787
    18.1362  18.2440  18.4567  18.5102  18.6674  18.7480  18.8452  19.0006
    19.0255  19.2728  19.3856  19.4293

          k = 0.0571 0.0330 0.0000 ( 14313 PWs)   bands (ev):

   -34.5677 -34.5675 -34.5620 -34.5619 -34.5409 -34.5394 -34.5350 -34.5341
   -34.5300 -34.5244 -34.4588 -34.4469 -34.4466 -34.4077 -34.4077 -27.3123
   -27.3121 -27.3092 -27.3090 -27.3033 -27.3004 -27.3003 -27.3002 -27.2974
   -27.2973 -10.5771 -10.0420  -8.9554  -6.1951  -4.7875  -0.1845   0.0922
     0.2624   0.3433   0.5575   0.8383   1.2297   1.2449   1.7520   2.7248
     2.9669   3.0485   3.9776   4.1053   4.2875   6.3787   6.5408   7.0769
     7.6418   7.7740   7.9251   8.6747   8.7115   8.8919   9.1542   9.2421
     9.9074   9.9550  10.2605  10.4602  10.8680  11.1377  11.2083  11.5271
    12.0711  12.2304  12.9160  13.0856  13.7775  13.8967  14.4494  14.7157
    14.8865  15.1990  15.7934  15.8403  16.1016  16.4353  16.5680  16.6530
    16.7958  16.8330  17.1008  17.2097  17.3581  17.3660  17.4679  18.0327
    18.2114  18.3080  18.4662  18.5383  18.6413  18.7242  18.9247  18.9370
    19.1248  19.2183  19.3495  19.4170

          k = 0.0643 0.0371 0.0000 ( 14320 PWs)   bands (ev):

   -34.5677 -34.5675 -34.5620 -34.5618 -34.5409 -34.5394 -34.5350 -34.5341
   -34.5300 -34.5244 -34.4588 -34.4469 -34.4466 -34.4077 -34.4076 -27.3123
   -27.3121 -27.3092 -27.3090 -27.3032 -27.3005 -27.3003 -27.3001 -27.2974
   -27.2973 -10.5695 -10.0350  -8.9510  -6.1958  -4.7999  -0.2163   0.0454
     0.2357   0.3016   0.5460   0.7828   1.2372   1.2858   1.7875   2.7148
     3.0187   3.0625   3.9616   4.1190   4.3372   6.3920   6.5441   7.0764
     7.6039   7.7751   7.9411   8.6688   8.7085   8.8944   9.1536   9.2655
     9.8933   9.9827  10.3085  10.5015  10.9175  11.1013  11.1885  11.5306
    12.1231  12.2820  12.9197  13.1060  13.7240  13.8567  14.4654  14.7517
    14.9122  15.1493  15.7815  15.8114  16.0967  16.3701  16.5501  16.5746
    16.7981  16.8139  17.0795  17.1820  17.3145  17.3238  17.5206  18.0768
    18.2863  18.3143  18.4416  18.5580  18.6198  18.7741  18.8751  19.0262
    19.1660  19.1891  19.3144  19.4699

          k = 0.0714 0.0412 0.0000 ( 14330 PWs)   bands (ev):

   -34.5677 -34.5675 -34.5620 -34.5618 -34.5409 -34.5394 -34.5350 -34.5341
   -34.5300 -34.5244 -34.4588 -34.4469 -34.4466 -34.4077 -34.4076 -27.3123
   -27.3121 -27.3092 -27.3090 -27.3032 -27.3005 -27.3004 -27.3001 -27.2974
   -27.2973 -10.5609 -10.0271  -8.9460  -6.1966  -4.8137  -0.2573   0.0024
     0.2074   0.2619   0.5329   0.7243   1.2446   1.3289   1.8152   2.7048
     3.0749   3.0815   3.9461   4.1341   4.3875   6.4064   6.5476   7.0741
     7.5681   7.7764   7.9589   8.6369   8.7304   8.8977   9.1546   9.2919
     9.8750  10.0110  10.3631  10.5436  10.9568  11.0842  11.1722  11.5349
    12.1756  12.3288  12.9252  13.1257  13.6781  13.8191  14.4866  14.7821
    14.8861  15.1433  15.7556  15.7897  16.0858  16.3032  16.4685  16.5488
    16.8009  16.8038  17.0752  17.1529  17.2788  17.2825  17.5867  18.0695
    18.3037  18.3599  18.3762  18.5773  18.6974  18.8188  18.8239  19.0879
    19.1174  19.2264  19.3170  19.5775

          k = 0.0786 0.0453 0.0000 ( 14332 PWs)   bands (ev):

   -34.5676 -34.5675 -34.5620 -34.5618 -34.5409 -34.5395 -34.5351 -34.5341
   -34.5300 -34.5244 -34.4588 -34.4469 -34.4466 -34.4077 -34.4076 -27.3123
   -27.3120 -27.3092 -27.3089 -27.3032 -27.3005 -27.3004 -27.3001 -27.2974
   -27.2973 -10.5515 -10.0184  -8.9406  -6.1975  -4.8290  -0.3073  -0.0368
     0.1778   0.2245   0.5182   0.6645   1.2518   1.3730   1.8330   2.7004
     3.0936   3.1425   3.9322   4.1507   4.4378   6.4220   6.5513   7.0695
     7.5356   7.7778   7.9783   8.6049   8.7530   8.9004   9.1576   9.3213
     9.8546  10.0394  10.4226  10.5851  10.9639  11.1097  11.1602  11.5395
    12.2280  12.3700  12.9332  13.1427  13.6427  13.7844  14.5119  14.8053
    14.8149  15.1796  15.7129  15.7763  16.0429  16.2750  16.3541  16.5509
    16.7684  16.8223  17.0660  17.1271  17.2402  17.2769  17.6532  18.0015
    18.2454  18.3690  18.4304  18.6512  18.7276  18.8115  18.8599  19.0747
    19.0986  19.2311  19.4081  19.7095

          k = 0.0857 0.0495 0.0000 ( 14340 PWs)   bands (ev):

   -34.5676 -34.5675 -34.5620 -34.5618 -34.5409 -34.5395 -34.5351 -34.5341
   -34.5300 -34.5244 -34.4588 -34.4469 -34.4466 -34.4077 -34.4076 -27.3123
   -27.3120 -27.3092 -27.3089 -27.3032 -27.3006 -27.3004 -27.3001 -27.2975
   -27.2973 -10.5412 -10.0089  -8.9347  -6.1986  -4.8459  -0.3652  -0.0731
     0.1470   0.1894   0.5021   0.6048   1.2587   1.4173   1.8391   2.7043
     3.1112   3.2059   3.9212   4.1686   4.4874   6.4384   6.5549   7.0621
     7.5075   7.7793   7.9994   8.5751   8.7749   8.9011   9.1627   9.3538
     9.8335  10.0671  10.4852  10.6244  10.9502  11.1522  11.1686  11.5443
    12.2795  12.4051  12.9438  13.1551  13.6207  13.7532  14.5369  14.7287
    14.8217  15.2329  15.6543  15.7722  15.9659  16.2393  16.2891  16.5515
    16.7228  16.8477  17.0363  17.1018  17.2108  17.3084  17.7062  17.9229
    18.1310  18.4345  18.4949  18.6809  18.7320  18.8762  18.8816  19.0428
    19.0856  19.2509  19.5334  19.8509

          k = 0.0929 0.0536 0.0000 ( 14350 PWs)   bands (ev):

   -34.5676 -34.5675 -34.5620 -34.5618 -34.5409 -34.5395 -34.5351 -34.5341
   -34.5300 -34.5244 -34.4588 -34.4469 -34.4466 -34.4077 -34.4076 -27.3123
   -27.3119 -27.3092 -27.3088 -27.3031 -27.3006 -27.3004 -27.3001 -27.2975
   -27.2973 -10.5300  -9.9985  -8.9283  -6.2000  -4.8641  -0.4290  -0.1079
     0.1152   0.1560   0.4846   0.5468   1.2651   1.4612   1.8332   2.7179
     3.1297   3.2668   3.9149   4.1879   4.5359   6.4554   6.5586   7.0515
     7.4850   7.7810   8.0221   8.5486   8.7959   8.8989   9.1702   9.3892
     9.8132  10.0937  10.5486  10.6596  10.9387  11.1504  11.2387  11.5496
    12.3296  12.4335  12.9567  13.1619  13.6141  13.7262  14.5369  14.6663
    14.8291  15.2916  15.5817  15.7779  15.8749  16.1286  16.3226  16.5475
    16.6718  16.8741  16.9931  17.0695  17.2028  17.3619  17.7051  17.8902
    18.0181  18.5023  18.5462  18.6287  18.8052  18.8816  18.9482  19.0366
    19.0713  19.2990  19.6664  19.9958

          k = 0.1000 0.0577 0.0000 ( 14348 PWs)   bands (ev):

   -34.5676 -34.5674 -34.5620 -34.5618 -34.5409 -34.5395 -34.5351 -34.5341
   -34.5300 -34.5244 -34.4588 -34.4469 -34.4466 -34.4077 -34.4076 -27.3123
   -27.3119 -27.3092 -27.3088 -27.3031 -27.3007 -27.3004 -27.3000 -27.2975
   -27.2973 -10.5179  -9.9874  -8.9214  -6.2015  -4.8838  -0.4971  -0.1425
     0.0826   0.1231   0.4659   0.4919   1.2709   1.5043   1.8159   2.7405
     3.1491   3.3227   3.9155   4.2084   4.5829   6.4727   6.5621   7.0378
     7.4684   7.7829   8.0464   8.5259   8.8162   8.8931   9.1802   9.4271
     9.7946  10.1186  10.6081  10.6900  10.9403  11.1540  11.3138  11.5563
    12.3774  12.4551  12.9706  13.1651  13.6230  13.7039  14.4698  14.6738
    14.8281  15.3503  15.4986  15.7788  15.7932  16.0255  16.3619  16.5380
    16.6184  16.8992  16.9445  17.0304  17.2126  17.4257  17.6430  17.8671
    17.9656  18.5514  18.5566  18.6059  18.8505  18.8892  18.9808  19.0831
    19.0866  19.3664  19.8001  20.1398

          k = 0.1071 0.0618 0.0000 ( 14346 PWs)   bands (ev):

   -34.5676 -34.5674 -34.5620 -34.5618 -34.5409 -34.5395 -34.5351 -34.5341
   -34.5300 -34.5244 -34.4588 -34.4469 -34.4466 -34.4077 -34.4075 -27.3123
   -27.3118 -27.3092 -27.3087 -27.3031 -27.3007 -27.3004 -27.3000 -27.2976
   -27.2973 -10.5049  -9.9755  -8.9141  -6.2033  -4.9050  -0.5682  -0.1773
     0.0494   0.0892   0.4411   0.4466   1.2760   1.5460   1.7887   2.7705
     3.1693   3.3714   3.9251   4.2301   4.6282   6.4894   6.5657   7.0216
     7.4580   7.7854   8.0723   8.5075   8.8358   8.8834   9.1929   9.4668
     9.7790  10.1415  10.6521  10.7226  10.9600  11.1638  11.3894  11.5669
    12.4221  12.4700  12.9827  13.1696  13.6449  13.6872  14.3733  14.7158
    14.8191  15.3792  15.4350  15.6793  15.8176  15.9326  16.3992  16.5259
    16.5642  16.8945  16.9156  16.9977  17.2185  17.4943  17.5820  17.7639
    18.0185  18.5046  18.5841  18.6150  18.8527  18.9163  19.0089  19.1386
    19.1673  19.4454  19.9295  20.2374

          k = 0.1143 0.0660 0.0000 ( 14348 PWs)   bands (ev):

   -34.5676 -34.5674 -34.5619 -34.5617 -34.5409 -34.5395 -34.5351 -34.5341
   -34.5300 -34.5244 -34.4588 -34.4469 -34.4466 -34.4077 -34.4075 -27.3123
   -27.3118 -27.3092 -27.3087 -27.3031 -27.3007 -27.3004 -27.3000 -27.2976
   -27.2973 -10.4910  -9.9628  -8.9064  -6.2054  -4.9275  -0.6412  -0.2125
     0.0156   0.0525   0.3975   0.4253   1.2804   1.5855   1.7541   2.8059
     3.1901   3.4112   3.9456   4.2530   4.6715   6.5042   6.5701   7.0040
     7.4535   7.7885   8.0997   8.4935   8.8544   8.8703   9.2084   9.5074
     9.7671  10.1620  10.6701  10.7679  10.9977  11.1799  11.4600  11.5866
    12.4627  12.4788  12.9897  13.1817  13.6751  13.6774  14.2727  14.7686
    14.8031  15.2931  15.4733  15.5807  15.8495  15.8510  16.4216  16.5098
    16.5228  16.8449  16.8979  17.0014  17.1907  17.5568  17.5648  17.6602
    18.0870  18.4527  18.5831  18.6100  18.8282  18.9675  19.0551  19.2226
    19.2551  19.5316  20.0366  20.1674

          k = 0.1214 0.0701 0.0000 ( 14347 PWs)   bands (ev):

   -34.5676 -34.5674 -34.5619 -34.5617 -34.5409 -34.5395 -34.5351 -34.5341
   -34.5300 -34.5244 -34.4588 -34.4470 -34.4466 -34.4077 -34.4075 -27.3124
   -27.3117 -27.3093 -27.3086 -27.3030 -27.3008 -27.3004 -27.2999 -27.2977
   -27.2973 -10.4763  -9.9493  -8.8982  -6.2079  -4.9516  -0.7154  -0.2482
    -0.0186   0.0115   0.3610   0.4035   1.2839   1.6200   1.7164   2.8441
     3.2115   3.4420   3.9775   4.2769   4.7127   6.5143   6.5771   6.9866
     7.4542   7.7926   8.1287   8.4841   8.8511   8.8746   9.2269   9.5472
     9.7602  10.1802  10.6735  10.8170  11.0489  11.2025  11.5157  11.6264
    12.4812  12.4992  12.9905  13.2055  13.6738  13.7095  14.1756  14.7811
    14.8271  15.1898  15.4449  15.5567  15.7790  15.8881  16.4143  16.4560
    16.5438  16.7969  16.8549  17.0352  17.1206  17.5102  17.6310  17.6349
    18.1574  18.4021  18.5622  18.5922  18.7947  19.0349  19.1172  19.3178
    19.3457  19.6216  20.0092  20.1938

          k = 0.1286 0.0742 0.0000 ( 14352 PWs)   bands (ev):

   -34.5676 -34.5674 -34.5619 -34.5617 -34.5409 -34.5395 -34.5351 -34.5341
   -34.5299 -34.5243 -34.4588 -34.4470 -34.4466 -34.4077 -34.4075 -27.3124
   -27.3116 -27.3093 -27.3085 -27.3030 -27.3008 -27.3004 -27.2999 -27.2977
   -27.2973 -10.4607  -9.9350  -8.8897  -6.2107  -4.9770  -0.7903  -0.2840
    -0.0534  -0.0342   0.3322   0.3809   1.2866   1.6312   1.6950   2.8827
     3.2332   3.4653   4.0197   4.3018   4.7519   6.5169   6.5887   6.9711
     7.4594   7.7977   8.1592   8.4793   8.8306   8.8924   9.2482   9.5845
     9.7595  10.1960  10.6735  10.8623  11.1081  11.2315  11.5549  11.6895
    12.4794  12.5294  12.9871  13.2405  13.6786  13.7379  14.0899  14.7544
    14.8887  15.0847  15.3381  15.6073  15.7156  15.9310  16.3865  16.4028
    16.5805  16.7513  16.8066  17.0253  17.0802  17.4093  17.6925  17.7019
    18.2261  18.3541  18.5307  18.5683  18.7603  19.1101  19.1898  19.4165
    19.4378  19.7087  19.9141  20.1649

          k = 0.1357 0.0783 0.0000 ( 14344 PWs)   bands (ev):

   -34.5676 -34.5673 -34.5619 -34.5617 -34.5409 -34.5395 -34.5351 -34.5341
   -34.5299 -34.5243 -34.4587 -34.4470 -34.4466 -34.4077 -34.4075 -27.3124
   -27.3116 -27.3093 -27.3085 -27.3030 -27.3009 -27.3004 -27.2999 -27.2978
   -27.2973 -10.4442  -9.9200  -8.8807  -6.2139  -5.0038  -0.8655  -0.3199
    -0.0904  -0.0825   0.3108   0.3575   1.2883   1.5956   1.7145   2.9196
     3.2553   3.4843   4.0699   4.3277   4.7892   6.5113   6.6048   6.9591
     7.4684   7.8043   8.1913   8.4790   8.8071   8.9100   9.2725   9.6170
     9.7667  10.2097  10.6750  10.9013  11.1701  11.2667  11.5919  11.7644
    12.4732  12.5537  12.9832  13.2842  13.6919  13.7444  14.0312  14.7240
    14.9399  14.9922  15.2241  15.6523  15.6688  15.9762  16.3486  16.3522
    16.6192  16.7093  16.7597  16.9195  17.1292  17.3073  17.7636  17.7782
    18.2897  18.3097  18.4945  18.5440  18.7301  19.1869  19.2689  19.5141
    19.5312  19.7431  19.8674  20.0759

          k = 0.1429 0.0824 0.0000 ( 14336 PWs)   bands (ev):

[...]
    10.0030  10.2789  10.5525  10.9430  11.1879  11.2639  11.4644  11.8038
    12.5885  12.6714  13.0862  13.2690  13.5865  13.7445  14.0750  14.3644
    15.0902  15.2474  15.3832  15.4068  15.5486  15.5830  15.9087  16.5718
    16.7877  16.8397  17.1067  17.1807  17.3242  17.5030  17.5592  17.8122
    17.9386  18.0331  18.1685  18.1869  18.8771  19.4814  19.6698  19.7735
    19.8097  19.8455  19.9825  20.0977

          k = 0.0762 0.1319 0.0000 ( 14343 PWs)   bands (ev):

   -34.5677 -34.5673 -34.5619 -34.5618 -34.5410 -34.5395 -34.5351 -34.5341
   -34.5299 -34.5243 -34.4587 -34.4469 -34.4467 -34.4077 -34.4075 -27.3124
   -27.3116 -27.3092 -27.3086 -27.3030 -27.3009 -27.3004 -27.2999 -27.2977
   -27.2974 -10.4530  -9.9280  -8.8855  -6.2121  -4.9895  -0.7563  -0.4038
    -0.1586  -0.0423   0.2906   0.6392   0.9967   1.7420   1.7859   2.8914
     3.2176   3.3959   4.1388   4.3172   4.7371   6.5742   6.5796   7.0001
     7.3002   7.7829   8.3099   8.5920   8.7035   8.8339   9.1664   9.6254
     9.9749  10.2264  10.5616  10.8946  11.1301  11.2914  11.3914  11.7150
    12.5731  12.6365  13.0872  13.2048  13.5392  13.7595  14.1686  14.4398
    15.0452  15.2939  15.3873  15.4943  15.5951  15.6934  15.9201  16.5294
    16.7819  16.7997  17.1411  17.1607  17.3960  17.5606  17.6322  17.7868
    17.9417  17.9930  18.1466  18.1739  18.7576  19.3709  19.6740  19.7399
    19.8162  19.8265  20.0719  20.1705

          k = 0.0714 0.1237 0.0000 ( 14347 PWs)   bands (ev):

   -34.5677 -34.5673 -34.5619 -34.5618 -34.5409 -34.5395 -34.5351 -34.5341
   -34.5300 -34.5244 -34.4588 -34.4469 -34.4467 -34.4077 -34.4075 -27.3124
   -27.3117 -27.3092 -27.3086 -27.3030 -27.3008 -27.3004 -27.2999 -27.2977
   -27.2973 -10.4714  -9.9449  -8.8956  -6.2088  -4.9595  -0.6795  -0.3428
    -0.0858  -0.0228   0.3112   0.6624   1.0253   1.6988   1.8049   2.8943
     3.1416   3.3803   4.1319   4.2428   4.6989   6.5477   6.5764   7.0192
     7.3235   7.7705   8.2555   8.6023   8.6883   8.8574   9.1518   9.5888
     9.9507  10.1761  10.5769  10.8361  11.0735  11.3205  11.3300  11.6266
    12.5426  12.6020  13.1069  13.1456  13.4955  13.7685  14.2630  14.5217
    15.0013  15.2158  15.4917  15.6072  15.6106  15.8090  15.9705  16.4820
    16.7514  16.7760  17.0818  17.1823  17.4908  17.6117  17.7004  17.7786
    17.9578  17.9836  18.1334  18.1693  18.6363  19.2506  19.6668  19.6704
    19.7918  19.8318  20.0859  20.0924

          k = 0.0667 0.1154 0.0000 ( 14347 PWs)   bands (ev):

   -34.5677 -34.5674 -34.5619 -34.5618 -34.5409 -34.5395 -34.5351 -34.5341
   -34.5300 -34.5244 -34.4588 -34.4469 -34.4467 -34.4077 -34.4075 -27.3124
   -27.3117 -27.3092 -27.3087 -27.3031 -27.3008 -27.3004 -27.3000 -27.2976
   -27.2973 -10.4887  -9.9606  -8.9051  -6.2059  -4.9314  -0.6030  -0.2845
    -0.0099  -0.0034   0.3302   0.6852   1.0527   1.6515   1.8228   2.8959
     3.0699   3.3608   4.1244   4.1763   4.6575   6.5222   6.5726   7.0358
     7.3515   7.7611   8.2035   8.6159   8.6797   8.8665   9.1491   9.5472
     9.9310  10.1307  10.5953  10.7688  11.0203  11.2779  11.3498  11.5413
    12.5002  12.5672  13.0922  13.1389  13.4588  13.7743  14.3548  14.6055
    14.9636  15.1330  15.5853  15.6186  15.7210  15.9259  16.0522  16.4325
    16.6992  16.7692  17.0269  17.1649  17.5777  17.6644  17.7621  17.7821
    17.9812  17.9979  18.1403  18.1805  18.5171  19.1278  19.5732  19.6581
    19.7489  19.8361  19.9686  20.0034

          k = 0.0619 0.1072 0.0000 ( 14351 PWs)   bands (ev):

   -34.5677 -34.5674 -34.5619 -34.5618 -34.5409 -34.5394 -34.5351 -34.5341
   -34.5300 -34.5244 -34.4588 -34.4469 -34.4467 -34.4077 -34.4075 -27.3124
   -27.3118 -27.3092 -27.3088 -27.3031 -27.3007 -27.3004 -27.3000 -27.2976
   -27.2973 -10.5047  -9.9754  -8.9141  -6.2034  -4.9052  -0.5274  -0.2279
     0.0139   0.0700   0.3478   0.7081   1.0785   1.6010   1.8376   2.8955
     3.0045   3.3354   4.1152   4.1211   4.6130   6.4977   6.5683   7.0496
     7.3840   7.7546   8.1548   8.6318   8.6776   8.8619   9.1563   9.5015
     9.9165  10.0908  10.6130  10.6955  10.9741  11.2311  11.3772  11.4627
    12.4496  12.5311  13.0460  13.1715  13.4363  13.7792  14.4395  14.6846
    14.9372  15.0586  15.5620  15.7306  15.8343  16.0391  16.1496  16.3857
    16.6461  16.7628  16.9804  17.1199  17.6381  17.6955  17.8162  17.8295
    17.9955  18.0149  18.1828  18.2126  18.4091  19.0069  19.4603  19.6269
    19.7014  19.8233  19.8497  19.9275

          k = 0.0571 0.0989 0.0000 ( 14347 PWs)   bands (ev):

   -34.5677 -34.5674 -34.5619 -34.5618 -34.5409 -34.5394 -34.5350 -34.5341
   -34.5300 -34.5244 -34.4588 -34.4469 -34.4466 -34.4077 -34.4076 -27.3124
   -27.3119 -27.3092 -27.3088 -27.3031 -27.3007 -27.3004 -27.3000 -27.2975
   -27.2973 -10.5197  -9.9891  -8.9225  -6.2014  -4.8808  -0.4542  -0.1720
     0.0332   0.1488   0.3644   0.7314   1.1021   1.5479   1.8474   2.8926
     2.9477   3.3030   4.0744   4.1092   4.5652   6.4745   6.5636   7.0605
     7.4204   7.7507   8.1098   8.6497   8.6814   8.8475   9.1685   9.4531
     9.9076  10.0561  10.6171  10.6252  10.9412  11.1832  11.3961  11.4022
    12.3936  12.4926  13.0073  13.1905  13.4391  13.7853  14.5097  14.7470
    14.9292  15.0019  15.5278  15.8493  15.9459  16.1322  16.2520  16.3571
    16.5970  16.7575  16.9428  17.0635  17.6672  17.6858  17.8916  17.8969
    18.0108  18.0223  18.2208  18.2564  18.3627  18.8922  19.3335  19.5509
    19.6597  19.7383  19.7713  19.8788

          k = 0.0524 0.0907 0.0000 ( 14339 PWs)   bands (ev):

   -34.5677 -34.5674 -34.5619 -34.5619 -34.5409 -34.5394 -34.5350 -34.5341
   -34.5300 -34.5244 -34.4588 -34.4469 -34.4466 -34.4077 -34.4076 -27.3124
   -27.3119 -27.3092 -27.3089 -27.3032 -27.3006 -27.3003 -27.3001 -27.2975
   -27.2973 -10.5334 -10.0017  -8.9303  -6.1996  -4.8584  -0.3848  -0.1164
     0.0549   0.2259   0.3801   0.7560   1.1232   1.4930   1.8496   2.8864
     2.9019   3.2633   4.0420   4.1014   4.5144   6.4525   6.5588   7.0685
     7.4602   7.7492   8.0685   8.6691   8.6902   8.8277   9.1809   9.4040
     9.9045  10.0259  10.5413  10.6188  10.9298  11.1285  11.3468  11.4241
    12.3343  12.4504  12.9764  13.1872  13.4736  13.7943  14.5564  14.7701
    14.9478  14.9792  15.4984  15.9663  16.0534  16.1605  16.3495  16.3923
    16.5605  16.7541  16.9143  17.0077  17.6559  17.6773  17.9165  17.9653
    18.0242  18.0743  18.1658  18.3420  18.4266  18.7905  19.1979  19.4375
    19.5683  19.6733  19.6786  19.8529

          k = 0.0476 0.0824 0.0000 ( 14323 PWs)   bands (ev):

   -34.5677 -34.5674 -34.5619 -34.5619 -34.5409 -34.5394 -34.5350 -34.5341
   -34.5300 -34.5244 -34.4588 -34.4469 -34.4466 -34.4077 -34.4076 -27.3123
   -27.3120 -27.3092 -27.3089 -27.3032 -27.3006 -27.3003 -27.3001 -27.2974
   -27.2973 -10.5459 -10.0133  -8.9374  -6.1982  -4.8380  -0.3213  -0.0607
     0.0808   0.2994   0.3951   0.7825   1.1417   1.4371   1.8421   2.8692
     2.8760   3.2179   4.0214   4.0939   4.4611   6.4320   6.5540   7.0738
     7.5029   7.7495   8.0311   8.6898   8.7012   8.8076   9.1901   9.3560
     9.9069   9.9992  10.4656  10.5948  10.9435  11.0660  11.3152  11.4430
    12.2729  12.4037  12.9531  13.1680  13.5320  13.8074  14.5761  14.7473
    14.9872  14.9957  15.4853  16.0761  16.1141  16.1653  16.4225  16.4891
    16.5569  16.7533  16.8974  16.9608  17.6121  17.6785  17.8990  17.9830
    18.0001  18.1678  18.1860  18.4213  18.5250  18.7170  19.0584  19.3079
    19.4285  19.5534  19.6597  19.8078

          k = 0.0429 0.0742 0.0000 ( 14325 PWs)   bands (ev):

   -34.5677 -34.5675 -34.5619 -34.5619 -34.5409 -34.5394 -34.5350 -34.5341
   -34.5300 -34.5244 -34.4588 -34.4469 -34.4466 -34.4077 -34.4076 -27.3123
   -27.3120 -27.3092 -27.3090 -27.3032 -27.3005 -27.3003 -27.3001 -27.2974
   -27.2973 -10.5573 -10.0238  -8.9440  -6.1970  -4.8195  -0.2658  -0.0049
     0.1123   0.3670   0.4100   0.8117   1.1576   1.3809   1.8234   2.8510
     2.8598   3.1700   4.0111   4.0868   4.4057   6.4130   6.5494   7.0768
     7.5478   7.7512   7.9976   8.7075   8.7112   8.7946   9.1947   9.3110
     9.9135   9.9749  10.3933  10.5564  10.9777  10.9996  11.2979  11.4592
    12.2102  12.3520  12.9365  13.1420  13.6037  13.8260  14.5753  14.7043
    14.9896  15.0640  15.5003  16.0613  16.1665  16.2542  16.4589  16.5986
    16.6029  16.7573  16.8999  16.9314  17.5530  17.6757  17.8687  17.9253
    17.9901  18.2507  18.2828  18.4711  18.6339  18.7028  18.9208  19.1726
    19.2781  19.4236  19.6484  19.7763

          k = 0.0381 0.0660 0.0000 ( 14321 PWs)   bands (ev):

   -34.5677 -34.5675 -34.5620 -34.5619 -34.5409 -34.5394 -34.5350 -34.5341
   -34.5300 -34.5244 -34.4588 -34.4469 -34.4466 -34.4077 -34.4076 -27.3123
   -27.3121 -27.3092 -27.3090 -27.3032 -27.3005 -27.3003 -27.3001 -27.2973
   -27.2973 -10.5675 -10.0332  -8.9498  -6.1960  -4.8030  -0.2200   0.0509
     0.1506   0.4220   0.4300   0.8442   1.1708   1.3256   1.7936   2.8358
     2.8473   3.1241   4.0086   4.0801   4.3493   6.3955   6.5451   7.0780
     7.5941   7.7536   7.9679   8.6991   8.7324   8.7993   9.1948   9.2707
     9.9219   9.9523  10.3264  10.5109  10.9337  11.0254  11.2908  11.4732
    12.1472  12.2953  12.9254  13.1147  13.6823  13.8508  14.5631  14.6582
    14.9660  15.1410  15.5470  16.0018  16.2177  16.3332  16.5095  16.6452
    16.6823  16.7919  16.9287  16.9357  17.4782  17.6713  17.8308  17.8674
    17.9829  18.2820  18.3964  18.5094  18.7282  18.7474  18.8208  19.0377
    19.1246  19.2925  19.6399  19.7523

          k = 0.0333 0.0577 0.0000 ( 14317 PWs)   bands (ev):

   -34.5677 -34.5675 -34.5620 -34.5619 -34.5409 -34.5394 -34.5350 -34.5341
   -34.5300 -34.5244 -34.4588 -34.4469 -34.4466 -34.4077 -34.4077 -27.3123
   -27.3121 -27.3092 -27.3091 -27.3033 -27.3005 -27.3003 -27.3002 -27.2973
   -27.2973 -10.5765 -10.0415  -8.9551  -6.1952  -4.7884  -0.1846   0.1063
     0.1945   0.4399   0.4785   0.8794   1.1814   1.2728   1.7541   2.8030
     2.8559   3.0844   4.0118   4.0741   4.2927   6.3798   6.5412   7.0778
     7.6410   7.7562   7.9422   8.6770   8.7526   8.8199   9.1914   9.2365
     9.9286   9.9310  10.2674  10.4635  10.8719  11.0810  11.2912  11.4859
    12.0848  12.2341  12.9184  13.0886  13.7642  13.8824  14.5455  14.6148
    14.9188  15.2156  15.6179  15.9490  16.2288  16.3945  16.5916  16.6677
    16.6891  16.8942  16.9588  17.0079  17.3930  17.6664  17.7874  17.8236
    17.9752  18.2564  18.5091  18.5276  18.6853  18.8597  18.8727  18.9129
    18.9710  19.1704  19.6337  19.7331

          k = 0.0286 0.0495 0.0000 ( 14313 PWs)   bands (ev):

   -34.5677 -34.5675 -34.5620 -34.5619 -34.5409 -34.5394 -34.5350 -34.5341
   -34.5300 -34.5244 -34.4588 -34.4469 -34.4466 -34.4077 -34.4077 -27.3123
   -27.3121 -27.3092 -27.3091 -27.3033 -27.3004 -27.3003 -27.3002 -27.2973
   -27.2973 -10.5843 -10.0487  -8.9596  -6.1946  -4.7758  -0.1584   0.1607
     0.2411   0.4578   0.5190   0.9150   1.1894   1.2252   1.7076   2.7618
     2.8743   3.0534   4.0185   4.0687   4.2374   6.3660   6.5377   7.0766
     7.6875   7.7586   7.9204   8.6489   8.7707   8.8478   9.1859   9.2095
     9.9098   9.9299  10.2199  10.4178  10.8162  11.1408  11.2973  11.4983
    12.0238  12.1689  12.9144  13.0650  13.8469  13.9209  14.5256  14.5758
    14.8563  15.2773  15.7029  15.9130  16.2208  16.4368  16.6298  16.6694
    16.7343  17.0125  17.0159  17.1018  17.3102  17.6621  17.7413  17.7914
    17.9677  18.2127  18.4260  18.5897  18.7391  18.8107  18.8229  18.9330
    18.9829  19.0969  19.6303  19.7171

          k = 0.0238 0.0412 0.0000 ( 14321 PWs)   bands (ev):

   -34.5677 -34.5675 -34.5620 -34.5619 -34.5409 -34.5394 -34.5350 -34.5341
   -34.5300 -34.5245 -34.4589 -34.4469 -34.4466 -34.4077 -34.4077 -27.3123
   -27.3122 -27.3092 -27.3091 -27.3033 -27.3004 -27.3003 -27.3002 -27.2973
   -27.2973 -10.5909 -10.0548  -8.9635  -6.1941  -4.7652  -0.1397   0.2134
     0.2856   0.4793   0.5497   0.9452   1.1875   1.1950   1.6575   2.7152
     2.8991   3.0309   4.0268   4.0640   4.1849   6.3540   6.5346   7.0748
     7.7323   7.7604   7.9026   8.6191   8.7855   8.8779   9.1801   9.1904
     9.8897   9.9209  10.1869  10.3763  10.7681  11.2011  11.3079  11.5125
    11.9657  12.1004  12.9122  13.0445  13.9283  13.9662  14.5047  14.5416
    14.7858  15.3158  15.7944  15.9044  16.2075  16.4630  16.6119  16.6422
    16.8540  17.0707  17.1148  17.2007  17.2731  17.6595  17.6980  17.7673
    17.9608  18.1685  18.2895  18.5532  18.6603  18.7645  18.8542  18.9489
    19.0961  19.1480  19.6306  19.7032

          k = 0.0190 0.0330 0.0000 ( 14325 PWs)   bands (ev):

   -34.5677 -34.5675 -34.5620 -34.5619 -34.5409 -34.5394 -34.5350 -34.5341
   -34.5300 -34.5245 -34.4589 -34.4469 -34.4466 -34.4077 -34.4077 -27.3123
   -27.3122 -27.3092 -27.3091 -27.3033 -27.3004 -27.3003 -27.3002 -27.2973
   -27.2972 -10.5964 -10.0598  -8.9667  -6.1938  -4.7565  -0.1267   0.2630
     0.3228   0.5057   0.5714   0.9617   1.1669   1.1980   1.6079   2.6678
     2.9267   3.0154   4.0354   4.0600   4.1372   6.3441   6.5321   7.0729
     7.7615   7.7737   7.8886   8.5898   8.7966   8.9067   9.1753   9.1792
     9.8707   9.9014  10.1689  10.3407  10.7284  11.2581  11.3217  11.5310
    11.9120  12.0298  12.9112  13.0275  14.0056  14.0174  14.4831  14.5119
    14.7129  15.3268  15.8870  15.9286  16.1946  16.4775  16.5803  16.6103
    16.9840  17.0454  17.2054  17.2901  17.3500  17.6613  17.6665  17.7483
    17.9546  18.1179  18.1577  18.4474  18.5078  18.6854  18.9649  19.0343
    19.2045  19.2491  19.6367  19.6901

          k = 0.0143 0.0247 0.0000 ( 14321 PWs)   bands (ev):

   -34.5677 -34.5675 -34.5620 -34.5619 -34.5409 -34.5394 -34.5350 -34.5341
   -34.5301 -34.5245 -34.4589 -34.4469 -34.4466 -34.4077 -34.4077 -27.3123
   -27.3122 -27.3092 -27.3091 -27.3033 -27.3004 -27.3003 -27.3002 -27.2973
   -27.2972 -10.6006 -10.0637  -8.9691  -6.1935  -4.7497  -0.1178   0.3076
     0.3499   0.5358   0.5855   0.9597   1.1664   1.1986   1.5630   2.6247
     2.9532   3.0050   4.0431   4.0567   4.0967   6.3363   6.5301   7.0710
     7.7619   7.8098   7.8782   8.5633   8.8039   8.9314   9.1719   9.1751
     9.8537   9.8760  10.1621  10.3121  10.6975  11.3065  11.3370  11.5575
    11.8651  11.9584  12.9106  13.0142  14.0708  14.0781  14.4611  14.4851
    14.6433  15.3167  15.9747  15.9804  16.1844  16.4834  16.5411  16.5735
    16.9837  17.1176  17.3030  17.3534  17.4759  17.6478  17.6830  17.7322
    17.9487  17.9980  18.0968  18.3350  18.3579  18.5840  19.0918  19.1454
    19.3012  19.3552  19.6515  19.6765

          k = 0.0095 0.0165 0.0000 ( 14313 PWs)   bands (ev):

   -34.5677 -34.5675 -34.5620 -34.5619 -34.5409 -34.5394 -34.5350 -34.5341
   -34.5301 -34.5245 -34.4589 -34.4469 -34.4466 -34.4077 -34.4077 -27.3123
   -27.3122 -27.3092 -27.3091 -27.3033 -27.3004 -27.3003 -27.3002 -27.2973
   -27.2972 -10.6036 -10.0665  -8.9709  -6.1933  -4.7449  -0.1121   0.3441
     0.3672   0.5646   0.5932   0.9465   1.1779   1.1975   1.5270   2.5902
     2.9753   2.9983   4.0483   4.0531   4.0673   6.3307   6.5286   7.0696
     7.7619   7.8381   7.8712   8.5418   8.8081   8.9500   9.1710   9.1750
     9.8398   9.8517  10.1610  10.2914  10.6755  11.3416  11.3516  11.5945
    11.8276  11.8886  12.9104  13.0046  14.1263  14.1381  14.4394  14.4580
    14.5850  15.2982  16.0417  16.0545  16.1790  16.4792  16.4983  16.5364
    16.9312  17.2510  17.3828  17.3981  17.6099  17.6388  17.7187  17.7308
    17.8672  17.9430  18.0506  18.2032  18.2426  18.4945  19.2223  19.2572
    19.3765  19.4502  19.6448  19.6880

          k = 0.0048 0.0082 0.0000 ( 14310 PWs)   bands (ev):

   -34.5677 -34.5675 -34.5620 -34.5619 -34.5409 -34.5394 -34.5350 -34.5341
   -34.5301 -34.5245 -34.4589 -34.4469 -34.4466 -34.4077 -34.4077 -27.3123
   -27.3122 -27.3092 -27.3091 -27.3033 -27.3004 -27.3003 -27.3002 -27.2973
   -27.2972 -10.6054 -10.0682  -8.9719  -6.1932  -4.7420  -0.1090   0.3688
     0.3765   0.5856   0.5965   0.9337   1.1894   1.1958   1.5038   2.5679
     2.9900   2.9946   4.0406   4.0528   4.0577   6.3273   6.5277   7.0686
     7.7617   7.8563   7.8674   8.5276   8.8101   8.9614   9.1717   9.1763
     9.8302   9.8350  10.1617  10.2788  10.6624  11.3603  11.3638  11.6378
    11.8030  11.8265  12.9103  12.9989  14.1732  14.1812  14.4210  14.4299
    14.5481  15.2825  16.0983  16.1089  16.1816  16.4574  16.4611  16.5158
    16.8983  17.3572  17.4163  17.4765  17.6204  17.6828  17.7169  17.7683
    17.8373  17.9376  17.9936  18.0562  18.1730  18.4331  19.3486  19.3581
    19.4241  19.5016  19.5870  19.6998

          k = 0.0000 0.0000 0.0000 ( 14301 PWs)   bands (ev):

   -34.5677 -34.5675 -34.5620 -34.5619 -34.5409 -34.5394 -34.5350 -34.5341
   -34.5301 -34.5245 -34.4589 -34.4469 -34.4466 -34.4077 -34.4077 -27.3123
   -27.3122 -27.3092 -27.3091 -27.3033 -27.3004 -27.3003 -27.3002 -27.2973
   -27.2972 -10.6060 -10.0687  -8.9722  -6.1931  -4.7410  -0.1079   0.3774
     0.3797   0.5931   0.5974   0.9286   1.1937   1.1953   1.4957   2.5602
     2.9934   2.9952   4.0347   4.0532   4.0572   6.3261   6.5274   7.0683
     7.7616   7.8621   7.8666   8.5226   8.8106   8.9651   9.1721   9.1770
     9.8259   9.8298  10.1622  10.2746  10.6581  11.3649  11.3694  11.6632
    11.7933  11.7962  12.9103  12.9970  14.1938  14.1975  14.4122  14.4162
    14.5363  15.2765  16.1224  16.1264  16.1878  16.4412  16.4452  16.5117
    16.8874  17.3719  17.5076  17.5115  17.5572  17.6755  17.6792  17.8919
    17.8959  17.9183  17.9385  17.9420  18.1477  18.4113  19.4129  19.4170
    19.4869  19.4919  19.4957  19.7288

     Writing all to output data dir tmp/Sb2Te3-uatsx-c3-0.0.save/ :
     XML data file, pseudopotentials, collected wavefunctions

     init_run     :      1.12s CPU      1.15s WALL (       1 calls)
     electrons    :    859.65s CPU    487.54s WALL (       1 calls)

     Called by init_run:
     wfcinit      :      0.00s CPU      0.01s WALL (       1 calls)
     wfcinit:wfcr :     17.53s CPU      9.03s WALL (     211 calls)
     potinit      :      0.48s CPU      0.47s WALL (       1 calls)
     hinit0       :      0.54s CPU      0.56s WALL (       1 calls)

     Called by electrons:
     c_bands      :    859.63s CPU    487.52s WALL (       1 calls)
     v_of_rho     :      0.05s CPU      0.03s WALL (       1 calls)
     v_h          :      0.00s CPU      0.01s WALL (       1 calls)
     v_xc         :      0.04s CPU      0.03s WALL (       1 calls)

     Called by c_bands:
     init_us_2    :      0.19s CPU      0.10s WALL (     211 calls)
     cegterg      :    837.94s CPU    475.26s WALL (     719 calls)

     Called by sum_band:

     Called by *egterg:
     cdiaghg      :    277.13s CPU    189.80s WALL (   12738 calls)
     cegterg:over :     50.63s CPU     27.60s WALL (   12527 calls)
     cegterg:upda :     26.07s CPU     11.08s WALL (   12527 calls)
     cegterg:last :     39.43s CPU     19.70s WALL (    5857 calls)
     h_psi        :    430.63s CPU    217.35s WALL (   13457 calls)
     g_psi        :      2.48s CPU      1.89s WALL (   12527 calls)

     Called by h_psi:
     h_psi:calbec :     20.10s CPU      8.43s WALL (   13457 calls)
     vloc_psi     :    397.71s CPU    203.20s WALL (   13457 calls)
     add_vuspsi   :     11.42s CPU      4.97s WALL (   13457 calls)

     General routines
     calbec       :     20.04s CPU      8.40s WALL (   13457 calls)
     fft          :      0.56s CPU      0.57s WALL (      11 calls)
     ffts         :      0.42s CPU      0.42s WALL (       1 calls)
     fftw         :    333.53s CPU    170.57s WALL ( 1212932 calls)
     interpolate  :      0.42s CPU      0.42s WALL (       1 calls)
     davcio       :      0.10s CPU      0.19s WALL (     422 calls)

     Parallel routines

     PWSCF        :  14m28.39s CPU   9m 3.10s WALL


   This run was terminated on:  19:59:38  14Aug2025            

=------------------------------------------------------------------------------=
   JOB DONE.
=------------------------------------------------------------------------------=
