
     Program PWSCF v.7.4.1 starts on 14Aug2025 at 20:38:23 

     This program is part of the open-source Quantum ESPRESSO suite
     for quantum simulation of materials; please cite
         "P. Giannozzi et al., J. Phys.:Condens. Matter 21 395502 (2009);
         "P. Giannozzi et al., J. Phys.:Condens. Matter 29 465901 (2017);
         "P. Giannozzi et al., J. Chem. Phys. 152 154105 (2020);
          URL http://www.quantum-espresso.org", 
     in publications or presentations arising from this work. More details at
     http://www.quantum-espresso.org/quote

     Parallel version (MPI & OpenMP), running on      48 processor cores
     Number of MPI processes:                24
     Threads/MPI process:                     2

     MPI processes distributed on     2 nodes
     107253 MiB available memory on the printing compute node when the environment starts

     Waiting for input...
     Reading input from standard input

     Current dimensions of program PWSCF are:
     Max number of different atomic species (ntypx) = 10
     Max number of k-points (npk) =  40000
     Max angular momentum in pseudopotentials (lmaxx) =  4

     IMPORTANT: XC functional enforced from input :
     Exchange-correlation= PBE
                           (   1   4   3   4   0   0   0)
     Any further DFT definition will be discarded
     Please, verify this is what you really want


     Atomic positions and unit cell read from directory:
     tmp/Sb2Te3-uatsx-c3-3.0.save/

     Message from routine setup:
     no reason to have ecutrho>4*ecutwfc

     R & G space division:  proc/nbgrp/npool/nimage =      24
     Subspace diagonalization in iterative solution of the eigenvalue problem:
     a serial algorithm will be used


     Parallelization info
     --------------------
     sticks:   dense  smooth     PW     G-vecs:    dense   smooth      PW
     Min          97      39     11                19481     4929     747
     Max          98      40     12                19500     4946     765
     Sum        2349     941    267               467835   118417   18151

     Using Slab Decomposition



     bravais-lattice index     =            0
     lattice parameter (alat)  =       8.3900  a.u.
     unit-cell volume          =    2478.7943 (a.u.)^3
     number of atoms/cell      =            5
     number of atomic types    =            2
     number of electrons       =        78.00
     number of Kohn-Sham states=          100
     kinetic-energy cutoff     =      50.0000  Ry
     charge density cutoff     =     500.0000  Ry
     Exchange-correlation= PBE
                           (   1   4   3   4   0   0   0)

     celldm(1)=   8.390002  celldm(2)=   0.000000  celldm(3)=   0.000000
     celldm(4)=   0.000000  celldm(5)=   0.000000  celldm(6)=   0.000000

     crystal axes: (cart. coord. in units of alat)
               a(1) = (   1.000000   0.000000   0.000000 )  
               a(2) = (  -0.485437   0.840793   0.000000 )  
               a(3) = (   0.000000   0.000000   4.991890 )  

     reciprocal axes: (cart. coord. in units 2 pi/alat)
               b(1) = (  1.000000  0.577356 -0.000000 )  
               b(2) = (  0.000000  1.189353  0.000000 )  
               b(3) = (  0.000000 -0.000000  0.200325 )  


     PseudoPot. # 1 for Sb read from file:
     /zfs-home/202401017n1/pseudos/Sb_ONCV_PBE-1.2.upf
     MD5 check sum: 0417cd6c0fe8ce4611e2b23135f1abd9
     Pseudo is Norm-conserving, Zval = 15.0
     Generated using ONCVPSP code by D. R. Hamann
     Using radial grid of  602 points,  6 beta functions with: 
                l(1) =   0
                l(2) =   0
                l(3) =   1
                l(4) =   1
                l(5) =   2
                l(6) =   2

     PseudoPot. # 2 for Te read from file:
     /zfs-home/202401017n1/pseudos/Te_ONCV_PBE-1.2.upf
     MD5 check sum: dd4de4dac1e38587f63aaf3700bb29d3
     Pseudo is Norm-conserving, Zval = 16.0
     Generated using ONCVPSP code by D. R. Hamann
     Using radial grid of  602 points,  6 beta functions with: 
                l(1) =   0
                l(2) =   0
                l(3) =   1
                l(4) =   1
                l(5) =   2
                l(6) =   2

     atomic species   valence    mass     pseudopotential
     Sb               15.00   121.76000     Sb( 1.00)
     Te               16.00   127.60000     Te( 1.00)

     No symmetry found


                                    s                        frac. trans.

      isym =  1     identity                                     

 cryst.   s( 1) = (     1          0          0      )
                  (     0          1          0      )
                  (     0          0          1      )

 cart.    s( 1) = (  1.0000000  0.0000000  0.0000000 )
                  (  0.0000000  1.0000000  0.0000000 )
                  (  0.0000000  0.0000000  1.0000000 )


   Cartesian axes

     site n.     atom                  positions (alat units)
         1        Sb     tau(   1) = (   0.5867812   0.4172984   2.9417443  )
         2        Te     tau(   2) = (   0.5754457   0.3979752   1.6726131  )
         3        Sb     tau(   3) = (   0.0727921   0.1220272   2.0501240  )
         4        Te     tau(   4) = (   0.0840698   0.1416820   3.3192296  )
         5        Te     tau(   5) = (   0.0870265   0.6902229   2.4959189  )

     -------------------------------------------------
     Parameters for Dispersion (Grimme-D2) Correction:
     -------------------------------------------------
       atom      VdW radius       C_6     

        Sb         3.555       1333.532
        Te         3.575       1101.101

   Crystallographic axes

     site n.     atom                  positions (cryst. coord.)
         1        Sb     tau(   1) = (  0.8277109  0.4963151  0.5893047  )
         2        Te     tau(   2) = (  0.8052190  0.4733330  0.3350661  )
         3        Sb     tau(   3) = (  0.1432452  0.1451335  0.4106909  )
         4        Te     tau(   4) = (  0.1658708  0.1685099  0.6649244  )
         5        Te     tau(   5) = (  0.4855307  0.8209187  0.4999948  )

     number of k points=   211
                       cart. coord. in units 2pi/alat
        k(    1) = (   0.0000000   0.0000000   0.0000000), wk =   0.0094787
        k(    2) = (   0.0071429   0.0041240   0.0000000), wk =   0.0094787
        k(    3) = (   0.0142857   0.0082479   0.0000000), wk =   0.0094787
        k(    4) = (   0.0214286   0.0123719   0.0000000), wk =   0.0094787
        k(    5) = (   0.0285714   0.0164959   0.0000000), wk =   0.0094787
        k(    6) = (   0.0357143   0.0206199   0.0000000), wk =   0.0094787
        k(    7) = (   0.0428571   0.0247438   0.0000000), wk =   0.0094787
        k(    8) = (   0.0500000   0.0288678   0.0000000), wk =   0.0094787
        k(    9) = (   0.0571429   0.0329918   0.0000000), wk =   0.0094787
        k(   10) = (   0.0642857   0.0371157   0.0000000), wk =   0.0094787
        k(   11) = (   0.0714286   0.0412397   0.0000000), wk =   0.0094787
        k(   12) = (   0.0785714   0.0453637   0.0000000), wk =   0.0094787
        k(   13) = (   0.0857143   0.0494876   0.0000000), wk =   0.0094787
        k(   14) = (   0.0928571   0.0536116   0.0000000), wk =   0.0094787
        k(   15) = (   0.1000000   0.0577356   0.0000000), wk =   0.0094787
        k(   16) = (   0.1071429   0.0618596   0.0000000), wk =   0.0094787
        k(   17) = (   0.1142857   0.0659835   0.0000000), wk =   0.0094787
        k(   18) = (   0.1214286   0.0701075   0.0000000), wk =   0.0094787
        k(   19) = (   0.1285714   0.0742315   0.0000000), wk =   0.0094787
        k(   20) = (   0.1357143   0.0783554   0.0000000), wk =   0.0094787
        k(   21) = (   0.1428571   0.0824794   0.0000000), wk =   0.0094787
        k(   22) = (   0.1500000   0.0866034   0.0000000), wk =   0.0094787
        k(   23) = (   0.1571429   0.0907273   0.0000000), wk =   0.0094787
        k(   24) = (   0.1642857   0.0948513   0.0000000), wk =   0.0094787
        k(   25) = (   0.1714286   0.0989753   0.0000000), wk =   0.0094787
        k(   26) = (   0.1785714   0.1030993   0.0000000), wk =   0.0094787
        k(   27) = (   0.1857143   0.1072232   0.0000000), wk =   0.0094787
        k(   28) = (   0.1928571   0.1113472   0.0000000), wk =   0.0094787
        k(   29) = (   0.2000000   0.1154712   0.0000000), wk =   0.0094787
        k(   30) = (   0.2071429   0.1195951   0.0000000), wk =   0.0094787
        k(   31) = (   0.2142857   0.1237191   0.0000000), wk =   0.0094787
        k(   32) = (   0.2214286   0.1278431   0.0000000), wk =   0.0094787
        k(   33) = (   0.2285714   0.1319671   0.0000000), wk =   0.0094787
        k(   34) = (   0.2357143   0.1360910   0.0000000), wk =   0.0094787
        k(   35) = (   0.2428571   0.1402150   0.0000000), wk =   0.0094787
        k(   36) = (   0.2500000   0.1443390   0.0000000), wk =   0.0094787
        k(   37) = (   0.2571429   0.1484629   0.0000000), wk =   0.0094787
        k(   38) = (   0.2642857   0.1525869   0.0000000), wk =   0.0094787
        k(   39) = (   0.2714286   0.1567109   0.0000000), wk =   0.0094787
        k(   40) = (   0.2785714   0.1608348   0.0000000), wk =   0.0094787
        k(   41) = (   0.2857143   0.1649588   0.0000000), wk =   0.0094787
        k(   42) = (   0.2928571   0.1690828   0.0000000), wk =   0.0094787
        k(   43) = (   0.3000000   0.1732068   0.0000000), wk =   0.0094787
        k(   44) = (   0.3071429   0.1773307   0.0000000), wk =   0.0094787
        k(   45) = (   0.3142857   0.1814547   0.0000000), wk =   0.0094787
        k(   46) = (   0.3214286   0.1855787   0.0000000), wk =   0.0094787
        k(   47) = (   0.3285714   0.1897026   0.0000000), wk =   0.0094787
        k(   48) = (   0.3357143   0.1938266   0.0000000), wk =   0.0094787
        k(   49) = (   0.3428571   0.1979506   0.0000000), wk =   0.0094787
        k(   50) = (   0.3500000   0.2020745   0.0000000), wk =   0.0094787
        k(   51) = (   0.3571429   0.2061985   0.0000000), wk =   0.0094787
        k(   52) = (   0.3642857   0.2103225   0.0000000), wk =   0.0094787
        k(   53) = (   0.3714286   0.2144465   0.0000000), wk =   0.0094787
        k(   54) = (   0.3785714   0.2185704   0.0000000), wk =   0.0094787
        k(   55) = (   0.3857143   0.2226944   0.0000000), wk =   0.0094787
        k(   56) = (   0.3928571   0.2268184   0.0000000), wk =   0.0094787
        k(   57) = (   0.4000000   0.2309423   0.0000000), wk =   0.0094787
        k(   58) = (   0.4071429   0.2350663   0.0000000), wk =   0.0094787
        k(   59) = (   0.4142857   0.2391903   0.0000000), wk =   0.0094787
        k(   60) = (   0.4214286   0.2433143   0.0000000), wk =   0.0094787
        k(   61) = (   0.4285714   0.2474382   0.0000000), wk =   0.0094787
        k(   62) = (   0.4357143   0.2515622   0.0000000), wk =   0.0094787
        k(   63) = (   0.4428571   0.2556862   0.0000000), wk =   0.0094787
        k(   64) = (   0.4500000   0.2598101   0.0000000), wk =   0.0094787
        k(   65) = (   0.4571429   0.2639341   0.0000000), wk =   0.0094787
        k(   66) = (   0.4642857   0.2680581   0.0000000), wk =   0.0094787
        k(   67) = (   0.4714286   0.2721820   0.0000000), wk =   0.0094787
        k(   68) = (   0.4785714   0.2763060   0.0000000), wk =   0.0094787
        k(   69) = (   0.4857143   0.2804300   0.0000000), wk =   0.0094787
        k(   70) = (   0.4928571   0.2845540   0.0000000), wk =   0.0094787
        k(   71) = (   0.5000000   0.2886779   0.0000000), wk =   0.0094787
        k(   72) = (   0.4976190   0.2929669   0.0000000), wk =   0.0094787
        k(   73) = (   0.4952381   0.2972558   0.0000000), wk =   0.0094787
        k(   74) = (   0.4928571   0.3015447   0.0000000), wk =   0.0094787
        k(   75) = (   0.4904762   0.3058336   0.0000000), wk =   0.0094787
        k(   76) = (   0.4880952   0.3101226   0.0000000), wk =   0.0094787
        k(   77) = (   0.4857143   0.3144115   0.0000000), wk =   0.0094787
        k(   78) = (   0.4833333   0.3187004   0.0000000), wk =   0.0094787
        k(   79) = (   0.4809524   0.3229894   0.0000000), wk =   0.0094787
        k(   80) = (   0.4785714   0.3272783   0.0000000), wk =   0.0094787
        k(   81) = (   0.4761905   0.3315672   0.0000000), wk =   0.0094787
        k(   82) = (   0.4738095   0.3358561   0.0000000), wk =   0.0094787
        k(   83) = (   0.4714286   0.3401451   0.0000000), wk =   0.0094787
        k(   84) = (   0.4690476   0.3444340   0.0000000), wk =   0.0094787
        k(   85) = (   0.4666667   0.3487229   0.0000000), wk =   0.0094787
        k(   86) = (   0.4642857   0.3530119   0.0000000), wk =   0.0094787
        k(   87) = (   0.4619048   0.3573008   0.0000000), wk =   0.0094787
        k(   88) = (   0.4595238   0.3615897   0.0000000), wk =   0.0094787
        k(   89) = (   0.4571429   0.3658787   0.0000000), wk =   0.0094787
        k(   90) = (   0.4547619   0.3701676   0.0000000), wk =   0.0094787
        k(   91) = (   0.4523810   0.3744565   0.0000000), wk =   0.0094787
        k(   92) = (   0.4500000   0.3787454   0.0000000), wk =   0.0094787
        k(   93) = (   0.4476190   0.3830344   0.0000000), wk =   0.0094787
        k(   94) = (   0.4452381   0.3873233   0.0000000), wk =   0.0094787
        k(   95) = (   0.4428571   0.3916122   0.0000000), wk =   0.0094787
        k(   96) = (   0.4404762   0.3959012   0.0000000), wk =   0.0094787
        k(   97) = (   0.4380952   0.4001901   0.0000000), wk =   0.0094787
        k(   98) = (   0.4357143   0.4044790   0.0000000), wk =   0.0094787
        k(   99) = (   0.4333333   0.4087679   0.0000000), wk =   0.0094787
        k(  100) = (   0.4309524   0.4130569   0.0000000), wk =   0.0094787
        k(  101) = (   0.4285714   0.4173458   0.0000000), wk =   0.0094787
        k(  102) = (   0.4261905   0.4216347   0.0000000), wk =   0.0094787
        k(  103) = (   0.4238095   0.4259237   0.0000000), wk =   0.0094787
        k(  104) = (   0.4214286   0.4302126   0.0000000), wk =   0.0094787
        k(  105) = (   0.4190476   0.4345015   0.0000000), wk =   0.0094787
        k(  106) = (   0.4166667   0.4387904   0.0000000), wk =   0.0094787
        k(  107) = (   0.4142857   0.4430794   0.0000000), wk =   0.0094787
        k(  108) = (   0.4119048   0.4473683   0.0000000), wk =   0.0094787
        k(  109) = (   0.4095238   0.4516572   0.0000000), wk =   0.0094787
        k(  110) = (   0.4071429   0.4559462   0.0000000), wk =   0.0094787
        k(  111) = (   0.4047619   0.4602351   0.0000000), wk =   0.0094787
        k(  112) = (   0.4023810   0.4645240   0.0000000), wk =   0.0094787
        k(  113) = (   0.4000000   0.4688130   0.0000000), wk =   0.0094787
        k(  114) = (   0.3976190   0.4731019   0.0000000), wk =   0.0094787
        k(  115) = (   0.3952381   0.4773908   0.0000000), wk =   0.0094787
        k(  116) = (   0.3928571   0.4816797   0.0000000), wk =   0.0094787
        k(  117) = (   0.3904762   0.4859687   0.0000000), wk =   0.0094787
        k(  118) = (   0.3880952   0.4902576   0.0000000), wk =   0.0094787
        k(  119) = (   0.3857143   0.4945465   0.0000000), wk =   0.0094787
        k(  120) = (   0.3833333   0.4988355   0.0000000), wk =   0.0094787
        k(  121) = (   0.3809524   0.5031244   0.0000000), wk =   0.0094787
        k(  122) = (   0.3785714   0.5074133   0.0000000), wk =   0.0094787
        k(  123) = (   0.3761905   0.5117022   0.0000000), wk =   0.0094787
        k(  124) = (   0.3738095   0.5159912   0.0000000), wk =   0.0094787
        k(  125) = (   0.3714286   0.5202801   0.0000000), wk =   0.0094787
        k(  126) = (   0.3690476   0.5245690   0.0000000), wk =   0.0094787
        k(  127) = (   0.3666667   0.5288580   0.0000000), wk =   0.0094787
        k(  128) = (   0.3642857   0.5331469   0.0000000), wk =   0.0094787
        k(  129) = (   0.3619048   0.5374358   0.0000000), wk =   0.0094787
        k(  130) = (   0.3595238   0.5417247   0.0000000), wk =   0.0094787
        k(  131) = (   0.3571429   0.5460137   0.0000000), wk =   0.0094787
        k(  132) = (   0.3547619   0.5503026   0.0000000), wk =   0.0094787
        k(  133) = (   0.3523810   0.5545915   0.0000000), wk =   0.0094787
        k(  134) = (   0.3500000   0.5588805   0.0000000), wk =   0.0094787
        k(  135) = (   0.3476190   0.5631694   0.0000000), wk =   0.0094787
        k(  136) = (   0.3452381   0.5674583   0.0000000), wk =   0.0094787
        k(  137) = (   0.3428571   0.5717473   0.0000000), wk =   0.0094787
        k(  138) = (   0.3404762   0.5760362   0.0000000), wk =   0.0094787
        k(  139) = (   0.3380952   0.5803251   0.0000000), wk =   0.0094787
        k(  140) = (   0.3357143   0.5846140   0.0000000), wk =   0.0094787
        k(  141) = (   0.3333333   0.5889030   0.0000000), wk =   0.0094787
        k(  142) = (   0.3285714   0.5804901   0.0000000), wk =   0.0094787
        k(  143) = (   0.3238095   0.5720772   0.0000000), wk =   0.0094787
        k(  144) = (   0.3190476   0.5636643   0.0000000), wk =   0.0094787
        k(  145) = (   0.3142857   0.5552514   0.0000000), wk =   0.0094787
        k(  146) = (   0.3095238   0.5468385   0.0000000), wk =   0.0094787
        k(  147) = (   0.3047619   0.5384256   0.0000000), wk =   0.0094787
        k(  148) = (   0.3000000   0.5300127   0.0000000), wk =   0.0094787
        k(  149) = (   0.2952381   0.5215998   0.0000000), wk =   0.0094787
        k(  150) = (   0.2904762   0.5131869   0.0000000), wk =   0.0094787
        k(  151) = (   0.2857143   0.5047740   0.0000000), wk =   0.0094787
        k(  152) = (   0.2809524   0.4963611   0.0000000), wk =   0.0094787
        k(  153) = (   0.2761905   0.4879482   0.0000000), wk =   0.0094787
        k(  154) = (   0.2714286   0.4795353   0.0000000), wk =   0.0094787
        k(  155) = (   0.2666667   0.4711224   0.0000000), wk =   0.0094787
        k(  156) = (   0.2619048   0.4627095   0.0000000), wk =   0.0094787
        k(  157) = (   0.2571429   0.4542966   0.0000000), wk =   0.0094787
        k(  158) = (   0.2523810   0.4458837   0.0000000), wk =   0.0094787
        k(  159) = (   0.2476190   0.4374708   0.0000000), wk =   0.0094787
        k(  160) = (   0.2428571   0.4290579   0.0000000), wk =   0.0094787
        k(  161) = (   0.2380952   0.4206450   0.0000000), wk =   0.0094787
        k(  162) = (   0.2333333   0.4122321   0.0000000), wk =   0.0094787
        k(  163) = (   0.2285714   0.4038192   0.0000000), wk =   0.0094787
        k(  164) = (   0.2238095   0.3954063   0.0000000), wk =   0.0094787
        k(  165) = (   0.2190476   0.3869934   0.0000000), wk =   0.0094787
        k(  166) = (   0.2142857   0.3785805   0.0000000), wk =   0.0094787
        k(  167) = (   0.2095238   0.3701676   0.0000000), wk =   0.0094787
        k(  168) = (   0.2047619   0.3617547   0.0000000), wk =   0.0094787
        k(  169) = (   0.2000000   0.3533418   0.0000000), wk =   0.0094787
        k(  170) = (   0.1952381   0.3449289   0.0000000), wk =   0.0094787
        k(  171) = (   0.1904762   0.3365160   0.0000000), wk =   0.0094787
        k(  172) = (   0.1857143   0.3281031   0.0000000), wk =   0.0094787
        k(  173) = (   0.1809524   0.3196902   0.0000000), wk =   0.0094787
        k(  174) = (   0.1761905   0.3112773   0.0000000), wk =   0.0094787
        k(  175) = (   0.1714286   0.3028644   0.0000000), wk =   0.0094787
        k(  176) = (   0.1666667   0.2944515   0.0000000), wk =   0.0094787
        k(  177) = (   0.1619048   0.2860386   0.0000000), wk =   0.0094787
        k(  178) = (   0.1571429   0.2776257   0.0000000), wk =   0.0094787
        k(  179) = (   0.1523810   0.2692128   0.0000000), wk =   0.0094787
        k(  180) = (   0.1476190   0.2607999   0.0000000), wk =   0.0094787
        k(  181) = (   0.1428571   0.2523870   0.0000000), wk =   0.0094787
        k(  182) = (   0.1380952   0.2439741   0.0000000), wk =   0.0094787
        k(  183) = (   0.1333333   0.2355612   0.0000000), wk =   0.0094787
        k(  184) = (   0.1285714   0.2271483   0.0000000), wk =   0.0094787
        k(  185) = (   0.1238095   0.2187354   0.0000000), wk =   0.0094787
        k(  186) = (   0.1190476   0.2103225   0.0000000), wk =   0.0094787
        k(  187) = (   0.1142857   0.2019096   0.0000000), wk =   0.0094787
        k(  188) = (   0.1095238   0.1934967   0.0000000), wk =   0.0094787
        k(  189) = (   0.1047619   0.1850838   0.0000000), wk =   0.0094787
        k(  190) = (   0.1000000   0.1766709   0.0000000), wk =   0.0094787
        k(  191) = (   0.0952381   0.1682580   0.0000000), wk =   0.0094787
        k(  192) = (   0.0904762   0.1598451   0.0000000), wk =   0.0094787
        k(  193) = (   0.0857143   0.1514322   0.0000000), wk =   0.0094787
        k(  194) = (   0.0809524   0.1430193   0.0000000), wk =   0.0094787
        k(  195) = (   0.0761905   0.1346064   0.0000000), wk =   0.0094787
        k(  196) = (   0.0714286   0.1261935   0.0000000), wk =   0.0094787
        k(  197) = (   0.0666667   0.1177806   0.0000000), wk =   0.0094787
        k(  198) = (   0.0619048   0.1093677   0.0000000), wk =   0.0094787
        k(  199) = (   0.0571429   0.1009548   0.0000000), wk =   0.0094787
        k(  200) = (   0.0523810   0.0925419   0.0000000), wk =   0.0094787
        k(  201) = (   0.0476190   0.0841290   0.0000000), wk =   0.0094787
        k(  202) = (   0.0428571   0.0757161   0.0000000), wk =   0.0094787
        k(  203) = (   0.0380952   0.0673032   0.0000000), wk =   0.0094787
        k(  204) = (   0.0333333   0.0588903   0.0000000), wk =   0.0094787
        k(  205) = (   0.0285714   0.0504774   0.0000000), wk =   0.0094787
        k(  206) = (   0.0238095   0.0420645   0.0000000), wk =   0.0094787
        k(  207) = (   0.0190476   0.0336516   0.0000000), wk =   0.0094787
        k(  208) = (   0.0142857   0.0252387   0.0000000), wk =   0.0094787
        k(  209) = (   0.0095238   0.0168258   0.0000000), wk =   0.0094787
        k(  210) = (   0.0047619   0.0084129   0.0000000), wk =   0.0094787
        k(  211) = (   0.0000000   0.0000000   0.0000000), wk =   0.0094787

                       cryst. coord.
        k(    1) = (   0.0000000   0.0000000   0.0000000), wk =   0.0094787
        k(    2) = (   0.0071429   0.0000000   0.0000000), wk =   0.0094787
        k(    3) = (   0.0142857   0.0000000   0.0000000), wk =   0.0094787
        k(    4) = (   0.0214286   0.0000000   0.0000000), wk =   0.0094787
        k(    5) = (   0.0285714   0.0000000   0.0000000), wk =   0.0094787
        k(    6) = (   0.0357143  -0.0000000   0.0000000), wk =   0.0094787
        k(    7) = (   0.0428571   0.0000000   0.0000000), wk =   0.0094787
        k(    8) = (   0.0500000   0.0000000   0.0000000), wk =   0.0094787
        k(    9) = (   0.0571429   0.0000000   0.0000000), wk =   0.0094787
        k(   10) = (   0.0642857   0.0000000   0.0000000), wk =   0.0094787
        k(   11) = (   0.0714286  -0.0000000   0.0000000), wk =   0.0094787
        k(   12) = (   0.0785714  -0.0000000   0.0000000), wk =   0.0094787
        k(   13) = (   0.0857143   0.0000000   0.0000000), wk =   0.0094787
        k(   14) = (   0.0928571  -0.0000000   0.0000000), wk =   0.0094787
        k(   15) = (   0.1000000   0.0000000   0.0000000), wk =   0.0094787
        k(   16) = (   0.1071429   0.0000000   0.0000000), wk =   0.0094787
        k(   17) = (   0.1142857   0.0000000   0.0000000), wk =   0.0094787
        k(   18) = (   0.1214286   0.0000000   0.0000000), wk =   0.0094787
        k(   19) = (   0.1285714   0.0000000   0.0000000), wk =   0.0094787
        k(   20) = (   0.1357143   0.0000000   0.0000000), wk =   0.0094787
        k(   21) = (   0.1428571  -0.0000000   0.0000000), wk =   0.0094787
        k(   22) = (   0.1500000  -0.0000000   0.0000000), wk =   0.0094787
        k(   23) = (   0.1571429  -0.0000000   0.0000000), wk =   0.0094787
        k(   24) = (   0.1642857   0.0000000   0.0000000), wk =   0.0094787
        k(   25) = (   0.1714286   0.0000000   0.0000000), wk =   0.0094787
        k(   26) = (   0.1785714  -0.0000000   0.0000000), wk =   0.0094787
        k(   27) = (   0.1857143  -0.0000000   0.0000000), wk =   0.0094787
        k(   28) = (   0.1928571   0.0000000   0.0000000), wk =   0.0094787
        k(   29) = (   0.2000000   0.0000000   0.0000000), wk =   0.0094787
        k(   30) = (   0.2071429   0.0000000   0.0000000), wk =   0.0094787
        k(   31) = (   0.2142857   0.0000000   0.0000000), wk =   0.0094787
        k(   32) = (   0.2214286   0.0000000   0.0000000), wk =   0.0094787
        k(   33) = (   0.2285714   0.0000000   0.0000000), wk =   0.0094787
        k(   34) = (   0.2357143   0.0000000   0.0000000), wk =   0.0094787
        k(   35) = (   0.2428571   0.0000000   0.0000000), wk =   0.0094787
        k(   36) = (   0.2500000   0.0000000   0.0000000), wk =   0.0094787
        k(   37) = (   0.2571429   0.0000000   0.0000000), wk =   0.0094787
        k(   38) = (   0.2642857  -0.0000000   0.0000000), wk =   0.0094787
        k(   39) = (   0.2714286   0.0000000   0.0000000), wk =   0.0094787
        k(   40) = (   0.2785714  -0.0000000   0.0000000), wk =   0.0094787
        k(   41) = (   0.2857143  -0.0000000   0.0000000), wk =   0.0094787
        k(   42) = (   0.2928571   0.0000000   0.0000000), wk =   0.0094787
        k(   43) = (   0.3000000  -0.0000000   0.0000000), wk =   0.0094787
        k(   44) = (   0.3071429   0.0000000   0.0000000), wk =   0.0094787
        k(   45) = (   0.3142857  -0.0000000   0.0000000), wk =   0.0094787
        k(   46) = (   0.3214286  -0.0000000   0.0000000), wk =   0.0094787
        k(   47) = (   0.3285714   0.0000000   0.0000000), wk =   0.0094787
        k(   48) = (   0.3357143   0.0000000   0.0000000), wk =   0.0094787
        k(   49) = (   0.3428571   0.0000000   0.0000000), wk =   0.0094787
        k(   50) = (   0.3500000   0.0000000   0.0000000), wk =   0.0094787
        k(   51) = (   0.3571429  -0.0000000   0.0000000), wk =   0.0094787
        k(   52) = (   0.3642857   0.0000000   0.0000000), wk =   0.0094787
        k(   53) = (   0.3714286  -0.0000000   0.0000000), wk =   0.0094787
        k(   54) = (   0.3785714  -0.0000000   0.0000000), wk =   0.0094787
        k(   55) = (   0.3857143   0.0000000   0.0000000), wk =   0.0094787
        k(   56) = (   0.3928571   0.0000000   0.0000000), wk =   0.0094787
        k(   57) = (   0.4000000   0.0000000   0.0000000), wk =   0.0094787
        k(   58) = (   0.4071429   0.0000000   0.0000000), wk =   0.0094787
        k(   59) = (   0.4142857   0.0000000   0.0000000), wk =   0.0094787
        k(   60) = (   0.4214286   0.0000000   0.0000000), wk =   0.0094787
        k(   61) = (   0.4285714   0.0000000   0.0000000), wk =   0.0094787
        k(   62) = (   0.4357143   0.0000000   0.0000000), wk =   0.0094787
        k(   63) = (   0.4428571   0.0000000   0.0000000), wk =   0.0094787
        k(   64) = (   0.4500000  -0.0000000   0.0000000), wk =   0.0094787
        k(   65) = (   0.4571429   0.0000000   0.0000000), wk =   0.0094787
        k(   66) = (   0.4642857  -0.0000000   0.0000000), wk =   0.0094787
        k(   67) = (   0.4714286   0.0000000   0.0000000), wk =   0.0094787
        k(   68) = (   0.4785714   0.0000000   0.0000000), wk =   0.0094787
        k(   69) = (   0.4857143   0.0000000   0.0000000), wk =   0.0094787
        k(   70) = (   0.4928571   0.0000000   0.0000000), wk =   0.0094787
        k(   71) = (   0.5000000   0.0000000   0.0000000), wk =   0.0094787
        k(   72) = (   0.4976190   0.0047619   0.0000000), wk =   0.0094787
        k(   73) = (   0.4952381   0.0095238   0.0000000), wk =   0.0094787
        k(   74) = (   0.4928571   0.0142857   0.0000000), wk =   0.0094787
        k(   75) = (   0.4904762   0.0190476   0.0000000), wk =   0.0094787
        k(   76) = (   0.4880952   0.0238095   0.0000000), wk =   0.0094787
        k(   77) = (   0.4857143   0.0285714   0.0000000), wk =   0.0094787
        k(   78) = (   0.4833333   0.0333333   0.0000000), wk =   0.0094787
        k(   79) = (   0.4809524   0.0380952   0.0000000), wk =   0.0094787
        k(   80) = (   0.4785714   0.0428571   0.0000000), wk =   0.0094787
        k(   81) = (   0.4761905   0.0476190   0.0000000), wk =   0.0094787
        k(   82) = (   0.4738095   0.0523810   0.0000000), wk =   0.0094787
        k(   83) = (   0.4714286   0.0571429   0.0000000), wk =   0.0094787
        k(   84) = (   0.4690476   0.0619048   0.0000000), wk =   0.0094787
        k(   85) = (   0.4666667   0.0666667   0.0000000), wk =   0.0094787
        k(   86) = (   0.4642857   0.0714286   0.0000000), wk =   0.0094787
        k(   87) = (   0.4619048   0.0761905   0.0000000), wk =   0.0094787
        k(   88) = (   0.4595238   0.0809524   0.0000000), wk =   0.0094787
        k(   89) = (   0.4571429   0.0857143   0.0000000), wk =   0.0094787
        k(   90) = (   0.4547619   0.0904762   0.0000000), wk =   0.0094787
        k(   91) = (   0.4523810   0.0952381   0.0000000), wk =   0.0094787
        k(   92) = (   0.4500000   0.1000000   0.0000000), wk =   0.0094787
        k(   93) = (   0.4476190   0.1047619   0.0000000), wk =   0.0094787
        k(   94) = (   0.4452381   0.1095238   0.0000000), wk =   0.0094787
        k(   95) = (   0.4428571   0.1142857   0.0000000), wk =   0.0094787
        k(   96) = (   0.4404762   0.1190476   0.0000000), wk =   0.0094787
        k(   97) = (   0.4380952   0.1238095   0.0000000), wk =   0.0094787
        k(   98) = (   0.4357143   0.1285714   0.0000000), wk =   0.0094787
        k(   99) = (   0.4333333   0.1333333   0.0000000), wk =   0.0094787
        k(  100) = (   0.4309524   0.1380952   0.0000000), wk =   0.0094787
        k(  101) = (   0.4285714   0.1428571   0.0000000), wk =   0.0094787
        k(  102) = (   0.4261905   0.1476190   0.0000000), wk =   0.0094787
        k(  103) = (   0.4238095   0.1523810   0.0000000), wk =   0.0094787
        k(  104) = (   0.4214286   0.1571429   0.0000000), wk =   0.0094787
        k(  105) = (   0.4190476   0.1619048   0.0000000), wk =   0.0094787
        k(  106) = (   0.4166667   0.1666667   0.0000000), wk =   0.0094787
        k(  107) = (   0.4142857   0.1714286   0.0000000), wk =   0.0094787
        k(  108) = (   0.4119048   0.1761905   0.0000000), wk =   0.0094787
        k(  109) = (   0.4095238   0.1809524   0.0000000), wk =   0.0094787
        k(  110) = (   0.4071429   0.1857143   0.0000000), wk =   0.0094787
        k(  111) = (   0.4047619   0.1904762   0.0000000), wk =   0.0094787
        k(  112) = (   0.4023810   0.1952381   0.0000000), wk =   0.0094787
        k(  113) = (   0.4000000   0.2000000   0.0000000), wk =   0.0094787
        k(  114) = (   0.3976190   0.2047619   0.0000000), wk =   0.0094787
        k(  115) = (   0.3952381   0.2095238   0.0000000), wk =   0.0094787
        k(  116) = (   0.3928571   0.2142857   0.0000000), wk =   0.0094787
        k(  117) = (   0.3904762   0.2190476   0.0000000), wk =   0.0094787
        k(  118) = (   0.3880952   0.2238095   0.0000000), wk =   0.0094787
        k(  119) = (   0.3857143   0.2285714   0.0000000), wk =   0.0094787
        k(  120) = (   0.3833333   0.2333333   0.0000000), wk =   0.0094787
        k(  121) = (   0.3809524   0.2380952   0.0000000), wk =   0.0094787
        k(  122) = (   0.3785714   0.2428571   0.0000000), wk =   0.0094787
        k(  123) = (   0.3761905   0.2476190   0.0000000), wk =   0.0094787
        k(  124) = (   0.3738095   0.2523810   0.0000000), wk =   0.0094787
        k(  125) = (   0.3714286   0.2571429   0.0000000), wk =   0.0094787
        k(  126) = (   0.3690476   0.2619048   0.0000000), wk =   0.0094787
        k(  127) = (   0.3666667   0.2666667   0.0000000), wk =   0.0094787
        k(  128) = (   0.3642857   0.2714286   0.0000000), wk =   0.0094787
        k(  129) = (   0.3619048   0.2761905   0.0000000), wk =   0.0094787
        k(  130) = (   0.3595238   0.2809524   0.0000000), wk =   0.0094787
        k(  131) = (   0.3571429   0.2857143   0.0000000), wk =   0.0094787
        k(  132) = (   0.3547619   0.2904762   0.0000000), wk =   0.0094787
        k(  133) = (   0.3523810   0.2952381   0.0000000), wk =   0.0094787
        k(  134) = (   0.3500000   0.3000000   0.0000000), wk =   0.0094787
        k(  135) = (   0.3476190   0.3047619   0.0000000), wk =   0.0094787
        k(  136) = (   0.3452381   0.3095238   0.0000000), wk =   0.0094787
        k(  137) = (   0.3428571   0.3142857   0.0000000), wk =   0.0094787
        k(  138) = (   0.3404762   0.3190476   0.0000000), wk =   0.0094787
        k(  139) = (   0.3380952   0.3238095   0.0000000), wk =   0.0094787
        k(  140) = (   0.3357143   0.3285714   0.0000000), wk =   0.0094787
        k(  141) = (   0.3333333   0.3333333   0.0000000), wk =   0.0094787
        k(  142) = (   0.3285714   0.3285714   0.0000000), wk =   0.0094787
        k(  143) = (   0.3238095   0.3238095   0.0000000), wk =   0.0094787
        k(  144) = (   0.3190476   0.3190476   0.0000000), wk =   0.0094787
        k(  145) = (   0.3142857   0.3142857   0.0000000), wk =   0.0094787
        k(  146) = (   0.3095238   0.3095238   0.0000000), wk =   0.0094787
        k(  147) = (   0.3047619   0.3047619   0.0000000), wk =   0.0094787
        k(  148) = (   0.3000000   0.3000000   0.0000000), wk =   0.0094787
        k(  149) = (   0.2952381   0.2952381   0.0000000), wk =   0.0094787
        k(  150) = (   0.2904762   0.2904762   0.0000000), wk =   0.0094787
        k(  151) = (   0.2857143   0.2857143   0.0000000), wk =   0.0094787
        k(  152) = (   0.2809524   0.2809524   0.0000000), wk =   0.0094787
        k(  153) = (   0.2761905   0.2761905   0.0000000), wk =   0.0094787
        k(  154) = (   0.2714286   0.2714286   0.0000000), wk =   0.0094787
        k(  155) = (   0.2666667   0.2666667   0.0000000), wk =   0.0094787
        k(  156) = (   0.2619048   0.2619048   0.0000000), wk =   0.0094787
        k(  157) = (   0.2571429   0.2571429   0.0000000), wk =   0.0094787
        k(  158) = (   0.2523810   0.2523810   0.0000000), wk =   0.0094787
        k(  159) = (   0.2476190   0.2476190   0.0000000), wk =   0.0094787
        k(  160) = (   0.2428571   0.2428571   0.0000000), wk =   0.0094787
        k(  161) = (   0.2380952   0.2380952   0.0000000), wk =   0.0094787
        k(  162) = (   0.2333333   0.2333333   0.0000000), wk =   0.0094787
        k(  163) = (   0.2285714   0.2285714   0.0000000), wk =   0.0094787
        k(  164) = (   0.2238095   0.2238095   0.0000000), wk =   0.0094787
        k(  165) = (   0.2190476   0.2190476   0.0000000), wk =   0.0094787
        k(  166) = (   0.2142857   0.2142857   0.0000000), wk =   0.0094787
        k(  167) = (   0.2095238   0.2095238   0.0000000), wk =   0.0094787
        k(  168) = (   0.2047619   0.2047619   0.0000000), wk =   0.0094787
        k(  169) = (   0.2000000   0.2000000   0.0000000), wk =   0.0094787
        k(  170) = (   0.1952381   0.1952381   0.0000000), wk =   0.0094787
        k(  171) = (   0.1904762   0.1904762   0.0000000), wk =   0.0094787
        k(  172) = (   0.1857143   0.1857143   0.0000000), wk =   0.0094787
        k(  173) = (   0.1809524   0.1809524   0.0000000), wk =   0.0094787
        k(  174) = (   0.1761905   0.1761905   0.0000000), wk =   0.0094787
        k(  175) = (   0.1714286   0.1714286   0.0000000), wk =   0.0094787
        k(  176) = (   0.1666667   0.1666667   0.0000000), wk =   0.0094787
        k(  177) = (   0.1619048   0.1619048   0.0000000), wk =   0.0094787
        k(  178) = (   0.1571429   0.1571429   0.0000000), wk =   0.0094787
        k(  179) = (   0.1523810   0.1523810   0.0000000), wk =   0.0094787
        k(  180) = (   0.1476190   0.1476190   0.0000000), wk =   0.0094787
        k(  181) = (   0.1428571   0.1428571   0.0000000), wk =   0.0094787
        k(  182) = (   0.1380952   0.1380952   0.0000000), wk =   0.0094787
        k(  183) = (   0.1333333   0.1333333   0.0000000), wk =   0.0094787
        k(  184) = (   0.1285714   0.1285714   0.0000000), wk =   0.0094787
        k(  185) = (   0.1238095   0.1238095   0.0000000), wk =   0.0094787
        k(  186) = (   0.1190476   0.1190476   0.0000000), wk =   0.0094787
        k(  187) = (   0.1142857   0.1142857   0.0000000), wk =   0.0094787
        k(  188) = (   0.1095238   0.1095238   0.0000000), wk =   0.0094787
        k(  189) = (   0.1047619   0.1047619   0.0000000), wk =   0.0094787
        k(  190) = (   0.1000000   0.1000000   0.0000000), wk =   0.0094787
        k(  191) = (   0.0952381   0.0952381   0.0000000), wk =   0.0094787
        k(  192) = (   0.0904762   0.0904762   0.0000000), wk =   0.0094787
        k(  193) = (   0.0857143   0.0857143   0.0000000), wk =   0.0094787
        k(  194) = (   0.0809524   0.0809524   0.0000000), wk =   0.0094787
        k(  195) = (   0.0761905   0.0761905   0.0000000), wk =   0.0094787
        k(  196) = (   0.0714286   0.0714286   0.0000000), wk =   0.0094787
        k(  197) = (   0.0666667   0.0666667   0.0000000), wk =   0.0094787
        k(  198) = (   0.0619048   0.0619048   0.0000000), wk =   0.0094787
        k(  199) = (   0.0571429   0.0571429   0.0000000), wk =   0.0094787
        k(  200) = (   0.0523810   0.0523810   0.0000000), wk =   0.0094787
        k(  201) = (   0.0476190   0.0476190   0.0000000), wk =   0.0094787
        k(  202) = (   0.0428571   0.0428571   0.0000000), wk =   0.0094787
        k(  203) = (   0.0380952   0.0380952   0.0000000), wk =   0.0094787
        k(  204) = (   0.0333333   0.0333333   0.0000000), wk =   0.0094787
        k(  205) = (   0.0285714   0.0285714   0.0000000), wk =   0.0094787
        k(  206) = (   0.0238095   0.0238095   0.0000000), wk =   0.0094787
        k(  207) = (   0.0190476   0.0190476   0.0000000), wk =   0.0094787
        k(  208) = (   0.0142857   0.0142857   0.0000000), wk =   0.0094787
        k(  209) = (   0.0095238   0.0095238   0.0000000), wk =   0.0094787
        k(  210) = (   0.0047619   0.0047619   0.0000000), wk =   0.0094787
        k(  211) = (   0.0000000   0.0000000   0.0000000), wk =   0.0094787

     Dense  grid:   467835 G-vectors     FFT dimensions: (  60,  60, 300)

     Smooth grid:   118417 G-vectors     FFT dimensions: (  40,  40, 192)

     Dynamical RAM for                 wfc:       0.94 MB

     Dynamical RAM for     wfc (w. buffer):       0.94 MB

     Dynamical RAM for           str. fact:       0.60 MB

     Dynamical RAM for           local pot:       0.00 MB

     Dynamical RAM for          nlocal pot:       0.85 MB

     Dynamical RAM for                qrad:       3.59 MB

     Dynamical RAM for          rho,v,vnew:       1.96 MB

     Dynamical RAM for           G-vectors:       1.15 MB

     Dynamical RAM for          h,s,v(r/c):       1.83 MB

     Dynamical RAM for          <psi|beta>:       0.14 MB

     Dynamical RAM for                 psi:       1.88 MB

     Dynamical RAM for                hpsi:       1.88 MB

     Dynamical RAM for      wfcinit/wfcrot:       2.11 MB

     Estimated static dynamical RAM per process >      11.77 MB

     Estimated max dynamical RAM per process >      17.49 MB

     Estimated total dynamical RAM >     419.84 MB

     The potential is recalculated from file :
     tmp/Sb2Te3-uatsx-c3-3.0.save/charge-density

     Starting wfcs are random

     Band Structure Calculation
     Davidson diagonalization with overlap

     Computing kpt #:     1  of   211
     total cpu time spent up to now is        4.6 secs

     Computing kpt #:     2  of   211
     total cpu time spent up to now is        6.9 secs

     Computing kpt #:     3  of   211
     total cpu time spent up to now is        9.4 secs

     Computing kpt #:     4  of   211
     total cpu time spent up to now is       11.8 secs

     Computing kpt #:     5  of   211
     total cpu time spent up to now is       14.3 secs

     Computing kpt #:     6  of   211
     total cpu time spent up to now is       16.5 secs

     Computing kpt #:     7  of   211
     total cpu time spent up to now is       18.7 secs

     Computing kpt #:     8  of   211
     total cpu time spent up to now is       20.6 secs

     Computing kpt #:     9  of   211
     total cpu time spent up to now is       22.7 secs

     Computing kpt #:    10  of   211
     total cpu time spent up to now is       24.5 secs

     Computing kpt #:    11  of   211
     total cpu time spent up to now is       26.5 secs

     Computing kpt #:    12  of   211
     total cpu time spent up to now is       28.3 secs

     Computing kpt #:    13  of   211
     total cpu time spent up to now is       30.2 secs

     Computing kpt #:    14  of   211
     total cpu time spent up to now is       32.8 secs

     Computing kpt #:    15  of   211
     total cpu time spent up to now is       34.9 secs

     Computing kpt #:    16  of   211
     total cpu time spent up to now is       37.1 secs

     Computing kpt #:    17  of   211
     total cpu time spent up to now is       39.3 secs

     Computing kpt #:    18  of   211
     total cpu time spent up to now is       41.6 secs

     Computing kpt #:    19  of   211
     total cpu time spent up to now is       43.9 secs

     Computing kpt #:    20  of   211
     total cpu time spent up to now is       46.5 secs

     Computing kpt #:    21  of   211
     total cpu time spent up to now is       49.3 secs

     Computing kpt #:    22  of   211
     total cpu time spent up to now is       51.6 secs

     Computing kpt #:    23  of   211
     total cpu time spent up to now is       53.8 secs

     Computing kpt #:    24  of   211
     total cpu time spent up to now is       56.1 secs

     Computing kpt #:    25  of   211
     total cpu time spent up to now is       58.6 secs

     Computing kpt #:    26  of   211
     total cpu time spent up to now is       60.9 secs

     Computing kpt #:    27  of   211
     total cpu time spent up to now is       63.1 secs

     Computing kpt #:    28  of   211
     total cpu time spent up to now is       65.4 secs

     Computing kpt #:    29  of   211
     total cpu time spent up to now is       67.7 secs

     Computing kpt #:    30  of   211
     total cpu time spent up to now is       70.1 secs

     Computing kpt #:    31  of   211
     total cpu time spent up to now is       72.6 secs

     Computing kpt #:    32  of   211
     total cpu time spent up to now is       75.0 secs

     Computing kpt #:    33  of   211
     total cpu time spent up to now is       77.4 secs

     Computing kpt #:    34  of   211
     total cpu time spent up to now is       79.6 secs

     Computing kpt #:    35  of   211
     total cpu time spent up to now is       81.9 secs

     Computing kpt #:    36  of   211
     total cpu time spent up to now is       84.3 secs

     Computing kpt #:    37  of   211
     total cpu time spent up to now is       86.5 secs

     Computing kpt #:    38  of   211
     total cpu time spent up to now is       88.6 secs

     Computing kpt #:    39  of   211
     total cpu time spent up to now is       90.8 secs

     Computing kpt #:    40  of   211
     total cpu time spent up to now is       93.6 secs

     Computing kpt #:    41  of   211
     total cpu time spent up to now is       96.4 secs

     Computing kpt #:    42  of   211
     total cpu time spent up to now is       98.6 secs

     Computing kpt #:    43  of   211
     total cpu time spent up to now is      100.7 secs

     Computing kpt #:    44  of   211
     total cpu time spent up to now is      102.8 secs

     Computing kpt #:    45  of   211
     total cpu time spent up to now is      104.7 secs

     Computing kpt #:    46  of   211
     total cpu time spent up to now is      106.8 secs

     Computing kpt #:    47  of   211
     total cpu time spent up to now is      108.8 secs

     Computing kpt #:    48  of   211
     total cpu time spent up to now is      110.8 secs

     Computing kpt #:    49  of   211
     total cpu time spent up to now is      112.8 secs

     Computing kpt #:    50  of   211
     total cpu time spent up to now is      114.7 secs

     Computing kpt #:    51  of   211
     total cpu time spent up to now is      116.7 secs

     Computing kpt #:    52  of   211
     total cpu time spent up to now is      118.6 secs

     Computing kpt #:    53  of   211
     total cpu time spent up to now is      120.5 secs

     Computing kpt #:    54  of   211
     total cpu time spent up to now is      122.5 secs

     Computing kpt #:    55  of   211
     total cpu time spent up to now is      124.5 secs

     Computing kpt #:    56  of   211
     total cpu time spent up to now is      126.8 secs

     Computing kpt #:    57  of   211
     total cpu time spent up to now is      128.9 secs

     Computing kpt #:    58  of   211
     total cpu time spent up to now is      130.9 secs

     Computing kpt #:    59  of   211
     total cpu time spent up to now is      133.0 secs

     Computing kpt #:    60  of   211
     total cpu time spent up to now is      135.0 secs

     Computing kpt #:    61  of   211
     total cpu time spent up to now is      137.3 secs

     Computing kpt #:    62  of   211
     total cpu time spent up to now is      139.4 secs

     Computing kpt #:    63  of   211
     total cpu time spent up to now is      141.9 secs

     Computing kpt #:    64  of   211
     total cpu time spent up to now is      144.1 secs

     Computing kpt #:    65  of   211
     total cpu time spent up to now is      146.5 secs

     Computing kpt #:    66  of   211
     total cpu time spent up to now is      149.0 secs

     Computing kpt #:    67  of   211
     total cpu time spent up to now is      151.3 secs

     Computing kpt #:    68  of   211
     total cpu time spent up to now is      153.5 secs

     Computing kpt #:    69  of   211
     total cpu time spent up to now is      155.6 secs

     Computing kpt #:    70  of   211
     total cpu time spent up to now is      157.8 secs

     Computing kpt #:    71  of   211
     total cpu time spent up to now is      160.7 secs

     Computing kpt #:    72  of   211
     total cpu time spent up to now is      163.0 secs

     Computing kpt #:    73  of   211
     total cpu time spent up to now is      165.3 secs

     Computing kpt #:    74  of   211
     total cpu time spent up to now is      167.7 secs

     Computing kpt #:    75  of   211
     total cpu time spent up to now is      170.0 secs

     Computing kpt #:    76  of   211
     total cpu time spent up to now is      172.5 secs

     Computing kpt #:    77  of   211
     total cpu time spent up to now is      174.8 secs

     Computing kpt #:    78  of   211
     total cpu time spent up to now is      177.3 secs

     Computing kpt #:    79  of   211
     total cpu time spent up to now is      179.7 secs

     Computing kpt #:    80  of   211
     total cpu time spent up to now is      181.9 secs

     Computing kpt #:    81  of   211
     total cpu time spent up to now is      184.2 secs

     Computing kpt #:    82  of   211
     total cpu time spent up to now is      186.7 secs

     Computing kpt #:    83  of   211
     total cpu time spent up to now is      188.8 secs

     Computing kpt #:    84  of   211
     total cpu time spent up to now is      191.0 secs

     Computing kpt #:    85  of   211
     total cpu time spent up to now is      193.2 secs

     Computing kpt #:    86  of   211
     total cpu time spent up to now is      195.4 secs

     Computing kpt #:    87  of   211
     total cpu time spent up to now is      197.7 secs

     Computing kpt #:    88  of   211
     total cpu time spent up to now is      200.1 secs

     Computing kpt #:    89  of   211
     total cpu time spent up to now is      202.4 secs

     Computing kpt #:    90  of   211
     total cpu time spent up to now is      204.8 secs

     Computing kpt #:    91  of   211
     total cpu time spent up to now is      207.1 secs

     Computing kpt #:    92  of   211
     total cpu time spent up to now is      209.6 secs

     Computing kpt #:    93  of   211
     total cpu time spent up to now is      212.1 secs

     Computing kpt #:    94  of   211
     total cpu time spent up to now is      214.5 secs

     Computing kpt #:    95  of   211
     total cpu time spent up to now is      216.7 secs

     Computing kpt #:    96  of   211
     total cpu time spent up to now is      219.1 secs

     Computing kpt #:    97  of   211
     total cpu time spent up to now is      221.6 secs

     Computing kpt #:    98  of   211
     total cpu time spent up to now is      224.1 secs

     Computing kpt #:    99  of   211
     total cpu time spent up to now is      226.6 secs

     Computing kpt #:   100  of   211
     total cpu time spent up to now is      229.1 secs

     Computing kpt #:   101  of   211
     total cpu time spent up to now is      231.4 secs

     Computing kpt #:   102  of   211
     total cpu time spent up to now is      233.7 secs

     Computing kpt #:   103  of   211
     total cpu time spent up to now is      236.3 secs

     Computing kpt #:   104  of   211
     total cpu time spent up to now is      238.6 secs

     Computing kpt #:   105  of   211
     total cpu time spent up to now is      240.8 secs

     Computing kpt #:   106  of   211
     total cpu time spent up to now is      243.2 secs

     Computing kpt #:   107  of   211
     total cpu time spent up to now is      245.5 secs

     Computing kpt #:   108  of   211
     total cpu time spent up to now is      247.9 secs

     Computing kpt #:   109  of   211
     total cpu time spent up to now is      250.3 secs

     Computing kpt #:   110  of   211
     total cpu time spent up to now is      252.7 secs

     Computing kpt #:   111  of   211
     total cpu time spent up to now is      254.7 secs

     Computing kpt #:   112  of   211
     total cpu time spent up to now is      256.9 secs

     Computing kpt #:   113  of   211
     total cpu time spent up to now is      259.1 secs

     Computing kpt #:   114  of   211
     total cpu time spent up to now is      261.4 secs

     Computing kpt #:   115  of   211
     total cpu time spent up to now is      263.6 secs

     Computing kpt #:   116  of   211
     total cpu time spent up to now is      265.8 secs

     Computing kpt #:   117  of   211
     total cpu time spent up to now is      268.1 secs

     Computing kpt #:   118  of   211
     total cpu time spent up to now is      270.4 secs

     Computing kpt #:   119  of   211
     total cpu time spent up to now is      272.8 secs

     Computing kpt #:   120  of   211
     total cpu time spent up to now is      275.4 secs

     Computing kpt #:   121  of   211
     total cpu time spent up to now is      277.9 secs

     Computing kpt #:   122  of   211
     total cpu time spent up to now is      280.5 secs

     Computing kpt #:   123  of   211
     total cpu time spent up to now is      283.2 secs

     Computing kpt #:   124  of   211
     total cpu time spent up to now is      286.5 secs

     Computing kpt #:   125  of   211
     total cpu time spent up to now is      289.3 secs

     Computing kpt #:   126  of   211
     total cpu time spent up to now is      291.8 secs

     Computing kpt #:   127  of   211
     total cpu time spent up to now is      294.4 secs

     Computing kpt #:   128  of   211
     total cpu time spent up to now is      296.9 secs

     Computing kpt #:   129  of   211
     total cpu time spent up to now is      299.4 secs

     Computing kpt #:   130  of   211
     total cpu time spent up to now is      302.0 secs

     Computing kpt #:   131  of   211
     total cpu time spent up to now is      304.5 secs

     Computing kpt #:   132  of   211
     total cpu time spent up to now is      307.0 secs

     Computing kpt #:   133  of   211
     total cpu time spent up to now is      309.6 secs

     Computing kpt #:   134  of   211
     total cpu time spent up to now is      312.2 secs

     Computing kpt #:   135  of   211
     total cpu time spent up to now is      314.8 secs

     Computing kpt #:   136  of   211
     total cpu time spent up to now is      317.5 secs

     Computing kpt #:   137  of   211
     total cpu time spent up to now is      320.0 secs

     Computing kpt #:   138  of   211
     total cpu time spent up to now is      322.6 secs

     Computing kpt #:   139  of   211
     total cpu time spent up to now is      325.1 secs

     Computing kpt #:   140  of   211
     total cpu time spent up to now is      327.6 secs

     Computing kpt #:   141  of   211
     total cpu time spent up to now is      330.1 secs

     Computing kpt #:   142  of   211
     total cpu time spent up to now is      332.6 secs

     Computing kpt #:   143  of   211
     total cpu time spent up to now is      335.2 secs

     Computing kpt #:   144  of   211
     total cpu time spent up to now is      337.7 secs

     Computing kpt #:   145  of   211
     total cpu time spent up to now is      340.2 secs

     Computing kpt #:   146  of   211
     total cpu time spent up to now is      342.5 secs

     Computing kpt #:   147  of   211
     total cpu time spent up to now is      344.9 secs

     Computing kpt #:   148  of   211
     total cpu time spent up to now is      347.3 secs

     Computing kpt #:   149  of   211
     total cpu time spent up to now is      349.7 secs

     Computing kpt #:   150  of   211
     total cpu time spent up to now is      352.1 secs

     Computing kpt #:   151  of   211
     total cpu time spent up to now is      354.5 secs

     Computing kpt #:   152  of   211
     total cpu time spent up to now is      356.9 secs

     Computing kpt #:   153  of   211
     total cpu time spent up to now is      359.2 secs

     Computing kpt #:   154  of   211
     total cpu time spent up to now is      361.7 secs

     Computing kpt #:   155  of   211
     total cpu time spent up to now is      364.2 secs

     Computing kpt #:   156  of   211
     total cpu time spent up to now is      366.6 secs

     Computing kpt #:   157  of   211
     total cpu time spent up to now is      368.9 secs

     Computing kpt #:   158  of   211
     total cpu time spent up to now is      371.2 secs

     Computing kpt #:   159  of   211
     total cpu time spent up to now is      373.5 secs

     Computing kpt #:   160  of   211
     total cpu time spent up to now is      375.8 secs

     Computing kpt #:   161  of   211
     total cpu time spent up to now is      378.3 secs

     Computing kpt #:   162  of   211
     total cpu time spent up to now is      380.8 secs

     Computing kpt #:   163  of   211
     total cpu time spent up to now is      383.1 secs

     Computing kpt #:   164  of   211
     total cpu time spent up to now is      385.2 secs

     Computing kpt #:   165  of   211
     total cpu time spent up to now is      387.4 secs

     Computing kpt #:   166  of   211
     total cpu time spent up to now is      389.9 secs

     Computing kpt #:   167  of   211
     total cpu time spent up to now is      392.3 secs

     Computing kpt #:   168  of   211
     total cpu time spent up to now is      394.8 secs

     Computing kpt #:   169  of   211
     total cpu time spent up to now is      397.0 secs

     Computing kpt #:   170  of   211
     total cpu time spent up to now is      399.2 secs

     Computing kpt #:   171  of   211
     total cpu time spent up to now is      401.5 secs

     Computing kpt #:   172  of   211
     total cpu time spent up to now is      403.5 secs

     Computing kpt #:   173  of   211
     total cpu time spent up to now is      405.7 secs

     Computing kpt #:   174  of   211
     total cpu time spent up to now is      407.8 secs

     Computing kpt #:   175  of   211
     total cpu time spent up to now is      410.0 secs

     Computing kpt #:   176  of   211
     total cpu time spent up to now is      412.0 secs

     Computing kpt #:   177  of   211
     total cpu time spent up to now is      414.1 secs

     Computing kpt #:   178  of   211
     total cpu time spent up to now is      416.3 secs

     Computing kpt #:   179  of   211
     total cpu time spent up to now is      418.5 secs

     Computing kpt #:   180  of   211
     total cpu time spent up to now is      420.9 secs

     Computing kpt #:   181  of   211
     total cpu time spent up to now is      423.7 secs

     Computing kpt #:   182  of   211
     total cpu time spent up to now is      426.4 secs

     Computing kpt #:   183  of   211
     total cpu time spent up to now is      428.9 secs

     Computing kpt #:   184  of   211
     total cpu time spent up to now is      431.4 secs

     Computing kpt #:   185  of   211
     total cpu time spent up to now is      433.8 secs

     Computing kpt #:   186  of   211
     total cpu time spent up to now is      436.1 secs

     Computing kpt #:   187  of   211
     total cpu time spent up to now is      438.6 secs

     Computing kpt #:   188  of   211
     total cpu time spent up to now is      440.9 secs

     Computing kpt #:   189  of   211
     total cpu time spent up to now is      443.2 secs

     Computing kpt #:   190  of   211
     total cpu time spent up to now is      445.4 secs

     Computing kpt #:   191  of   211
     total cpu time spent up to now is      447.7 secs

     Computing kpt #:   192  of   211
     total cpu time spent up to now is      450.0 secs

     Computing kpt #:   193  of   211
     total cpu time spent up to now is      452.6 secs

     Computing kpt #:   194  of   211
     total cpu time spent up to now is      454.9 secs

     Computing kpt #:   195  of   211
     total cpu time spent up to now is      457.1 secs

     Computing kpt #:   196  of   211
     total cpu time spent up to now is      459.3 secs

     Computing kpt #:   197  of   211
     total cpu time spent up to now is      461.5 secs

     Computing kpt #:   198  of   211
     total cpu time spent up to now is      463.8 secs

     Computing kpt #:   199  of   211
     total cpu time spent up to now is      466.0 secs

     Computing kpt #:   200  of   211
     total cpu time spent up to now is      468.6 secs

     Computing kpt #:   201  of   211
     total cpu time spent up to now is      470.9 secs

     Computing kpt #:   202  of   211
     total cpu time spent up to now is      473.4 secs

     Computing kpt #:   203  of   211
     total cpu time spent up to now is      475.6 secs

     Computing kpt #:   204  of   211
     total cpu time spent up to now is      478.0 secs

     Computing kpt #:   205  of   211
     total cpu time spent up to now is      480.4 secs

     Computing kpt #:   206  of   211
     total cpu time spent up to now is      482.6 secs

     Computing kpt #:   207  of   211
     total cpu time spent up to now is      485.1 secs

     Computing kpt #:   208  of   211
     total cpu time spent up to now is      487.7 secs

     Computing kpt #:   209  of   211
     total cpu time spent up to now is      490.1 secs

     Computing kpt #:   210  of   211
     c_bands:  1 eigenvalues not converged
     total cpu time spent up to now is      493.5 secs

     Computing kpt #:   211  of   211
     total cpu time spent up to now is      496.0 secs

     ethr =  1.28E-10,  avg # of iterations = 58.9

     total cpu time spent up to now is      496.0 secs

     End of band structure calculation

          k = 0.0000 0.0000 0.0000 ( 14817 PWs)   bands (ev):

   -34.7731 -34.7727 -34.7660 -34.7657 -34.7414 -34.7361 -34.7342 -34.7293
   -34.7266 -34.7197 -34.6669 -34.6610 -34.6505 -34.6226 -34.6217 -27.5484
   -27.5478 -27.5439 -27.5433 -27.5407 -27.5370 -27.5362 -27.5350 -27.5325
   -27.5305 -10.7041 -10.1663  -9.0903  -6.3490  -4.9854  -0.2167  -0.0202
     0.2060   0.2193   0.3881   0.7126   0.8134   0.9541   1.1790   2.1346
     2.6654   2.7718   3.5797   3.7805   3.8451   6.1598   6.3478   6.9458
     7.3621   7.5385   7.7844   8.3283   8.5350   8.6746   8.6963   9.1244
     9.4812   9.6308   9.9708  10.0507  10.4700  10.9119  11.3157  11.3983
    11.4333  11.6327  12.7756  12.8019  13.7252  14.0032  14.1162  14.1705
    14.3655  15.0019  15.5685  15.9117  15.9394  15.9967  16.1482  16.2927
    16.6118  16.9008  16.9184  16.9605  17.2126  17.2131  17.2837  17.3018
    17.5019  17.5066  17.6077  17.7561  17.8028  18.0597  18.8163  18.8739
    18.9576  19.1720  19.1742  19.2583

          k = 0.0071 0.0041 0.0000 ( 14809 PWs)   bands (ev):

   -34.7731 -34.7727 -34.7660 -34.7657 -34.7414 -34.7361 -34.7342 -34.7293
   -34.7266 -34.7197 -34.6669 -34.6610 -34.6505 -34.6226 -34.6217 -27.5484
   -27.5478 -27.5439 -27.5433 -27.5407 -27.5370 -27.5362 -27.5350 -27.5325
   -27.5305 -10.7037 -10.1660  -9.0901  -6.3491  -4.9862  -0.2181  -0.0255
     0.1935   0.2263   0.3871   0.7134   0.8133   0.9551   1.1825   2.1409
     2.6617   2.7719   3.5844   3.7807   3.8450   6.1606   6.3479   6.9459
     7.3596   7.5384   7.7846   8.3311   8.5332   8.6709   8.6992   9.1231
     9.4875   9.6331   9.9689  10.0528  10.4719  10.9122  11.3101  11.3551
    11.4796  11.6396  12.7735  12.8041  13.7138  14.0064  14.1004  14.1910
    14.3690  15.0041  15.5468  15.8843  15.9821  15.9874  16.1605  16.2938
    16.6116  16.7977  16.9329  17.0189  17.1713  17.1964  17.3015  17.3582
    17.4779  17.5253  17.6126  17.7708  17.8076  18.0710  18.7441  18.8501
    19.0047  19.1403  19.2011  19.2646

          k = 0.0143 0.0082 0.0000 ( 14816 PWs)   bands (ev):

   -34.7731 -34.7727 -34.7660 -34.7657 -34.7414 -34.7361 -34.7342 -34.7293
   -34.7266 -34.7197 -34.6669 -34.6610 -34.6505 -34.6226 -34.6217 -27.5484
   -27.5478 -27.5439 -27.5433 -27.5407 -27.5370 -27.5362 -27.5350 -27.5325
   -27.5305 -10.7024 -10.1648  -9.0894  -6.3493  -4.9886  -0.2226  -0.0415
     0.1729   0.2311   0.3845   0.7141   0.8141   0.9582   1.1934   2.1593
     2.6506   2.7724   3.5978   3.7812   3.8450   6.1629   6.3483   6.9463
     7.3522   7.5382   7.7854   8.3393   8.5280   8.6605   8.7075   9.1193
     9.5055   9.6396   9.9634  10.0591  10.4778  10.9127  11.2906  11.3066
    11.5418  11.6589  12.7684  12.8095  13.6837  14.0019  14.0895  14.2249
    14.3806  15.0087  15.4950  15.8508  15.9661  16.0501  16.1866  16.2987
    16.6057  16.6981  16.8569  17.0938  17.1277  17.2001  17.3165  17.3960
    17.5019  17.5476  17.6212  17.8052  17.8316  18.1007  18.6372  18.7638
    19.0336  19.1459  19.2323  19.2534

          k = 0.0214 0.0124 0.0000 ( 14812 PWs)   bands (ev):

   -34.7731 -34.7727 -34.7660 -34.7657 -34.7414 -34.7361 -34.7342 -34.7293
   -34.7266 -34.7197 -34.6669 -34.6610 -34.6505 -34.6226 -34.6217 -27.5484
   -27.5478 -27.5439 -27.5433 -27.5407 -27.5370 -27.5362 -27.5350 -27.5325
   -27.5305 -10.7003 -10.1629  -9.0883  -6.3498  -4.9927  -0.2305  -0.0675
     0.1502   0.2290   0.3808   0.7089   0.8201   0.9629   1.2120   2.1888
     2.6323   2.7743   3.6188   3.7814   3.8458   6.1667   6.3488   6.9469
     7.3402   7.5380   7.7870   8.3523   8.5190   8.6458   8.7207   9.1139
     9.5330   9.6502   9.9549  10.0697  10.4878  10.9122  11.2478  11.2798
    11.6060  11.6878  12.7616  12.8168  13.6426  13.9750  14.1032  14.2586
    14.4019  15.0096  15.4367  15.8140  15.9400  16.1230  16.2060  16.3145
    16.5552  16.6569  16.7554  17.0749  17.1060  17.2831  17.3033  17.3748
    17.5668  17.5882  17.6515  17.8531  17.8790  18.1398  18.5327  18.6567
    18.9837  19.1899  19.2110  19.2949

          k = 0.0286 0.0165 0.0000 ( 14806 PWs)   bands (ev):

   -34.7731 -34.7727 -34.7660 -34.7657 -34.7414 -34.7361 -34.7342 -34.7293
   -34.7266 -34.7197 -34.6669 -34.6610 -34.6505 -34.6226 -34.6217 -27.5484
   -27.5478 -27.5439 -27.5433 -27.5407 -27.5370 -27.5362 -27.5350 -27.5325
   -27.5305 -10.6974 -10.1602  -9.0867  -6.3504  -4.9984  -0.2422  -0.1025
     0.1272   0.2202   0.3766   0.6924   0.8351   0.9689   1.2383   2.2280
     2.6078   2.7783   3.6452   3.7809   3.8491   6.1721   6.3496   6.9474
     7.3239   7.5379   7.7898   8.3690   8.5057   8.6298   8.7380   9.1075
     9.5666   9.6642   9.9449  10.0846  10.5022  10.9085  11.2055  11.2562
    11.6711  11.7234  12.7536  12.8256  13.5963  13.9377  14.1248  14.2920
    14.4329  14.9964  15.3922  15.7739  15.9094  16.1883  16.2019  16.3468
    16.4770  16.6422  16.6740  17.0215  17.0983  17.2682  17.3272  17.4067
    17.5751  17.6435  17.7461  17.9188  17.9351  18.1760  18.4454  18.5425
    18.9229  19.1435  19.2235  19.3226

          k = 0.0357 0.0206 0.0000 ( 14800 PWs)   bands (ev):

   -34.7731 -34.7727 -34.7660 -34.7657 -34.7414 -34.7361 -34.7342 -34.7293
   -34.7266 -34.7196 -34.6669 -34.6610 -34.6505 -34.6226 -34.6217 -27.5484
   -27.5478 -27.5438 -27.5433 -27.5407 -27.5370 -27.5362 -27.5350 -27.5325
   -27.5305 -10.6936 -10.1568  -9.0846  -6.3512  -5.0056  -0.2590  -0.1439
     0.1047   0.2058   0.3719   0.6641   0.8590   0.9760   1.2709   2.2753
     2.5787   2.7844   3.6740   3.7795   3.8563   6.1789   6.3505   6.9477
     7.3040   7.5381   7.7942   8.3879   8.4880   8.6158   8.7588   9.1009
     9.6027   9.6811   9.9354  10.1041  10.5213  10.8990  11.1712  11.2329
    11.7361  11.7638  12.7446  12.8356  13.5483  13.8979  14.1432  14.3281
    14.4703  14.9596  15.3752  15.7322  15.8721  16.1640  16.2409  16.3815
    16.4224  16.5454  16.7023  16.9716  17.0777  17.2265  17.3052  17.5039
    17.5660  17.7206  17.8460  17.9830  18.0047  18.1926  18.3995  18.4286
    18.8614  19.0941  19.1984  19.2992

          k = 0.0429 0.0247 0.0000 ( 14804 PWs)   bands (ev):

   -34.7731 -34.7727 -34.7660 -34.7657 -34.7414 -34.7361 -34.7342 -34.7293
   -34.7266 -34.7196 -34.6669 -34.6610 -34.6505 -34.6226 -34.6217 -27.5484
   -27.5478 -27.5438 -27.5433 -27.5407 -27.5370 -27.5362 -27.5350 -27.5325
   -27.5305 -10.6890 -10.1526  -9.0822  -6.3523  -5.0145  -0.2832  -0.1880
     0.0829   0.1874   0.3665   0.6264   0.8893   0.9842   1.3080   2.3290
     2.5470   2.7928   3.7006   3.7792   3.8692   6.1871   6.3515   6.9473
     7.2814   7.5385   7.8005   8.4053   8.4686   8.6055   8.7825   9.0947
     9.6365   9.7001   9.9299  10.1282  10.5453  10.8818  11.1463  11.2120
    11.7988  11.8092  12.7344  12.8470  13.5010  13.8581  14.1566  14.3678
    14.5094  14.9014  15.3861  15.6903  15.8258  16.1033  16.2693  16.3389
    16.4484  16.4835  16.7444  16.9308  17.0451  17.1824  17.2794  17.5664
    17.5988  17.8057  17.9225  18.0076  18.1061  18.2046  18.3070  18.4215
    18.8006  19.0450  19.1596  19.2549

          k = 0.0500 0.0289 0.0000 ( 14805 PWs)   bands (ev):

   -34.7731 -34.7727 -34.7660 -34.7657 -34.7414 -34.7361 -34.7342 -34.7293
   -34.7266 -34.7196 -34.6669 -34.6610 -34.6505 -34.6226 -34.6217 -27.5483
   -27.5478 -27.5438 -27.5433 -27.5407 -27.5370 -27.5362 -27.5350 -27.5325
   -27.5305 -10.6835 -10.1476  -9.0792  -6.3535  -5.0250  -0.3187  -0.2295
     0.0619   0.1661   0.3599   0.5819   0.9237   0.9934   1.3474   2.3872
     2.5154   2.8032   3.7172   3.7853   3.8890   6.1967   6.3527   6.9457
     7.2574   7.5393   7.8087   8.4085   8.4606   8.5994   8.8086   9.0894
     9.6619   9.7217   9.9329  10.1567  10.5745  10.8568  11.1291  11.1958
    11.8497  11.8673  12.7233  12.8598  13.4559  13.8191  14.1665  14.4092
    14.5431  14.8360  15.4144  15.6485  15.7693  16.0337  16.2352  16.2979
    16.4630  16.5006  16.7802  16.9143  17.0048  17.1399  17.2488  17.5808
    17.6837  17.8774  17.9310  18.0532  18.1922  18.2214  18.2557  18.4713
    18.7415  18.9978  19.1162  19.2059

          k = 0.0571 0.0330 0.0000 ( 14805 PWs)   bands (ev):

   -34.7730 -34.7727 -34.7660 -34.7657 -34.7414 -34.7361 -34.7342 -34.7293
   -34.7266 -34.7196 -34.6669 -34.6610 -34.6505 -34.6226 -34.6217 -27.5483
   -27.5478 -27.5438 -27.5433 -27.5407 -27.5371 -27.5362 -27.5350 -27.5326
   -27.5305 -10.6772 -10.1419  -9.0759  -6.3550  -5.0371  -0.3675  -0.2648
     0.0412   0.1430   0.3521   0.5329   0.9596   1.0046   1.3866   2.4438
     2.4903   2.8156   3.7193   3.8009   3.9166   6.2077   6.3538   6.9423
     7.2334   7.5404   7.8189   8.3881   8.4746   8.5965   8.8367   9.0853
     9.6730   9.7466   9.9485  10.1892  10.6088  10.8263  11.1159  11.1867
    11.8965  11.9287  12.7115  12.8739  13.4145  13.7814  14.1745  14.4479
    14.5578  14.7863  15.4463  15.6057  15.7065  15.9675  16.1386  16.3032
    16.4666  16.5427  16.7850  16.9357  16.9675  17.1035  17.2141  17.5973
    17.7515  17.8538  17.9774  18.1047  18.1274  18.3267  18.3432  18.5338
    18.6857  18.9541  19.0728  19.1569

          k = 0.0643 0.0371 0.0000 ( 14811 PWs)   bands (ev):

   -34.7730 -34.7727 -34.7660 -34.7657 -34.7414 -34.7361 -34.7342 -34.7293
   -34.7266 -34.7196 -34.6669 -34.6610 -34.6505 -34.6226 -34.6217 -27.5483
   -27.5478 -27.5438 -27.5433 -27.5406 -27.5371 -27.5362 -27.5350 -27.5326
   -27.5305 -10.6701 -10.1354  -9.0721  -6.3567  -5.0508  -0.4265  -0.2958
     0.0206   0.1187   0.3430   0.4813   0.9913   1.0223   1.4233   2.4482
     2.5234   2.8299   3.7123   3.8208   3.9514   6.2199   6.3548   6.9361
     7.2109   7.5418   7.8311   8.3596   8.4961   8.5958   8.8666   9.0831
     9.6699   9.7739   9.9770  10.2250  10.6485  10.7931  11.1039  11.1853
    11.9434  11.9882  12.6992  12.8893  13.3779  13.7455  14.1804  14.4704
    14.5457  14.7778  15.4589  15.5632  15.6500  15.9102  16.0453  16.3081
    16.4738  16.5697  16.7782  16.9099  16.9887  17.0840  17.1837  17.5848
    17.7786  17.8560  17.9485  18.1317  18.2025  18.4184  18.4524  18.5946
    18.6425  18.9163  19.0336  19.1115

          k = 0.0714 0.0412 0.0000 ( 14813 PWs)   bands (ev):

   -34.7730 -34.7727 -34.7660 -34.7657 -34.7414 -34.7361 -34.7342 -34.7293
   -34.7266 -34.7196 -34.6669 -34.6610 -34.6506 -34.6226 -34.6217 -27.5483
   -27.5478 -27.5438 -27.5433 -27.5406 -27.5371 -27.5362 -27.5350 -27.5326
   -27.5305 -10.6621 -10.1282  -9.0678  -6.3587  -5.0661  -0.4915  -0.3255
    -0.0006   0.0934   0.3325   0.4287   1.0101   1.0544   1.4549   2.4282
     2.5877   2.8460   3.7016   3.8410   3.9915   6.2333   6.3555   6.9263
     7.1916   7.5435   7.8452   8.3301   8.5189   8.5964   8.8979   9.0832
     9.6570   9.8020  10.0158  10.2627  10.6934  10.7601  11.0929  11.1899
    11.9898  12.0445  12.6873  12.9056  13.3473  13.7116  14.1802  14.4421
    14.5522  14.8053  15.4150  15.5327  15.6154  15.8622  15.9718  16.3100
    16.4817  16.5729  16.7792  16.8728  16.9934  17.0796  17.1857  17.5268
    17.7963  17.8144  17.9690  18.2138  18.2759  18.4954  18.5506  18.5948
    18.6826  18.8871  19.0028  19.0776

          k = 0.0786 0.0454 0.0000 ( 14807 PWs)   bands (ev):

   -34.7730 -34.7727 -34.7660 -34.7657 -34.7414 -34.7361 -34.7342 -34.7293
   -34.7266 -34.7196 -34.6669 -34.6610 -34.6506 -34.6226 -34.6217 -27.5483
   -27.5478 -27.5437 -27.5433 -27.5406 -27.5371 -27.5361 -27.5350 -27.5326
   -27.5305 -10.6533 -10.1202  -9.0632  -6.3609  -5.0830  -0.5600  -0.3552
    -0.0230   0.0669   0.3206   0.3771   1.0220   1.0942   1.4793   2.4136
     2.6542   2.8640   3.6899   3.8610   4.0350   6.2478   6.3559   6.9122
     7.1768   7.5455   7.8612   8.3018   8.5413   8.5972   8.9302   9.0864
     9.6386   9.8300  10.0613  10.3006  10.7300  10.7437  11.0843  11.1984
    12.0351  12.0967  12.6765  12.9224  13.3238  13.6801  14.1625  14.3959
    14.5754  14.8491  15.3289  15.4908  15.6007  15.8157  15.9390  16.3064
    16.4895  16.5572  16.7686  16.8584  16.9795  17.0586  17.2252  17.4606
    17.6909  17.8732  18.0362  18.2981  18.3417  18.4982  18.6252  18.6388
    18.7522  18.8698  18.9785  19.0790

          k = 0.0857 0.0495 0.0000 ( 14808 PWs)   bands (ev):

   -34.7730 -34.7727 -34.7660 -34.7657 -34.7414 -34.7361 -34.7342 -34.7293
   -34.7266 -34.7196 -34.6669 -34.6610 -34.6506 -34.6225 -34.6217 -27.5482
   -27.5478 -27.5437 -27.5433 -27.5406 -27.5371 -27.5361 -27.5350 -27.5326
   -27.5305 -10.6437 -10.1114  -9.0581  -6.3635  -5.1014  -0.6308  -0.3855
    -0.0469   0.0383   0.3074   0.3284   1.0319   1.1360   1.4945   2.4077
     2.7197   2.8843   3.6788   3.8811   4.0802   6.2633   6.3558   6.8939
     7.1671   7.5478   7.8790   8.2758   8.5628   8.5975   8.9626   9.0934
     9.6181   9.8575  10.1108  10.3363  10.7055  10.7987  11.0794  11.2089
    12.0782  12.1442  12.6680  12.9391  13.3083  13.6516  14.1138  14.3746
    14.5956  14.8987  15.2293  15.4232  15.5935  15.7646  15.9527  16.2952
    16.4914  16.5395  16.7332  16.8641  16.9569  17.0488  17.2350  17.4401
    17.5812  17.9438  18.1072  18.3706  18.3871  18.4861  18.6603  18.6970
    18.8249  18.8769  18.9615  19.1369

          k = 0.0929 0.0536 0.0000 ( 14807 PWs)   bands (ev):

   -34.7730 -34.7727 -34.7660 -34.7657 -34.7414 -34.7361 -34.7342 -34.7293
   -34.7266 -34.7196 -34.6669 -34.6610 -34.6506 -34.6225 -34.6217 -27.5482
   -27.5478 -27.5437 -27.5433 -27.5406 -27.5372 -27.5361 -27.5350 -27.5326
   -27.5305 -10.6333 -10.1020  -9.0527  -6.3664  -5.1213  -0.7029  -0.4163
    -0.0724   0.0060   0.2841   0.2936   1.0410   1.1783   1.4993   2.4117
     2.7821   2.9074   3.6697   3.9017   4.1258   6.2796   6.3548   6.8721
     7.1625   7.5506   7.8985   8.2527   8.5824   8.5973   8.9940   9.1055
     9.5977   9.8839  10.1625  10.3666  10.6900  10.8580  11.0795  11.2207
    12.1175  12.1867  12.6631  12.9553  13.3015  13.6264  14.0379  14.3823
    14.6087  14.9459  15.1297  15.3362  15.5919  15.7144  15.9943  16.2753
    16.4709  16.5429  16.6891  16.8614  16.9200  17.0687  17.1941  17.4656
    17.4931  18.0189  18.1744  18.3645  18.4471  18.5180  18.6849  18.7049
    18.8514  18.9378  18.9968  19.2356

          k = 0.1000 0.0577 0.0000 ( 14795 PWs)   bands (ev):

   -34.7730 -34.7727 -34.7660 -34.7657 -34.7414 -34.7361 -34.7342 -34.7293
   -34.7266 -34.7196 -34.6669 -34.6610 -34.6506 -34.6225 -34.6217 -27.5482
   -27.5478 -27.5437 -27.5433 -27.5406 -27.5372 -27.5361 -27.5350 -27.5327
   -27.5305 -10.6220 -10.0918  -9.0468  -6.3696  -5.1427  -0.7758  -0.4475
    -0.0996  -0.0314   0.2469   0.2783   1.0494   1.2205   1.4932   2.4259
     2.8389   2.9346   3.6640   3.9231   4.1711   6.2965   6.3529   6.8482
     7.1625   7.5540   7.9197   8.2330   8.5888   8.6069   9.0230   9.1243
     9.5789   9.9091  10.2147  10.3887  10.6871  10.9201  11.0861  11.2334
    12.1509  12.2247  12.6630  12.9708  13.3030  13.6051  13.9490  14.4078
    14.6136  14.9555  15.0649  15.2401  15.5931  15.6715  16.0481  16.2473
    16.4350  16.5614  16.6440  16.8401  16.8729  17.0944  17.1668  17.3645
    17.5602  18.0926  18.2264  18.3401  18.4873  18.5711  18.6863  18.7211
    18.8409  19.0092  19.1026  19.3542

          k = 0.1071 0.0619 0.0000 ( 14799 PWs)   bands (ev):

   -34.7730 -34.7727 -34.7660 -34.7656 -34.7414 -34.7361 -34.7342 -34.7293
   -34.7266 -34.7196 -34.6669 -34.6610 -34.6506 -34.6225 -34.6217 -27.5482
   -27.5478 -27.5436 -27.5432 -27.5406 -27.5372 -27.5361 -27.5350 -27.5327
   -27.5305 -10.6099 -10.0809  -9.0406  -6.3732  -5.1657  -0.8491  -0.4788
    -0.1282  -0.0747   0.2170   0.2624   1.0571   1.2622   1.4768   2.4493
     2.8868   2.9675   3.6632   3.9453   4.2155   6.3129   6.3504   6.8237
     7.1662   7.5581   7.9424   8.2170   8.5827   8.6254   9.0486   9.1504
     9.5628   9.9325  10.2649  10.4022  10.6987  10.9819  11.1015  11.2475
    12.1761  12.2594  12.6683  12.9862  13.3112  13.5885  13.8564  14.4439
    14.6105  14.8755  15.0683  15.1603  15.5799  15.6527  16.1060  16.2132
    16.3934  16.5747  16.6072  16.8032  16.8137  17.0964  17.1970  17.2679
    17.6370  18.1554  18.2376  18.3449  18.5087  18.6115  18.6747  18.7715
    18.8416  19.0848  19.2293  19.4772

          k = 0.1143 0.0660 0.0000 ( 14798 PWs)   bands (ev):

   -34.7730 -34.7727 -34.7660 -34.7656 -34.7414 -34.7361 -34.7342 -34.7293
   -34.7265 -34.7196 -34.6669 -34.6610 -34.6506 -34.6225 -34.6217 -27.5481
   -27.5478 -27.5436 -27.5432 -27.5406 -27.5372 -27.5361 -27.5350 -27.5327
   -27.5305 -10.5970 -10.0692  -9.0340  -6.3772  -5.1901  -0.9225  -0.5101
    -0.1579  -0.1237   0.1938   0.2462   1.0640   1.3031   1.4514   2.4804
     2.9249   3.0054   3.6689   3.9684   4.2586   6.3245   6.3511   6.8003
     7.1728   7.5631   7.9666   8.2049   8.5723   8.6441   9.0713   9.1829
     9.5503   9.9541  10.3082  10.4123  10.7243  11.0376  11.1305  11.2642
    12.1915  12.2918  12.6790  13.0024  13.3226  13.5773  13.7666  14.4871
    14.6000  14.7718  14.9987  15.1760  15.5429  15.6658  16.1625  16.1756
    16.3485  16.5433  16.6044  16.7428  16.7700  17.0883  17.1866  17.2623
    17.7128  18.1762  18.2380  18.3663  18.5278  18.6154  18.6913  18.8295
    18.8791  19.1624  19.3614  19.5475

          k = 0.1214 0.0701 0.0000 ( 14807 PWs)   bands (ev):

   -34.7730 -34.7726 -34.7660 -34.7656 -34.7414 -34.7361 -34.7342 -34.7293
   -34.7265 -34.7196 -34.6669 -34.6610 -34.6506 -34.6225 -34.6217 -27.5481
   -27.5478 -27.5436 -27.5432 -27.5406 -27.5373 -27.5361 -27.5350 -27.5327
   -27.5305 -10.5833 -10.0569  -9.0271  -6.3816  -5.2160  -0.9958  -0.5412
    -0.1891  -0.1769   0.1761   0.2300   1.0702   1.3428   1.4184   2.5174
     2.9561   3.0442   3.6826   3.9926   4.3001   6.3229   6.3628   6.7792
     7.1819   7.5692   7.9924   8.1967   8.5584   8.6624   9.0930   9.2195
     9.5421   9.9736  10.3348  10.4312  10.7607  11.0812  11.1760  11.2868
    12.1976  12.3219  12.6944  13.0208  13.3300  13.5723  13.6866  14.5349
    14.5832  14.6660  14.8942  15.2302  15.4985  15.6928  16.1328  16.2163
    16.3035  16.4984  16.5728  16.6844  16.7591  17.0272  17.1928  17.3228
    17.7843  18.1479  18.2544  18.3764  18.5283  18.6380  18.7175  18.8994
    18.9427  19.2371  19.4754  19.4947

          k = 0.1286 0.0742 0.0000 ( 14804 PWs)   bands (ev):

   -34.7730 -34.7726 -34.7659 -34.7656 -34.7414 -34.7361 -34.7342 -34.7293
   -34.7265 -34.7196 -34.6668 -34.6610 -34.6506 -34.6225 -34.6217 -27.5481
   -27.5478 -27.5436 -27.5432 -27.5405 -27.5373 -27.5361 -27.5350 -27.5328
   -27.5305 -10.5688 -10.0438  -9.0198  -6.3865  -5.2432  -1.0687  -0.5718
    -0.2359  -0.2185   0.1616   0.2147   1.0756   1.3782   1.3824   2.5581
     2.9838   3.0797   3.7053   4.0178   4.3399   6.3121   6.3809   6.7617
     7.1929   7.5765   8.0195   8.1926   8.5411   8.6803   9.1150   9.2578
     9.5387   9.9910  10.3413  10.4647  10.8050  11.1171  11.2270  11.3219
    12.1960  12.3490  12.7131  13.0423  13.3215  13.5729  13.6289  14.5478
    14.5699  14.5898  14.7876  15.2897  15.4529  15.7255  16.0897  16.2314
    16.2882  16.4472  16.5067  16.6335  16.7818  16.9437  17.2423  17.3855
    17.8483  18.1127  18.2539  18.3738  18.5048  18.6892  18.7651  18.9770
    19.0144  19.2848  19.4065  19.6090

          k = 0.1357 0.0784 0.0000 ( 14804 PWs)   bands (ev):

   -34.7730 -34.7726 -34.7659 -34.7656 -34.7414 -34.7361 -34.7342 -34.7293
   -34.7265 -34.7196 -34.6668 -34.6610 -34.6506 -34.6225 -34.6217 -27.5481
   -27.5477 -27.5436 -27.5432 -27.5405 -27.5373 -27.5360 -27.5350 -27.5328
   -27.5305 -10.5535 -10.0300  -9.0122  -6.3920  -5.2719  -1.1411  -0.6019
    -0.2951  -0.2505   0.1482   0.2013   1.0802   1.3356   1.4180   2.6006
     3.0096   3.1105   3.7370   4.0440   4.3780   6.2960   6.4010   6.7487
     7.2055   7.5853   8.0480   8.1926   8.5210   8.6975   9.1384   9.2959
     9.5406  10.0063  10.3381  10.5041  10.8547  11.1526  11.2703  11.3762
    12.1887  12.3723  12.7338  13.0676  13.2851  13.5744  13.6097  14.4542
    14.5358  14.6255  14.6985  15.3493  15.4083  15.7605  16.0458  16.1856
    16.3155  16.3834  16.4531  16.5825  16.8075  16.8752  17.3092  17.4462
    17.8992  18.0825  18.2389  18.3627  18.4725  18.7489  18.8361  19.0510
    19.0847  19.2391  19.4271  19.5584

          k = 0.1429 0.0825 0.0000 ( 14802 PWs)   bands (ev):

   -34.7729 -34.7726 -34.7659 -34.7656 -34.7414 -34.7361 -34.7342 -34.7293
   -34.7265 -34.7196 -34.6668 -34.6610 -34.6506 -34.6225 -34.6217 -27.5480
   -27.5477 -27.5435 -27.5432 -27.5405 -27.5373 -27.5360 -27.5350 -27.5328
[...]
     9.7218   9.9965  10.2600  10.6757  10.9243  11.0176  11.2218  11.5198
    12.3703  12.4196  12.8113  13.0205  13.3069  13.5005  13.6944  14.1357
    14.6998  14.7600  14.9525  15.1280  15.2486  15.4035  15.6661  16.3017
    16.4157  16.4705  16.6876  16.8537  16.9587  17.1747  17.2713  17.4929
    17.5255  17.6669  17.7477  17.8302  18.3872  19.0596  19.1771  19.2994
    19.3305  19.4876  19.5253  19.6568

          k = 0.0762 0.1346 0.0000 ( 14827 PWs)   bands (ev):

   -34.7730 -34.7725 -34.7660 -34.7655 -34.7414 -34.7361 -34.7342 -34.7293
   -34.7265 -34.7196 -34.6669 -34.6610 -34.6506 -34.6224 -34.6217 -27.5483
   -27.5474 -27.5438 -27.5429 -27.5405 -27.5372 -27.5360 -27.5352 -27.5327
   -27.5307 -10.5574 -10.0329  -9.0124  -6.3834  -5.2453  -0.9873  -0.6390
    -0.4190  -0.1668   0.0923   0.3675   0.7426   1.4106   1.5138   2.5883
     2.7872   3.1425   3.8485   3.9547   4.4150   6.3691   6.3986   6.8103
     7.0658   7.5833   7.9894   8.3321   8.4326   8.6740   8.9140   9.4058
     9.6974   9.9465  10.2759  10.6202  10.8645  11.0352  11.1626  11.4466
    12.3483  12.3766  12.8194  12.9752  13.2753  13.5181  13.7587  14.2179
    14.6838  14.8467  14.9673  15.1356  15.3346  15.4603  15.6839  16.2805
    16.4081  16.4252  16.7309  16.8800  16.9631  17.2289  17.3096  17.4547
    17.5382  17.6661  17.7489  17.7946  18.2708  18.9647  19.1697  19.2897
    19.3642  19.5126  19.5445  19.5963

          k = 0.0714 0.1262 0.0000 ( 14825 PWs)   bands (ev):

   -34.7730 -34.7726 -34.7660 -34.7656 -34.7414 -34.7361 -34.7342 -34.7293
   -34.7265 -34.7196 -34.6669 -34.6610 -34.6506 -34.6224 -34.6217 -27.5483
   -27.5475 -27.5438 -27.5429 -27.5405 -27.5372 -27.5360 -27.5352 -27.5326
   -27.5307 -10.5751 -10.0489  -9.0214  -6.3782  -5.2143  -0.9127  -0.5856
    -0.3533  -0.1373   0.1057   0.3880   0.7659   1.3861   1.5120   2.5869
     2.7230   3.1153   3.8277   3.9034   4.3723   6.3602   6.3823   6.8353
     7.0818   7.5683   7.9399   8.3388   8.4245   8.6999   8.8888   9.3661
     9.6769   9.9007  10.2963  10.5574  10.8045  11.0417  11.1198  11.3803
    12.3209  12.3267  12.8304  12.9475  13.2388  13.5285  13.8363  14.3007
    14.6492  14.9118  14.9601  15.1933  15.4420  15.4776  15.7471  16.2423
    16.3792  16.4005  16.7431  16.8743  17.0186  17.2622  17.3610  17.4235
    17.5387  17.6667  17.7635  17.8079  18.1578  18.8551  19.1035  19.2641
    19.3862  19.4315  19.4932  19.6139

          k = 0.0667 0.1178 0.0000 ( 14811 PWs)   bands (ev):

   -34.7730 -34.7726 -34.7660 -34.7656 -34.7414 -34.7361 -34.7342 -34.7293
   -34.7265 -34.7196 -34.6669 -34.6610 -34.6506 -34.6225 -34.6217 -27.5483
   -27.5475 -27.5438 -27.5430 -27.5405 -27.5371 -27.5360 -27.5351 -27.5326
   -27.5306 -10.5916 -10.0638  -9.0300  -6.3737  -5.1851  -0.8373  -0.5364
    -0.2843  -0.1083   0.1175   0.4085   0.7885   1.3486   1.5178   2.5808
     2.6650   3.0855   3.7951   3.8718   4.3274   6.3411   6.3764   6.8586
     7.1013   7.5562   7.8942   8.3448   8.4243   8.7101   8.8745   9.3249
     9.6610   9.8595  10.3188  10.4895  10.7462  11.0286  11.0939  11.3273
    12.2665  12.2948  12.8227  12.9542  13.2033  13.5348  13.9204  14.3740
    14.6258  14.8477  15.0675  15.2549  15.4827  15.5563  15.8346  16.1988
    16.3343  16.3929  16.7202  16.8686  17.0819  17.2940  17.3973  17.4127
    17.5364  17.6813  17.7428  17.8914  18.0577  18.7387  18.9968  19.2471
    19.3091  19.3844  19.4681  19.5498

          k = 0.0619 0.1094 0.0000 ( 14819 PWs)   bands (ev):

   -34.7730 -34.7726 -34.7660 -34.7656 -34.7414 -34.7361 -34.7342 -34.7293
   -34.7265 -34.7196 -34.6669 -34.6610 -34.6506 -34.6225 -34.6217 -27.5483
   -27.5476 -27.5438 -27.5430 -27.5405 -27.5371 -27.5361 -27.5351 -27.5326
   -27.5306 -10.6070 -10.0778  -9.0380  -6.3696  -5.1579  -0.7614  -0.4902
    -0.2151  -0.0787   0.1284   0.4293   0.8099   1.3041   1.5244   2.5615
     2.6232   3.0515   3.7584   3.8540   4.2802   6.3194   6.3734   6.8797
     7.1237   7.5471   7.8528   8.3512   8.4307   8.7029   8.8705   9.2842
     9.6506   9.8228  10.3385  10.4199  10.6933  10.9995  11.0726  11.2944
    12.2043  12.2640  12.7992  12.9843  13.1754  13.5408  14.0053  14.4194
    14.6322  14.7832  15.1779  15.2798  15.5240  15.6671  15.9182  16.1652
    16.2915  16.3865  16.6855  16.8444  17.1448  17.3249  17.3813  17.4529
    17.5436  17.6832  17.7440  17.9581  18.0190  18.6204  18.8707  19.1722
    19.2364  19.3529  19.4428  19.4944

          k = 0.0571 0.1010 0.0000 ( 14817 PWs)   bands (ev):

   -34.7730 -34.7726 -34.7660 -34.7656 -34.7414 -34.7361 -34.7342 -34.7293
   -34.7266 -34.7196 -34.6669 -34.6610 -34.6506 -34.6225 -34.6217 -27.5483
   -27.5476 -27.5438 -27.5431 -27.5406 -27.5371 -27.5361 -27.5351 -27.5326
   -27.5306 -10.6213 -10.0908  -9.0455  -6.3661  -5.1326  -0.6855  -0.4460
    -0.1502  -0.0461   0.1395   0.4507   0.8295   1.2555   1.5273   2.5248
     2.6036   3.0129   3.7269   3.8417   4.2308   6.2981   6.3707   6.8980
     7.1486   7.5409   7.8160   8.3595   8.4419   8.6835   8.8697   9.2463
     9.6463   9.7899  10.3286  10.3711  10.6529  10.9591  11.0500  11.2816
    12.1394  12.2300  12.7750  13.0086  13.1679  13.5496  14.0848  14.4275
    14.6690  14.7353  15.2491  15.3060  15.6032  15.7720  15.9629  16.1724
    16.2555  16.3825  16.6502  16.8053  17.1910  17.3395  17.3819  17.4749
    17.5777  17.6608  17.7430  17.9710  18.1092  18.5050  18.7362  19.0342
    19.2140  19.2876  19.4190  19.4575

          k = 0.0524 0.0925 0.0000 ( 14802 PWs)   bands (ev):

   -34.7731 -34.7726 -34.7660 -34.7656 -34.7414 -34.7361 -34.7342 -34.7293
   -34.7266 -34.7196 -34.6669 -34.6610 -34.6506 -34.6225 -34.6217 -27.5483
   -27.5477 -27.5438 -27.5431 -27.5406 -27.5371 -27.5361 -27.5351 -27.5326
   -27.5306 -10.6345 -10.1028  -9.0525  -6.3629  -5.1092  -0.6104  -0.4035
    -0.0950  -0.0073   0.1519   0.4735   0.8471   1.2046   1.5234   2.4856
     2.5929   2.9703   3.7037   3.8317   4.1796   6.2778   6.3679   6.9134
     7.1754   7.5376   7.7842   8.3703   8.4566   8.6575   8.8651   9.2130
     9.6483   9.7598  10.2641  10.3610  10.6339  10.9081  11.0324  11.2813
    12.0729  12.1919  12.7558  13.0069  13.1936  13.5637  14.1510  14.4162
    14.6676  14.7562  15.2282  15.4125  15.6984  15.8483  15.9714  16.1983
    16.2664  16.3826  16.6181  16.7624  17.2076  17.3111  17.4235  17.4846
    17.5913  17.6458  17.7574  18.0289  18.2147  18.4013  18.5991  18.8937
    19.1469  19.2319  19.3930  19.4299

          k = 0.0476 0.0841 0.0000 ( 14810 PWs)   bands (ev):

   -34.7731 -34.7727 -34.7660 -34.7656 -34.7414 -34.7361 -34.7342 -34.7293
   -34.7266 -34.7196 -34.6669 -34.6610 -34.6506 -34.6225 -34.6217 -27.5484
   -27.5477 -27.5438 -27.5431 -27.5406 -27.5371 -27.5361 -27.5351 -27.5326
   -27.5306 -10.6465 -10.1137  -9.0590  -6.3602  -5.0878  -0.5371  -0.3622
    -0.0521   0.0375   0.1676   0.4984   0.8625   1.1523   1.5104   2.4513
     2.5841   2.9260   3.6883   3.8231   4.1271   6.2587   6.3651   6.9256
     7.2033   7.5365   7.7580   8.3840   8.4734   8.6289   8.8536   9.1851
     9.6559   9.7317  10.1947  10.3378  10.6394  10.8521  11.0225  11.2865
    12.0056  12.1489  12.7432  12.9862  13.2421  13.5856  14.1948  14.3992
    14.6538  14.8042  15.2116  15.5224  15.7940  15.8448  16.0264  16.1846
    16.3486  16.3896  16.5938  16.7239  17.1943  17.2763  17.4279  17.5222
    17.5527  17.6578  17.8307  18.0887  18.2868  18.3585  18.4662  18.7555
    19.0293  19.1996  19.3341  19.3931

          k = 0.0429 0.0757 0.0000 ( 14804 PWs)   bands (ev):

   -34.7731 -34.7727 -34.7660 -34.7656 -34.7414 -34.7361 -34.7342 -34.7293
   -34.7266 -34.7196 -34.6669 -34.6610 -34.6506 -34.6225 -34.6217 -27.5484
   -27.5477 -27.5438 -27.5432 -27.5406 -27.5371 -27.5361 -27.5350 -27.5326
   -27.5305 -10.6574 -10.1237  -9.0648  -6.3578  -5.0684  -0.4669  -0.3219
    -0.0171   0.0798   0.1897   0.5262   0.8755   1.0999   1.4874   2.4218
     2.5771   2.8830   3.6790   3.8156   4.0743   6.2409   6.3623   6.9346
     7.2315   7.5370   7.7378   8.3999   8.4912   8.6000   8.8356   9.1627
     9.6672   9.7048  10.1289  10.3009  10.6594  10.8000  11.0201  11.2936
    11.9381  12.1007  12.7368  12.9593  13.2982  13.6174  14.2122  14.3768
    14.6643  14.8313  15.2215  15.6222  15.8057  15.8797  16.1017  16.1858
    16.4025  16.4246  16.5922  16.6986  17.1471  17.2546  17.4073  17.5018
    17.5550  17.7039  17.9274  18.0861  18.2891  18.3384  18.4596  18.6299
    18.8981  19.1351  19.2663  19.3715

          k = 0.0381 0.0673 0.0000 ( 14804 PWs)   bands (ev):

   -34.7731 -34.7727 -34.7660 -34.7657 -34.7414 -34.7361 -34.7342 -34.7293
   -34.7266 -34.7196 -34.6669 -34.6610 -34.6506 -34.6226 -34.6217 -27.5484
   -27.5478 -27.5438 -27.5432 -27.5406 -27.5370 -27.5361 -27.5350 -27.5325
   -27.5305 -10.6672 -10.1326  -9.0701  -6.3558  -5.0510  -0.4023  -0.2818
     0.0153   0.1114   0.2200   0.5577   0.8859   1.0487   1.4548   2.3931
     2.5743   2.8443   3.6733   3.8093   4.0226   6.2247   6.3596   6.9409
     7.2589   7.5383   7.7245   8.4166   8.5067   8.5750   8.8133   9.1453
     9.6734   9.6839  10.0699  10.2582  10.6687  10.7709  11.0252  11.3010
    11.8711  12.0475  12.7356  12.9317  13.3550  13.6602  14.2093  14.3476
    14.6830  14.8447  15.2601  15.6740  15.8077  15.9364  16.1691  16.2144
    16.4271  16.4463  16.6343  16.7026  17.0813  17.2442  17.3815  17.4637
    17.5520  17.7703  17.9935  18.0633  18.1989  18.3553  18.4999  18.6028
    18.7662  19.0226  19.2385  19.3542

          k = 0.0333 0.0589 0.0000 ( 14806 PWs)   bands (ev):

   -34.7731 -34.7727 -34.7660 -34.7657 -34.7414 -34.7361 -34.7342 -34.7293
   -34.7266 -34.7196 -34.6669 -34.6610 -34.6506 -34.6226 -34.6217 -27.5484
   -27.5478 -27.5439 -27.5432 -27.5406 -27.5370 -27.5362 -27.5350 -27.5325
   -27.5305 -10.6759 -10.1405  -9.0748  -6.3541  -5.0357  -0.3466  -0.2401
     0.0480   0.1327   0.2546   0.5929   0.8926   1.0007   1.4142   2.3606
     2.5787   2.8124   3.6685   3.8039   3.9739   6.2100   6.3571   6.9448
     7.2844   7.5394   7.7188   8.4308   8.5104   8.5657   8.7893   9.1322
     9.6483   9.6908  10.0213  10.2151  10.6421  10.7850  11.0389  11.3084
    11.8051  11.9899  12.7381  12.9056  13.4104  13.7138  14.1949  14.3149
    14.6728  14.8789  15.3099  15.6618  15.8702  15.9699  16.2293  16.2599
    16.4351  16.4518  16.6887  16.7531  17.0234  17.2380  17.3542  17.4259
    17.5424  17.8027  17.9491  18.0795  18.1952  18.2919  18.5399  18.6155
    18.7259  18.8959  19.2274  19.3371

          k = 0.0286 0.0505 0.0000 ( 14809 PWs)   bands (ev):

   -34.7731 -34.7727 -34.7660 -34.7657 -34.7414 -34.7361 -34.7342 -34.7293
   -34.7266 -34.7196 -34.6669 -34.6610 -34.6505 -34.6226 -34.6217 -27.5484
   -27.5478 -27.5439 -27.5432 -27.5406 -27.5370 -27.5362 -27.5350 -27.5325
   -27.5305 -10.6833 -10.1474  -9.0789  -6.3527  -5.0223  -0.3030  -0.1956
     0.0818   0.1482   0.2875   0.6305   0.8919   0.9613   1.3685   2.3222
     2.5910   2.7882   3.6618   3.7994   3.9306   6.1971   6.3547   6.9468
     7.3069   7.5398   7.7205   8.4347   8.5030   8.5781   8.7660   9.1233
     9.6191   9.6933   9.9865  10.1745  10.6014  10.8167  11.0629  11.3159
    11.7408  11.9289  12.7429  12.8818  13.4644  13.7761  14.1739  14.2824
    14.6303  14.9365  15.3479  15.6597  15.9104  16.0165  16.2565  16.3099
    16.4384  16.4742  16.7541  16.7968  17.0131  17.2343  17.3255  17.3877
    17.5325  17.7728  17.8568  18.0912  18.1904  18.3053  18.4795  18.6316
    18.7760  18.8385  19.2232  19.3175

          k = 0.0238 0.0421 0.0000 ( 14809 PWs)   bands (ev):

   -34.7731 -34.7727 -34.7660 -34.7657 -34.7414 -34.7361 -34.7342 -34.7293
   -34.7266 -34.7196 -34.6669 -34.6610 -34.6505 -34.6226 -34.6217 -27.5484
   -27.5478 -27.5439 -27.5433 -27.5407 -27.5370 -27.5362 -27.5350 -27.5325
   -27.5305 -10.6897 -10.1531  -9.0824  -6.3515  -5.0110  -0.2713  -0.1497
     0.1162   0.1613   0.3158   0.6672   0.8751   0.9415   1.3209   2.2793
     2.6091   2.7719   3.6510   3.7953   3.8957   6.1859   6.3527   6.9476
     7.3256   7.5396   7.7288   8.4203   8.5048   8.5987   8.7449   9.1184
     9.5884   9.6871   9.9672  10.1383  10.5623  10.8472  11.0983  11.3240
    11.6790  11.8657  12.7489  12.8607  13.5181  13.8440  14.1480  14.2528
    14.5744  14.9935  15.3666  15.6955  15.9163  16.0748  16.2392  16.3446
    16.4471  16.5459  16.7595  16.8648  17.0669  17.2334  17.2984  17.3509
    17.5234  17.7143  17.7463  18.0355  18.1864  18.3720  18.4251  18.5962
    18.7927  18.9454  19.2251  19.2911

          k = 0.0190 0.0337 0.0000 ( 14807 PWs)   bands (ev):

   -34.7731 -34.7727 -34.7660 -34.7657 -34.7414 -34.7361 -34.7342 -34.7293
   -34.7266 -34.7196 -34.6669 -34.6610 -34.6505 -34.6226 -34.6217 -27.5484
   -27.5478 -27.5439 -27.5433 -27.5407 -27.5370 -27.5362 -27.5350 -27.5325
   -27.5305 -10.6949 -10.1579  -9.0852  -6.3506  -5.0018  -0.2492  -0.1066
     0.1491   0.1737   0.3393   0.6980   0.8476   0.9392   1.2753   2.2356
     2.6289   2.7632   3.6351   3.7913   3.8710   6.1766   6.3510   6.9475
     7.3400   7.5392   7.7418   8.3956   8.5137   8.6208   8.7273   9.1170
     9.5572   9.6739   9.9608  10.1075  10.5292  10.8717  11.1442  11.3333
    11.6203  11.8021  12.7554  12.8425  13.5718  13.9138  14.1172  14.2280
    14.5159  15.0291  15.3873  15.7599  15.9127  16.1161  16.1862  16.3638
    16.4813  16.6487  16.7223  16.9671  17.1206  17.2283  17.2983  17.3194
    17.5141  17.6399  17.6484  17.9436  18.1416  18.3466  18.5113  18.5440
    18.8890  19.0431  19.2278  19.2617

          k = 0.0143 0.0252 0.0000 ( 14801 PWs)   bands (ev):

   -34.7731 -34.7727 -34.7660 -34.7657 -34.7414 -34.7361 -34.7342 -34.7293
   -34.7266 -34.7197 -34.6669 -34.6610 -34.6505 -34.6226 -34.6217 -27.5484
   -27.5478 -27.5439 -27.5433 -27.5407 -27.5370 -27.5362 -27.5350 -27.5325
   -27.5305 -10.6989 -10.1616  -9.0875  -6.3499  -4.9946  -0.2340  -0.0701
     0.1767   0.1869   0.3585   0.7165   0.8256   0.9428   1.2354   2.1955
     2.6460   2.7614   3.6161   3.7872   3.8564   6.1693   6.3496   6.9470
     7.3504   7.5388   7.7568   8.3698   8.5228   8.6417   8.7135   9.1183
     9.5278   9.6581   9.9620  10.0829  10.5031  10.8898  11.1973  11.3444
    11.5652  11.7409  12.7618  12.8270  13.6245  13.9820  14.0821  14.2082
    14.4609  15.0349  15.4303  15.8345  15.9089  16.1105  16.1448  16.3516
    16.5565  16.6890  16.7607  17.0678  17.1276  17.2105  17.2715  17.3773
    17.5010  17.5598  17.5710  17.8712  18.0306  18.2876  18.5380  18.6620
    18.9873  19.1106  19.1780  19.2829

          k = 0.0095 0.0168 0.0000 ( 14810 PWs)   bands (ev):

   -34.7731 -34.7727 -34.7660 -34.7657 -34.7414 -34.7361 -34.7342 -34.7293
   -34.7266 -34.7197 -34.6669 -34.6610 -34.6505 -34.6226 -34.6217 -27.5484
   -27.5478 -27.5439 -27.5433 -27.5407 -27.5370 -27.5362 -27.5350 -27.5325
   -27.5305 -10.7018 -10.1642  -9.0891  -6.3494  -4.9895  -0.2241  -0.0427
     0.1933   0.2032   0.3738   0.7197   0.8157   0.9480   1.2046   2.1631
     2.6576   2.7649   3.5977   3.7836   3.8490   6.1640   6.3486   6.9464
     7.3571   7.5386   7.7708   8.3480   8.5296   8.6590   8.7039   9.1210
     9.5033   9.6439   9.9660  10.0651  10.4846  10.9022  11.2518  11.3580
    11.5138  11.6868  12.7680  12.8146  13.6730  14.0419  14.0480  14.1925
    14.4134  15.0224  15.4897  15.8937  15.9204  16.0394  16.1512  16.3268
    16.6146  16.7071  16.8618  17.0858  17.1471  17.2084  17.2437  17.4601
    17.4699  17.4893  17.5374  17.8239  17.9150  18.1850  18.6340  18.7733
    19.0682  19.1007  19.1466  19.2999

          k = 0.0048 0.0084 0.0000 ( 14809 PWs)   bands (ev):

   -34.7731 -34.7727 -34.7660 -34.7657 -34.7414 -34.7361 -34.7342 -34.7293
   -34.7266 -34.7197 -34.6669 -34.6610 -34.6505 -34.6226 -34.6217 -27.5484
   -27.5478 -27.5439 -27.5433 -27.5407 -27.5370 -27.5362 -27.5350 -27.5325
   -27.5305 -10.7035 -10.1658  -9.0900  -6.3491  -4.9864  -0.2185  -0.0258
     0.2026   0.2153   0.3843   0.7152   0.8136   0.9524   1.1854   2.1420
     2.6636   2.7697   3.5845   3.7813   3.8459   6.1609   6.3480   6.9460
     7.3609   7.5385   7.7808   8.3334   8.5337   8.6705   8.6982   9.1234
     9.4870   9.6342   9.9695  10.0543  10.4736  10.9095  11.2974  11.3770
    11.4658  11.6475  12.7732  12.8056  13.7104  14.0156  14.0937  14.1789
    14.3788  15.0079  15.5447  15.9035  15.9655  15.9805  16.1508  16.3030
    16.6151  16.8007  16.9354  17.0122  17.1677  17.2316  17.2598  17.3621
    17.4860  17.5173  17.5663  17.7909  17.8236  18.0969  18.7406  18.8604
    19.0025  19.1387  19.1687  19.2953

          k = 0.0000 0.0000 0.0000 ( 14817 PWs)   bands (ev):

   -34.7731 -34.7727 -34.7660 -34.7657 -34.7414 -34.7361 -34.7342 -34.7293
   -34.7266 -34.7197 -34.6669 -34.6610 -34.6505 -34.6226 -34.6217 -27.5484
   -27.5478 -27.5439 -27.5433 -27.5407 -27.5370 -27.5362 -27.5350 -27.5325
   -27.5305 -10.7041 -10.1663  -9.0903  -6.3490  -4.9854  -0.2167  -0.0202
     0.2060   0.2193   0.3881   0.7126   0.8134   0.9541   1.1790   2.1346
     2.6654   2.7718   3.5797   3.7805   3.8451   6.1598   6.3478   6.9458
     7.3621   7.5385   7.7844   8.3283   8.5350   8.6746   8.6963   9.1244
     9.4812   9.6308   9.9708  10.0507  10.4700  10.9119  11.3157  11.3983
    11.4333  11.6327  12.7756  12.8019  13.7252  14.0032  14.1162  14.1705
    14.3655  15.0019  15.5685  15.9117  15.9394  15.9967  16.1482  16.2927
    16.6118  16.9008  16.9184  16.9605  17.2126  17.2131  17.2837  17.3018
    17.5019  17.5066  17.6077  17.7561  17.8028  18.0597  18.8163  18.8739
    18.9576  19.1720  19.1742  19.2583

     Writing all to output data dir tmp/Sb2Te3-uatsx-c3-3.0.save/ :
     XML data file, pseudopotentials, collected wavefunctions

     init_run     :      1.13s CPU      1.13s WALL (       1 calls)
     electrons    :    872.45s CPU    494.48s WALL (       1 calls)

     Called by init_run:
     wfcinit      :      0.00s CPU      0.00s WALL (       1 calls)
     wfcinit:wfcr :     18.02s CPU      9.33s WALL (     211 calls)
     potinit      :      0.48s CPU      0.47s WALL (       1 calls)
     hinit0       :      0.54s CPU      0.56s WALL (       1 calls)

     Called by electrons:
     c_bands      :    872.44s CPU    494.46s WALL (       1 calls)
     v_of_rho     :      0.05s CPU      0.03s WALL (       1 calls)
     v_h          :      0.01s CPU      0.01s WALL (       1 calls)
     v_xc         :      0.04s CPU      0.03s WALL (       1 calls)

     Called by c_bands:
     init_us_2    :      0.20s CPU      0.11s WALL (     211 calls)
     cegterg      :    850.99s CPU    482.22s WALL (     717 calls)

     Called by sum_band:

     Called by *egterg:
     cdiaghg      :    276.40s CPU    189.80s WALL (   12646 calls)
     cegterg:over :     54.79s CPU     29.44s WALL (   12435 calls)
     cegterg:upda :     26.32s CPU     11.40s WALL (   12435 calls)
     cegterg:last :     40.32s CPU     20.17s WALL (    5867 calls)
     h_psi        :    439.17s CPU    222.04s WALL (   13363 calls)
     g_psi        :      2.65s CPU      1.95s WALL (   12435 calls)

     Called by h_psi:
     h_psi:calbec :     20.54s CPU      8.79s WALL (   13363 calls)
     vloc_psi     :    406.36s CPU    207.42s WALL (   13363 calls)
     add_vuspsi   :     10.81s CPU      5.04s WALL (   13363 calls)

     General routines
     calbec       :     20.48s CPU      8.76s WALL (   13363 calls)
     fft          :      0.56s CPU      0.57s WALL (      11 calls)
     ffts         :      0.42s CPU      0.42s WALL (       1 calls)
     fftw         :    342.28s CPU    175.08s WALL ( 1217208 calls)
     interpolate  :      0.42s CPU      0.42s WALL (       1 calls)
     davcio       :      0.11s CPU      0.60s WALL (     422 calls)

     Parallel routines

     PWSCF        :  14m41.27s CPU   9m14.90s WALL


   This run was terminated on:  20:47:38  14Aug2025            

=------------------------------------------------------------------------------=
   JOB DONE.
=------------------------------------------------------------------------------=
