
     Program PWSCF v.7.4.1 starts on 13Aug2025 at 16:41: 4 

     This program is part of the open-source Quantum ESPRESSO suite
     for quantum simulation of materials; please cite
         "P. Giannozzi et al., J. Phys.:Condens. Matter 21 395502 (2009);
         "P. Giannozzi et al., J. Phys.:Condens. Matter 29 465901 (2017);
         "P. Giannozzi et al., J. Chem. Phys. 152 154105 (2020);
          URL http://www.quantum-espresso.org", 
     in publications or presentations arising from this work. More details at
     http://www.quantum-espresso.org/quote

     Parallel version (MPI & OpenMP), running on      48 processor cores
     Number of MPI processes:                24
     Threads/MPI process:                     2

     MPI processes distributed on     2 nodes
     97354 MiB available memory on the printing compute node when the environment starts

     Waiting for input...
     Reading input from standard input

     Current dimensions of program PWSCF are:
     Max number of different atomic species (ntypx) = 10
     Max number of k-points (npk) =  40000
     Max angular momentum in pseudopotentials (lmaxx) =  4

     IMPORTANT: XC functional enforced from input :
     Exchange-correlation= PBE
                           (   1   4   3   4   0   0   0)
     Any further DFT definition will be discarded
     Please, verify this is what you really want


     Atomic positions and unit cell read from directory:
     tmp/Sb2Te3-uatsx-c1-5.0.save/

     Message from routine setup:
     no reason to have ecutrho>4*ecutwfc

     R & G space division:  proc/nbgrp/npool/nimage =      24
     Subspace diagonalization in iterative solution of the eigenvalue problem:
     a serial algorithm will be used


     Parallelization info
     --------------------
     sticks:   dense  smooth     PW     G-vecs:    dense   smooth      PW
     Min          99      40     11                19863     5026     767
     Max         100      41     12                19886     5041     778
     Sum        2397     963    273               477063   120743   18525

     Using Slab Decomposition



     bravais-lattice index     =            0
     lattice parameter (alat)  =       8.5529  a.u.
     unit-cell volume          =    2526.9262 (a.u.)^3
     number of atoms/cell      =            5
     number of atomic types    =            2
     number of electrons       =        78.00
     number of Kohn-Sham states=          100
     kinetic-energy cutoff     =      50.0000  Ry
     charge density cutoff     =     500.0000  Ry
     Exchange-correlation= PBE
                           (   1   4   3   4   0   0   0)

     celldm(1)=   8.552915  celldm(2)=   0.000000  celldm(3)=   0.000000
     celldm(4)=   0.000000  celldm(5)=   0.000000  celldm(6)=   0.000000

     crystal axes: (cart. coord. in units of alat)
               a(1) = (   1.000000   0.000000   0.000000 )  
               a(2) = (  -0.476190   0.824778   0.000000 )  
               a(3) = (   0.000000   0.000000   4.896807 )  

     reciprocal axes: (cart. coord. in units 2 pi/alat)
               b(1) = (  1.000000  0.577356 -0.000000 )  
               b(2) = (  0.000000  1.212447  0.000000 )  
               b(3) = (  0.000000 -0.000000  0.204215 )  


     PseudoPot. # 1 for Sb read from file:
     /zfs-home/202401017n1/pseudos/Sb_ONCV_PBE-1.2.upf
     MD5 check sum: 0417cd6c0fe8ce4611e2b23135f1abd9
     Pseudo is Norm-conserving, Zval = 15.0
     Generated using ONCVPSP code by D. R. Hamann
     Using radial grid of  602 points,  6 beta functions with: 
                l(1) =   0
                l(2) =   0
                l(3) =   1
                l(4) =   1
                l(5) =   2
                l(6) =   2

     PseudoPot. # 2 for Te read from file:
     /zfs-home/202401017n1/pseudos/Te_ONCV_PBE-1.2.upf
     MD5 check sum: dd4de4dac1e38587f63aaf3700bb29d3
     Pseudo is Norm-conserving, Zval = 16.0
     Generated using ONCVPSP code by D. R. Hamann
     Using radial grid of  602 points,  6 beta functions with: 
                l(1) =   0
                l(2) =   0
                l(3) =   1
                l(4) =   1
                l(5) =   2
                l(6) =   2

     atomic species   valence    mass     pseudopotential
     Sb               15.00   121.76000     Sb( 1.00)
     Te               16.00   127.60000     Te( 1.00)

     No symmetry found


                                    s                        frac. trans.

      isym =  1     identity                                     

 cryst.   s( 1) = (     1          0          0      )
                  (     0          1          0      )
                  (     0          0          1      )

 cart.    s( 1) = (  1.0000000  0.0000000  0.0000000 )
                  (  0.0000000  1.0000000  0.0000000 )
                  (  0.0000000  0.0000000  1.0000000 )


   Cartesian axes

     site n.     atom                  positions (alat units)
         1        Sb     tau(   1) = (   0.5941563   0.4140600   2.8819763  )
         2        Te     tau(   2) = (   0.5757813   0.3831770   1.6487259  )
         3        Sb     tau(   3) = (   0.0713597   0.1150985   2.0147862  )
         4        Te     tau(   4) = (   0.0896521   0.1461334   3.2480478  )
         5        Te     tau(   5) = (   0.0946223   0.6770376   2.4483865  )

   Crystallographic axes

     site n.     atom                  positions (cryst. coord.)
         1        Sb     tau(   1) = (  0.8332162  0.5020259  0.5885420  )
         2        Te     tau(   2) = (  0.7970108  0.4645820  0.3366941  )
         3        Sb     tau(   3) = (  0.1378125  0.1395508  0.4114490  )
         4        Te     tau(   4) = (  0.1740231  0.1771791  0.6632992  )
         5        Te     tau(   5) = (  0.4855140  0.8208724  0.4999966  )

     number of k points=   211
                       cart. coord. in units 2pi/alat
        k(    1) = (   0.0000000   0.0000000   0.0000000), wk =   0.0094787
        k(    2) = (   0.0071429   0.0041240   0.0000000), wk =   0.0094787
        k(    3) = (   0.0142857   0.0082479   0.0000000), wk =   0.0094787
        k(    4) = (   0.0214286   0.0123719   0.0000000), wk =   0.0094787
        k(    5) = (   0.0285714   0.0164959   0.0000000), wk =   0.0094787
        k(    6) = (   0.0357143   0.0206199   0.0000000), wk =   0.0094787
        k(    7) = (   0.0428571   0.0247438   0.0000000), wk =   0.0094787
        k(    8) = (   0.0500000   0.0288678   0.0000000), wk =   0.0094787
        k(    9) = (   0.0571429   0.0329918   0.0000000), wk =   0.0094787
        k(   10) = (   0.0642857   0.0371157   0.0000000), wk =   0.0094787
        k(   11) = (   0.0714286   0.0412397   0.0000000), wk =   0.0094787
        k(   12) = (   0.0785714   0.0453637   0.0000000), wk =   0.0094787
        k(   13) = (   0.0857143   0.0494876   0.0000000), wk =   0.0094787
        k(   14) = (   0.0928571   0.0536116   0.0000000), wk =   0.0094787
        k(   15) = (   0.1000000   0.0577356   0.0000000), wk =   0.0094787
        k(   16) = (   0.1071429   0.0618596   0.0000000), wk =   0.0094787
        k(   17) = (   0.1142857   0.0659835   0.0000000), wk =   0.0094787
        k(   18) = (   0.1214286   0.0701075   0.0000000), wk =   0.0094787
        k(   19) = (   0.1285714   0.0742315   0.0000000), wk =   0.0094787
        k(   20) = (   0.1357143   0.0783554   0.0000000), wk =   0.0094787
        k(   21) = (   0.1428571   0.0824794   0.0000000), wk =   0.0094787
        k(   22) = (   0.1500000   0.0866034   0.0000000), wk =   0.0094787
        k(   23) = (   0.1571429   0.0907273   0.0000000), wk =   0.0094787
        k(   24) = (   0.1642857   0.0948513   0.0000000), wk =   0.0094787
        k(   25) = (   0.1714286   0.0989753   0.0000000), wk =   0.0094787
        k(   26) = (   0.1785714   0.1030993   0.0000000), wk =   0.0094787
        k(   27) = (   0.1857143   0.1072232   0.0000000), wk =   0.0094787
        k(   28) = (   0.1928571   0.1113472   0.0000000), wk =   0.0094787
        k(   29) = (   0.2000000   0.1154712   0.0000000), wk =   0.0094787
        k(   30) = (   0.2071429   0.1195951   0.0000000), wk =   0.0094787
        k(   31) = (   0.2142857   0.1237191   0.0000000), wk =   0.0094787
        k(   32) = (   0.2214286   0.1278431   0.0000000), wk =   0.0094787
        k(   33) = (   0.2285714   0.1319671   0.0000000), wk =   0.0094787
        k(   34) = (   0.2357143   0.1360910   0.0000000), wk =   0.0094787
        k(   35) = (   0.2428571   0.1402150   0.0000000), wk =   0.0094787
        k(   36) = (   0.2500000   0.1443390   0.0000000), wk =   0.0094787
        k(   37) = (   0.2571429   0.1484629   0.0000000), wk =   0.0094787
        k(   38) = (   0.2642857   0.1525869   0.0000000), wk =   0.0094787
        k(   39) = (   0.2714286   0.1567109   0.0000000), wk =   0.0094787
        k(   40) = (   0.2785714   0.1608348   0.0000000), wk =   0.0094787
        k(   41) = (   0.2857143   0.1649588   0.0000000), wk =   0.0094787
        k(   42) = (   0.2928571   0.1690828   0.0000000), wk =   0.0094787
        k(   43) = (   0.3000000   0.1732068   0.0000000), wk =   0.0094787
        k(   44) = (   0.3071429   0.1773307   0.0000000), wk =   0.0094787
        k(   45) = (   0.3142857   0.1814547   0.0000000), wk =   0.0094787
        k(   46) = (   0.3214286   0.1855787   0.0000000), wk =   0.0094787
        k(   47) = (   0.3285714   0.1897026   0.0000000), wk =   0.0094787
        k(   48) = (   0.3357143   0.1938266   0.0000000), wk =   0.0094787
        k(   49) = (   0.3428571   0.1979506   0.0000000), wk =   0.0094787
        k(   50) = (   0.3500000   0.2020745   0.0000000), wk =   0.0094787
        k(   51) = (   0.3571429   0.2061985   0.0000000), wk =   0.0094787
        k(   52) = (   0.3642857   0.2103225   0.0000000), wk =   0.0094787
        k(   53) = (   0.3714286   0.2144465   0.0000000), wk =   0.0094787
        k(   54) = (   0.3785714   0.2185704   0.0000000), wk =   0.0094787
        k(   55) = (   0.3857143   0.2226944   0.0000000), wk =   0.0094787
        k(   56) = (   0.3928571   0.2268184   0.0000000), wk =   0.0094787
        k(   57) = (   0.4000000   0.2309423   0.0000000), wk =   0.0094787
        k(   58) = (   0.4071429   0.2350663   0.0000000), wk =   0.0094787
        k(   59) = (   0.4142857   0.2391903   0.0000000), wk =   0.0094787
        k(   60) = (   0.4214286   0.2433143   0.0000000), wk =   0.0094787
        k(   61) = (   0.4285714   0.2474382   0.0000000), wk =   0.0094787
        k(   62) = (   0.4357143   0.2515622   0.0000000), wk =   0.0094787
        k(   63) = (   0.4428571   0.2556862   0.0000000), wk =   0.0094787
        k(   64) = (   0.4500000   0.2598101   0.0000000), wk =   0.0094787
        k(   65) = (   0.4571429   0.2639341   0.0000000), wk =   0.0094787
        k(   66) = (   0.4642857   0.2680581   0.0000000), wk =   0.0094787
        k(   67) = (   0.4714286   0.2721820   0.0000000), wk =   0.0094787
        k(   68) = (   0.4785714   0.2763060   0.0000000), wk =   0.0094787
        k(   69) = (   0.4857143   0.2804300   0.0000000), wk =   0.0094787
        k(   70) = (   0.4928571   0.2845540   0.0000000), wk =   0.0094787
        k(   71) = (   0.5000000   0.2886779   0.0000000), wk =   0.0094787
        k(   72) = (   0.4976190   0.2930768   0.0000000), wk =   0.0094787
        k(   73) = (   0.4952381   0.2974757   0.0000000), wk =   0.0094787
        k(   74) = (   0.4928571   0.3018746   0.0000000), wk =   0.0094787
        k(   75) = (   0.4904762   0.3062735   0.0000000), wk =   0.0094787
        k(   76) = (   0.4880952   0.3106724   0.0000000), wk =   0.0094787
        k(   77) = (   0.4857143   0.3150713   0.0000000), wk =   0.0094787
        k(   78) = (   0.4833333   0.3194702   0.0000000), wk =   0.0094787
        k(   79) = (   0.4809524   0.3238691   0.0000000), wk =   0.0094787
        k(   80) = (   0.4785714   0.3282680   0.0000000), wk =   0.0094787
        k(   81) = (   0.4761905   0.3326669   0.0000000), wk =   0.0094787
        k(   82) = (   0.4738095   0.3370658   0.0000000), wk =   0.0094787
        k(   83) = (   0.4714286   0.3414647   0.0000000), wk =   0.0094787
        k(   84) = (   0.4690476   0.3458636   0.0000000), wk =   0.0094787
        k(   85) = (   0.4666667   0.3502626   0.0000000), wk =   0.0094787
        k(   86) = (   0.4642857   0.3546615   0.0000000), wk =   0.0094787
        k(   87) = (   0.4619048   0.3590604   0.0000000), wk =   0.0094787
        k(   88) = (   0.4595238   0.3634593   0.0000000), wk =   0.0094787
        k(   89) = (   0.4571429   0.3678582   0.0000000), wk =   0.0094787
        k(   90) = (   0.4547619   0.3722571   0.0000000), wk =   0.0094787
        k(   91) = (   0.4523810   0.3766560   0.0000000), wk =   0.0094787
        k(   92) = (   0.4500000   0.3810549   0.0000000), wk =   0.0094787
        k(   93) = (   0.4476190   0.3854538   0.0000000), wk =   0.0094787
        k(   94) = (   0.4452381   0.3898527   0.0000000), wk =   0.0094787
        k(   95) = (   0.4428571   0.3942516   0.0000000), wk =   0.0094787
        k(   96) = (   0.4404762   0.3986505   0.0000000), wk =   0.0094787
        k(   97) = (   0.4380952   0.4030494   0.0000000), wk =   0.0094787
        k(   98) = (   0.4357143   0.4074483   0.0000000), wk =   0.0094787
        k(   99) = (   0.4333333   0.4118472   0.0000000), wk =   0.0094787
        k(  100) = (   0.4309524   0.4162461   0.0000000), wk =   0.0094787
        k(  101) = (   0.4285714   0.4206450   0.0000000), wk =   0.0094787
        k(  102) = (   0.4261905   0.4250439   0.0000000), wk =   0.0094787
        k(  103) = (   0.4238095   0.4294428   0.0000000), wk =   0.0094787
        k(  104) = (   0.4214286   0.4338417   0.0000000), wk =   0.0094787
        k(  105) = (   0.4190476   0.4382406   0.0000000), wk =   0.0094787
        k(  106) = (   0.4166667   0.4426395   0.0000000), wk =   0.0094787
        k(  107) = (   0.4142857   0.4470384   0.0000000), wk =   0.0094787
        k(  108) = (   0.4119048   0.4514373   0.0000000), wk =   0.0094787
        k(  109) = (   0.4095238   0.4558362   0.0000000), wk =   0.0094787
        k(  110) = (   0.4071429   0.4602351   0.0000000), wk =   0.0094787
        k(  111) = (   0.4047619   0.4646340   0.0000000), wk =   0.0094787
        k(  112) = (   0.4023810   0.4690329   0.0000000), wk =   0.0094787
        k(  113) = (   0.4000000   0.4734318   0.0000000), wk =   0.0094787
        k(  114) = (   0.3976190   0.4778307   0.0000000), wk =   0.0094787
        k(  115) = (   0.3952381   0.4822296   0.0000000), wk =   0.0094787
        k(  116) = (   0.3928571   0.4866285   0.0000000), wk =   0.0094787
        k(  117) = (   0.3904762   0.4910274   0.0000000), wk =   0.0094787
        k(  118) = (   0.3880952   0.4954263   0.0000000), wk =   0.0094787
        k(  119) = (   0.3857143   0.4998252   0.0000000), wk =   0.0094787
        k(  120) = (   0.3833333   0.5042241   0.0000000), wk =   0.0094787
        k(  121) = (   0.3809524   0.5086230   0.0000000), wk =   0.0094787
        k(  122) = (   0.3785714   0.5130219   0.0000000), wk =   0.0094787
        k(  123) = (   0.3761905   0.5174208   0.0000000), wk =   0.0094787
        k(  124) = (   0.3738095   0.5218197   0.0000000), wk =   0.0094787
        k(  125) = (   0.3714286   0.5262186   0.0000000), wk =   0.0094787
        k(  126) = (   0.3690476   0.5306175   0.0000000), wk =   0.0094787
        k(  127) = (   0.3666667   0.5350164   0.0000000), wk =   0.0094787
        k(  128) = (   0.3642857   0.5394153   0.0000000), wk =   0.0094787
        k(  129) = (   0.3619048   0.5438142   0.0000000), wk =   0.0094787
        k(  130) = (   0.3595238   0.5482131   0.0000000), wk =   0.0094787
        k(  131) = (   0.3571429   0.5526120   0.0000000), wk =   0.0094787
        k(  132) = (   0.3547619   0.5570109   0.0000000), wk =   0.0094787
        k(  133) = (   0.3523810   0.5614098   0.0000000), wk =   0.0094787
        k(  134) = (   0.3500000   0.5658087   0.0000000), wk =   0.0094787
        k(  135) = (   0.3476190   0.5702076   0.0000000), wk =   0.0094787
        k(  136) = (   0.3452381   0.5746065   0.0000000), wk =   0.0094787
        k(  137) = (   0.3428571   0.5790054   0.0000000), wk =   0.0094787
        k(  138) = (   0.3404762   0.5834043   0.0000000), wk =   0.0094787
        k(  139) = (   0.3380952   0.5878032   0.0000000), wk =   0.0094787
        k(  140) = (   0.3357143   0.5922021   0.0000000), wk =   0.0094787
        k(  141) = (   0.3333333   0.5966010   0.0000000), wk =   0.0094787
        k(  142) = (   0.3285714   0.5880782   0.0000000), wk =   0.0094787
        k(  143) = (   0.3238095   0.5795553   0.0000000), wk =   0.0094787
        k(  144) = (   0.3190476   0.5710324   0.0000000), wk =   0.0094787
        k(  145) = (   0.3142857   0.5625096   0.0000000), wk =   0.0094787
        k(  146) = (   0.3095238   0.5539867   0.0000000), wk =   0.0094787
        k(  147) = (   0.3047619   0.5454638   0.0000000), wk =   0.0094787
        k(  148) = (   0.3000000   0.5369409   0.0000000), wk =   0.0094787
        k(  149) = (   0.2952381   0.5284181   0.0000000), wk =   0.0094787
        k(  150) = (   0.2904762   0.5198952   0.0000000), wk =   0.0094787
        k(  151) = (   0.2857143   0.5113723   0.0000000), wk =   0.0094787
        k(  152) = (   0.2809524   0.5028495   0.0000000), wk =   0.0094787
        k(  153) = (   0.2761905   0.4943266   0.0000000), wk =   0.0094787
        k(  154) = (   0.2714286   0.4858037   0.0000000), wk =   0.0094787
        k(  155) = (   0.2666667   0.4772808   0.0000000), wk =   0.0094787
        k(  156) = (   0.2619048   0.4687580   0.0000000), wk =   0.0094787
        k(  157) = (   0.2571429   0.4602351   0.0000000), wk =   0.0094787
        k(  158) = (   0.2523810   0.4517122   0.0000000), wk =   0.0094787
        k(  159) = (   0.2476190   0.4431894   0.0000000), wk =   0.0094787
        k(  160) = (   0.2428571   0.4346665   0.0000000), wk =   0.0094787
        k(  161) = (   0.2380952   0.4261436   0.0000000), wk =   0.0094787
        k(  162) = (   0.2333333   0.4176207   0.0000000), wk =   0.0094787
        k(  163) = (   0.2285714   0.4090979   0.0000000), wk =   0.0094787
        k(  164) = (   0.2238095   0.4005750   0.0000000), wk =   0.0094787
        k(  165) = (   0.2190476   0.3920521   0.0000000), wk =   0.0094787
        k(  166) = (   0.2142857   0.3835292   0.0000000), wk =   0.0094787
        k(  167) = (   0.2095238   0.3750064   0.0000000), wk =   0.0094787
        k(  168) = (   0.2047619   0.3664835   0.0000000), wk =   0.0094787
        k(  169) = (   0.2000000   0.3579606   0.0000000), wk =   0.0094787
        k(  170) = (   0.1952381   0.3494378   0.0000000), wk =   0.0094787
        k(  171) = (   0.1904762   0.3409149   0.0000000), wk =   0.0094787
        k(  172) = (   0.1857143   0.3323920   0.0000000), wk =   0.0094787
        k(  173) = (   0.1809524   0.3238691   0.0000000), wk =   0.0094787
        k(  174) = (   0.1761905   0.3153463   0.0000000), wk =   0.0094787
        k(  175) = (   0.1714286   0.3068234   0.0000000), wk =   0.0094787
        k(  176) = (   0.1666667   0.2983005   0.0000000), wk =   0.0094787
        k(  177) = (   0.1619048   0.2897777   0.0000000), wk =   0.0094787
        k(  178) = (   0.1571429   0.2812548   0.0000000), wk =   0.0094787
        k(  179) = (   0.1523810   0.2727319   0.0000000), wk =   0.0094787
        k(  180) = (   0.1476190   0.2642090   0.0000000), wk =   0.0094787
        k(  181) = (   0.1428571   0.2556862   0.0000000), wk =   0.0094787
        k(  182) = (   0.1380952   0.2471633   0.0000000), wk =   0.0094787
        k(  183) = (   0.1333333   0.2386404   0.0000000), wk =   0.0094787
        k(  184) = (   0.1285714   0.2301175   0.0000000), wk =   0.0094787
        k(  185) = (   0.1238095   0.2215947   0.0000000), wk =   0.0094787
        k(  186) = (   0.1190476   0.2130718   0.0000000), wk =   0.0094787
        k(  187) = (   0.1142857   0.2045489   0.0000000), wk =   0.0094787
        k(  188) = (   0.1095238   0.1960261   0.0000000), wk =   0.0094787
        k(  189) = (   0.1047619   0.1875032   0.0000000), wk =   0.0094787
        k(  190) = (   0.1000000   0.1789803   0.0000000), wk =   0.0094787
        k(  191) = (   0.0952381   0.1704574   0.0000000), wk =   0.0094787
        k(  192) = (   0.0904762   0.1619346   0.0000000), wk =   0.0094787
        k(  193) = (   0.0857143   0.1534117   0.0000000), wk =   0.0094787
        k(  194) = (   0.0809524   0.1448888   0.0000000), wk =   0.0094787
        k(  195) = (   0.0761905   0.1363660   0.0000000), wk =   0.0094787
        k(  196) = (   0.0714286   0.1278431   0.0000000), wk =   0.0094787
        k(  197) = (   0.0666667   0.1193202   0.0000000), wk =   0.0094787
        k(  198) = (   0.0619048   0.1107973   0.0000000), wk =   0.0094787
        k(  199) = (   0.0571429   0.1022745   0.0000000), wk =   0.0094787
        k(  200) = (   0.0523810   0.0937516   0.0000000), wk =   0.0094787
        k(  201) = (   0.0476190   0.0852287   0.0000000), wk =   0.0094787
        k(  202) = (   0.0428571   0.0767058   0.0000000), wk =   0.0094787
        k(  203) = (   0.0380952   0.0681830   0.0000000), wk =   0.0094787
        k(  204) = (   0.0333333   0.0596601   0.0000000), wk =   0.0094787
        k(  205) = (   0.0285714   0.0511372   0.0000000), wk =   0.0094787
        k(  206) = (   0.0238095   0.0426144   0.0000000), wk =   0.0094787
        k(  207) = (   0.0190476   0.0340915   0.0000000), wk =   0.0094787
        k(  208) = (   0.0142857   0.0255686   0.0000000), wk =   0.0094787
        k(  209) = (   0.0095238   0.0170457   0.0000000), wk =   0.0094787
        k(  210) = (   0.0047619   0.0085229   0.0000000), wk =   0.0094787
        k(  211) = (   0.0000000   0.0000000   0.0000000), wk =   0.0094787

                       cryst. coord.
        k(    1) = (   0.0000000   0.0000000   0.0000000), wk =   0.0094787
        k(    2) = (   0.0071429   0.0000000   0.0000000), wk =   0.0094787
        k(    3) = (   0.0142857   0.0000000   0.0000000), wk =   0.0094787
        k(    4) = (   0.0214286   0.0000000   0.0000000), wk =   0.0094787
        k(    5) = (   0.0285714   0.0000000   0.0000000), wk =   0.0094787
        k(    6) = (   0.0357143   0.0000000   0.0000000), wk =   0.0094787
        k(    7) = (   0.0428571   0.0000000   0.0000000), wk =   0.0094787
        k(    8) = (   0.0500000   0.0000000   0.0000000), wk =   0.0094787
        k(    9) = (   0.0571429   0.0000000   0.0000000), wk =   0.0094787
        k(   10) = (   0.0642857   0.0000000   0.0000000), wk =   0.0094787
        k(   11) = (   0.0714286   0.0000000   0.0000000), wk =   0.0094787
        k(   12) = (   0.0785714  -0.0000000   0.0000000), wk =   0.0094787
        k(   13) = (   0.0857143   0.0000000   0.0000000), wk =   0.0094787
        k(   14) = (   0.0928571   0.0000000   0.0000000), wk =   0.0094787
        k(   15) = (   0.1000000   0.0000000   0.0000000), wk =   0.0094787
        k(   16) = (   0.1071429   0.0000000   0.0000000), wk =   0.0094787
        k(   17) = (   0.1142857   0.0000000   0.0000000), wk =   0.0094787
        k(   18) = (   0.1214286   0.0000000   0.0000000), wk =   0.0094787
        k(   19) = (   0.1285714   0.0000000   0.0000000), wk =   0.0094787
        k(   20) = (   0.1357143   0.0000000   0.0000000), wk =   0.0094787
        k(   21) = (   0.1428571   0.0000000   0.0000000), wk =   0.0094787
        k(   22) = (   0.1500000  -0.0000000   0.0000000), wk =   0.0094787
        k(   23) = (   0.1571429  -0.0000000   0.0000000), wk =   0.0094787
        k(   24) = (   0.1642857   0.0000000   0.0000000), wk =   0.0094787
        k(   25) = (   0.1714286   0.0000000   0.0000000), wk =   0.0094787
        k(   26) = (   0.1785714   0.0000000   0.0000000), wk =   0.0094787
        k(   27) = (   0.1857143   0.0000000   0.0000000), wk =   0.0094787
        k(   28) = (   0.1928571   0.0000000   0.0000000), wk =   0.0094787
        k(   29) = (   0.2000000   0.0000000   0.0000000), wk =   0.0094787
        k(   30) = (   0.2071429   0.0000000   0.0000000), wk =   0.0094787
        k(   31) = (   0.2142857   0.0000000   0.0000000), wk =   0.0094787
        k(   32) = (   0.2214286   0.0000000   0.0000000), wk =   0.0094787
        k(   33) = (   0.2285714   0.0000000   0.0000000), wk =   0.0094787
        k(   34) = (   0.2357143   0.0000000   0.0000000), wk =   0.0094787
        k(   35) = (   0.2428571   0.0000000   0.0000000), wk =   0.0094787
        k(   36) = (   0.2500000   0.0000000   0.0000000), wk =   0.0094787
        k(   37) = (   0.2571429   0.0000000   0.0000000), wk =   0.0094787
        k(   38) = (   0.2642857  -0.0000000   0.0000000), wk =   0.0094787
        k(   39) = (   0.2714286   0.0000000   0.0000000), wk =   0.0094787
        k(   40) = (   0.2785714  -0.0000000   0.0000000), wk =   0.0094787
        k(   41) = (   0.2857143   0.0000000   0.0000000), wk =   0.0094787
        k(   42) = (   0.2928571   0.0000000   0.0000000), wk =   0.0094787
        k(   43) = (   0.3000000  -0.0000000   0.0000000), wk =   0.0094787
        k(   44) = (   0.3071429   0.0000000   0.0000000), wk =   0.0094787
        k(   45) = (   0.3142857  -0.0000000   0.0000000), wk =   0.0094787
        k(   46) = (   0.3214286   0.0000000   0.0000000), wk =   0.0094787
        k(   47) = (   0.3285714   0.0000000   0.0000000), wk =   0.0094787
        k(   48) = (   0.3357143   0.0000000   0.0000000), wk =   0.0094787
        k(   49) = (   0.3428571   0.0000000   0.0000000), wk =   0.0094787
        k(   50) = (   0.3500000  -0.0000000   0.0000000), wk =   0.0094787
        k(   51) = (   0.3571429   0.0000000   0.0000000), wk =   0.0094787
        k(   52) = (   0.3642857   0.0000000   0.0000000), wk =   0.0094787
        k(   53) = (   0.3714286   0.0000000   0.0000000), wk =   0.0094787
        k(   54) = (   0.3785714   0.0000000   0.0000000), wk =   0.0094787
        k(   55) = (   0.3857143   0.0000000   0.0000000), wk =   0.0094787
        k(   56) = (   0.3928571   0.0000000   0.0000000), wk =   0.0094787
        k(   57) = (   0.4000000   0.0000000   0.0000000), wk =   0.0094787
        k(   58) = (   0.4071429   0.0000000   0.0000000), wk =   0.0094787
        k(   59) = (   0.4142857   0.0000000   0.0000000), wk =   0.0094787
        k(   60) = (   0.4214286   0.0000000   0.0000000), wk =   0.0094787
        k(   61) = (   0.4285714   0.0000000   0.0000000), wk =   0.0094787
        k(   62) = (   0.4357143   0.0000000   0.0000000), wk =   0.0094787
        k(   63) = (   0.4428571   0.0000000   0.0000000), wk =   0.0094787
        k(   64) = (   0.4500000   0.0000000   0.0000000), wk =   0.0094787
        k(   65) = (   0.4571429   0.0000000   0.0000000), wk =   0.0094787
        k(   66) = (   0.4642857  -0.0000000   0.0000000), wk =   0.0094787
        k(   67) = (   0.4714286   0.0000000   0.0000000), wk =   0.0094787
        k(   68) = (   0.4785714   0.0000000   0.0000000), wk =   0.0094787
        k(   69) = (   0.4857143   0.0000000   0.0000000), wk =   0.0094787
        k(   70) = (   0.4928571   0.0000000   0.0000000), wk =   0.0094787
        k(   71) = (   0.5000000   0.0000000   0.0000000), wk =   0.0094787
        k(   72) = (   0.4976190   0.0047619   0.0000000), wk =   0.0094787
        k(   73) = (   0.4952381   0.0095238   0.0000000), wk =   0.0094787
        k(   74) = (   0.4928571   0.0142857   0.0000000), wk =   0.0094787
        k(   75) = (   0.4904762   0.0190476   0.0000000), wk =   0.0094787
        k(   76) = (   0.4880952   0.0238095   0.0000000), wk =   0.0094787
        k(   77) = (   0.4857143   0.0285714   0.0000000), wk =   0.0094787
        k(   78) = (   0.4833333   0.0333333   0.0000000), wk =   0.0094787
        k(   79) = (   0.4809524   0.0380952   0.0000000), wk =   0.0094787
        k(   80) = (   0.4785714   0.0428571   0.0000000), wk =   0.0094787
        k(   81) = (   0.4761905   0.0476190   0.0000000), wk =   0.0094787
        k(   82) = (   0.4738095   0.0523810   0.0000000), wk =   0.0094787
        k(   83) = (   0.4714286   0.0571429   0.0000000), wk =   0.0094787
        k(   84) = (   0.4690476   0.0619048   0.0000000), wk =   0.0094787
        k(   85) = (   0.4666667   0.0666667   0.0000000), wk =   0.0094787
        k(   86) = (   0.4642857   0.0714286   0.0000000), wk =   0.0094787
        k(   87) = (   0.4619048   0.0761905   0.0000000), wk =   0.0094787
        k(   88) = (   0.4595238   0.0809524   0.0000000), wk =   0.0094787
        k(   89) = (   0.4571429   0.0857143   0.0000000), wk =   0.0094787
        k(   90) = (   0.4547619   0.0904762   0.0000000), wk =   0.0094787
        k(   91) = (   0.4523810   0.0952381   0.0000000), wk =   0.0094787
        k(   92) = (   0.4500000   0.1000000   0.0000000), wk =   0.0094787
        k(   93) = (   0.4476190   0.1047619   0.0000000), wk =   0.0094787
        k(   94) = (   0.4452381   0.1095238   0.0000000), wk =   0.0094787
        k(   95) = (   0.4428571   0.1142857   0.0000000), wk =   0.0094787
        k(   96) = (   0.4404762   0.1190476   0.0000000), wk =   0.0094787
        k(   97) = (   0.4380952   0.1238095   0.0000000), wk =   0.0094787
        k(   98) = (   0.4357143   0.1285714   0.0000000), wk =   0.0094787
        k(   99) = (   0.4333333   0.1333333   0.0000000), wk =   0.0094787
        k(  100) = (   0.4309524   0.1380952   0.0000000), wk =   0.0094787
        k(  101) = (   0.4285714   0.1428571   0.0000000), wk =   0.0094787
        k(  102) = (   0.4261905   0.1476190   0.0000000), wk =   0.0094787
        k(  103) = (   0.4238095   0.1523810   0.0000000), wk =   0.0094787
        k(  104) = (   0.4214286   0.1571429   0.0000000), wk =   0.0094787
        k(  105) = (   0.4190476   0.1619048   0.0000000), wk =   0.0094787
        k(  106) = (   0.4166667   0.1666667   0.0000000), wk =   0.0094787
        k(  107) = (   0.4142857   0.1714286   0.0000000), wk =   0.0094787
        k(  108) = (   0.4119048   0.1761905   0.0000000), wk =   0.0094787
        k(  109) = (   0.4095238   0.1809524   0.0000000), wk =   0.0094787
        k(  110) = (   0.4071429   0.1857143   0.0000000), wk =   0.0094787
        k(  111) = (   0.4047619   0.1904762   0.0000000), wk =   0.0094787
        k(  112) = (   0.4023810   0.1952381   0.0000000), wk =   0.0094787
        k(  113) = (   0.4000000   0.2000000   0.0000000), wk =   0.0094787
        k(  114) = (   0.3976190   0.2047619   0.0000000), wk =   0.0094787
        k(  115) = (   0.3952381   0.2095238   0.0000000), wk =   0.0094787
        k(  116) = (   0.3928571   0.2142857   0.0000000), wk =   0.0094787
        k(  117) = (   0.3904762   0.2190476   0.0000000), wk =   0.0094787
        k(  118) = (   0.3880952   0.2238095   0.0000000), wk =   0.0094787
        k(  119) = (   0.3857143   0.2285714   0.0000000), wk =   0.0094787
        k(  120) = (   0.3833333   0.2333333   0.0000000), wk =   0.0094787
        k(  121) = (   0.3809524   0.2380952   0.0000000), wk =   0.0094787
        k(  122) = (   0.3785714   0.2428571   0.0000000), wk =   0.0094787
        k(  123) = (   0.3761905   0.2476190   0.0000000), wk =   0.0094787
        k(  124) = (   0.3738095   0.2523810   0.0000000), wk =   0.0094787
        k(  125) = (   0.3714286   0.2571429   0.0000000), wk =   0.0094787
        k(  126) = (   0.3690476   0.2619048   0.0000000), wk =   0.0094787
        k(  127) = (   0.3666667   0.2666667   0.0000000), wk =   0.0094787
        k(  128) = (   0.3642857   0.2714286   0.0000000), wk =   0.0094787
        k(  129) = (   0.3619048   0.2761905   0.0000000), wk =   0.0094787
        k(  130) = (   0.3595238   0.2809524   0.0000000), wk =   0.0094787
        k(  131) = (   0.3571429   0.2857143   0.0000000), wk =   0.0094787
        k(  132) = (   0.3547619   0.2904762   0.0000000), wk =   0.0094787
        k(  133) = (   0.3523810   0.2952381   0.0000000), wk =   0.0094787
        k(  134) = (   0.3500000   0.3000000   0.0000000), wk =   0.0094787
        k(  135) = (   0.3476190   0.3047619   0.0000000), wk =   0.0094787
        k(  136) = (   0.3452381   0.3095238   0.0000000), wk =   0.0094787
        k(  137) = (   0.3428571   0.3142857   0.0000000), wk =   0.0094787
        k(  138) = (   0.3404762   0.3190476   0.0000000), wk =   0.0094787
        k(  139) = (   0.3380952   0.3238095   0.0000000), wk =   0.0094787
        k(  140) = (   0.3357143   0.3285714   0.0000000), wk =   0.0094787
        k(  141) = (   0.3333333   0.3333333   0.0000000), wk =   0.0094787
        k(  142) = (   0.3285714   0.3285714   0.0000000), wk =   0.0094787
        k(  143) = (   0.3238095   0.3238095   0.0000000), wk =   0.0094787
        k(  144) = (   0.3190476   0.3190476   0.0000000), wk =   0.0094787
        k(  145) = (   0.3142857   0.3142857   0.0000000), wk =   0.0094787
        k(  146) = (   0.3095238   0.3095238   0.0000000), wk =   0.0094787
        k(  147) = (   0.3047619   0.3047619   0.0000000), wk =   0.0094787
        k(  148) = (   0.3000000   0.3000000   0.0000000), wk =   0.0094787
        k(  149) = (   0.2952381   0.2952381   0.0000000), wk =   0.0094787
        k(  150) = (   0.2904762   0.2904762   0.0000000), wk =   0.0094787
        k(  151) = (   0.2857143   0.2857143   0.0000000), wk =   0.0094787
        k(  152) = (   0.2809524   0.2809524   0.0000000), wk =   0.0094787
        k(  153) = (   0.2761905   0.2761905   0.0000000), wk =   0.0094787
        k(  154) = (   0.2714286   0.2714286   0.0000000), wk =   0.0094787
        k(  155) = (   0.2666667   0.2666667   0.0000000), wk =   0.0094787
        k(  156) = (   0.2619048   0.2619048   0.0000000), wk =   0.0094787
        k(  157) = (   0.2571429   0.2571429   0.0000000), wk =   0.0094787
        k(  158) = (   0.2523810   0.2523810   0.0000000), wk =   0.0094787
        k(  159) = (   0.2476190   0.2476190   0.0000000), wk =   0.0094787
        k(  160) = (   0.2428571   0.2428571   0.0000000), wk =   0.0094787
        k(  161) = (   0.2380952   0.2380952   0.0000000), wk =   0.0094787
        k(  162) = (   0.2333333   0.2333333   0.0000000), wk =   0.0094787
        k(  163) = (   0.2285714   0.2285714   0.0000000), wk =   0.0094787
        k(  164) = (   0.2238095   0.2238095   0.0000000), wk =   0.0094787
        k(  165) = (   0.2190476   0.2190476   0.0000000), wk =   0.0094787
        k(  166) = (   0.2142857   0.2142857   0.0000000), wk =   0.0094787
        k(  167) = (   0.2095238   0.2095238   0.0000000), wk =   0.0094787
        k(  168) = (   0.2047619   0.2047619   0.0000000), wk =   0.0094787
        k(  169) = (   0.2000000   0.2000000   0.0000000), wk =   0.0094787
        k(  170) = (   0.1952381   0.1952381   0.0000000), wk =   0.0094787
        k(  171) = (   0.1904762   0.1904762   0.0000000), wk =   0.0094787
        k(  172) = (   0.1857143   0.1857143   0.0000000), wk =   0.0094787
        k(  173) = (   0.1809524   0.1809524   0.0000000), wk =   0.0094787
        k(  174) = (   0.1761905   0.1761905   0.0000000), wk =   0.0094787
        k(  175) = (   0.1714286   0.1714286   0.0000000), wk =   0.0094787
        k(  176) = (   0.1666667   0.1666667   0.0000000), wk =   0.0094787
        k(  177) = (   0.1619048   0.1619048   0.0000000), wk =   0.0094787
        k(  178) = (   0.1571429   0.1571429   0.0000000), wk =   0.0094787
        k(  179) = (   0.1523810   0.1523810   0.0000000), wk =   0.0094787
        k(  180) = (   0.1476190   0.1476190   0.0000000), wk =   0.0094787
        k(  181) = (   0.1428571   0.1428571   0.0000000), wk =   0.0094787
        k(  182) = (   0.1380952   0.1380952   0.0000000), wk =   0.0094787
        k(  183) = (   0.1333333   0.1333333   0.0000000), wk =   0.0094787
        k(  184) = (   0.1285714   0.1285714   0.0000000), wk =   0.0094787
        k(  185) = (   0.1238095   0.1238095   0.0000000), wk =   0.0094787
        k(  186) = (   0.1190476   0.1190476   0.0000000), wk =   0.0094787
        k(  187) = (   0.1142857   0.1142857   0.0000000), wk =   0.0094787
        k(  188) = (   0.1095238   0.1095238   0.0000000), wk =   0.0094787
        k(  189) = (   0.1047619   0.1047619   0.0000000), wk =   0.0094787
        k(  190) = (   0.1000000   0.1000000   0.0000000), wk =   0.0094787
        k(  191) = (   0.0952381   0.0952381   0.0000000), wk =   0.0094787
        k(  192) = (   0.0904762   0.0904762   0.0000000), wk =   0.0094787
        k(  193) = (   0.0857143   0.0857143   0.0000000), wk =   0.0094787
        k(  194) = (   0.0809524   0.0809524   0.0000000), wk =   0.0094787
        k(  195) = (   0.0761905   0.0761905   0.0000000), wk =   0.0094787
        k(  196) = (   0.0714286   0.0714286   0.0000000), wk =   0.0094787
        k(  197) = (   0.0666667   0.0666667   0.0000000), wk =   0.0094787
        k(  198) = (   0.0619048   0.0619048   0.0000000), wk =   0.0094787
        k(  199) = (   0.0571429   0.0571429   0.0000000), wk =   0.0094787
        k(  200) = (   0.0523810   0.0523810   0.0000000), wk =   0.0094787
        k(  201) = (   0.0476190   0.0476190   0.0000000), wk =   0.0094787
        k(  202) = (   0.0428571   0.0428571   0.0000000), wk =   0.0094787
        k(  203) = (   0.0380952   0.0380952   0.0000000), wk =   0.0094787
        k(  204) = (   0.0333333   0.0333333   0.0000000), wk =   0.0094787
        k(  205) = (   0.0285714   0.0285714   0.0000000), wk =   0.0094787
        k(  206) = (   0.0238095   0.0238095   0.0000000), wk =   0.0094787
        k(  207) = (   0.0190476   0.0190476   0.0000000), wk =   0.0094787
        k(  208) = (   0.0142857   0.0142857   0.0000000), wk =   0.0094787
        k(  209) = (   0.0095238   0.0095238   0.0000000), wk =   0.0094787
        k(  210) = (   0.0047619   0.0047619   0.0000000), wk =   0.0094787
        k(  211) = (   0.0000000   0.0000000   0.0000000), wk =   0.0094787

     Dense  grid:   477063 G-vectors     FFT dimensions: (  64,  60, 300)

     Smooth grid:   120743 G-vectors     FFT dimensions: (  40,  40, 192)

     Dynamical RAM for                 wfc:       0.96 MB

     Dynamical RAM for     wfc (w. buffer):       0.96 MB

     Dynamical RAM for           str. fact:       0.61 MB

     Dynamical RAM for           local pot:       0.00 MB

     Dynamical RAM for          nlocal pot:       0.86 MB

     Dynamical RAM for                qrad:       3.59 MB

     Dynamical RAM for          rho,v,vnew:       2.05 MB

     Dynamical RAM for           G-vectors:       1.18 MB

     Dynamical RAM for          h,s,v(r/c):       1.83 MB

     Dynamical RAM for          <psi|beta>:       0.14 MB

     Dynamical RAM for                 psi:       1.92 MB

     Dynamical RAM for                hpsi:       1.92 MB

     Dynamical RAM for      wfcinit/wfcrot:       2.15 MB

     Estimated static dynamical RAM per process >      12.06 MB

     Estimated max dynamical RAM per process >      17.86 MB

     Estimated total dynamical RAM >     428.67 MB

     The potential is recalculated from file :
     tmp/Sb2Te3-uatsx-c1-5.0.save/charge-density

     Starting wfcs are random

     Band Structure Calculation
     Davidson diagonalization with overlap

     Computing kpt #:     1  of   211
     total cpu time spent up to now is        4.0 secs

     Computing kpt #:     2  of   211
     total cpu time spent up to now is        6.6 secs

     Computing kpt #:     3  of   211
     total cpu time spent up to now is        9.2 secs

     Computing kpt #:     4  of   211
     total cpu time spent up to now is       11.5 secs

     Computing kpt #:     5  of   211
     total cpu time spent up to now is       13.8 secs

     Computing kpt #:     6  of   211
     total cpu time spent up to now is       17.0 secs

     Computing kpt #:     7  of   211
     total cpu time spent up to now is       19.5 secs

     Computing kpt #:     8  of   211
     total cpu time spent up to now is       21.9 secs

     Computing kpt #:     9  of   211
     total cpu time spent up to now is       24.1 secs

     Computing kpt #:    10  of   211
     total cpu time spent up to now is       26.3 secs

     Computing kpt #:    11  of   211
     total cpu time spent up to now is       28.2 secs

     Computing kpt #:    12  of   211
     total cpu time spent up to now is       30.3 secs

     Computing kpt #:    13  of   211
     total cpu time spent up to now is       32.3 secs

     Computing kpt #:    14  of   211
     total cpu time spent up to now is       34.5 secs

     Computing kpt #:    15  of   211
     total cpu time spent up to now is       36.6 secs

     Computing kpt #:    16  of   211
     total cpu time spent up to now is       38.9 secs

     Computing kpt #:    17  of   211
     total cpu time spent up to now is       41.2 secs

     Computing kpt #:    18  of   211
     total cpu time spent up to now is       43.5 secs

     Computing kpt #:    19  of   211
     total cpu time spent up to now is       46.0 secs

     Computing kpt #:    20  of   211
     total cpu time spent up to now is       48.5 secs

     Computing kpt #:    21  of   211
     total cpu time spent up to now is       51.7 secs

     Computing kpt #:    22  of   211
     total cpu time spent up to now is       54.3 secs

     Computing kpt #:    23  of   211
     total cpu time spent up to now is       56.5 secs

     Computing kpt #:    24  of   211
     total cpu time spent up to now is       59.0 secs

     Computing kpt #:    25  of   211
     total cpu time spent up to now is       61.3 secs

     Computing kpt #:    26  of   211
     total cpu time spent up to now is       63.6 secs

     Computing kpt #:    27  of   211
     total cpu time spent up to now is       65.9 secs

     Computing kpt #:    28  of   211
     total cpu time spent up to now is       68.1 secs

     Computing kpt #:    29  of   211
     total cpu time spent up to now is       70.6 secs

     Computing kpt #:    30  of   211
     total cpu time spent up to now is       73.2 secs

     Computing kpt #:    31  of   211
     total cpu time spent up to now is       75.8 secs

     Computing kpt #:    32  of   211
     total cpu time spent up to now is       78.1 secs

     Computing kpt #:    33  of   211
     total cpu time spent up to now is       80.2 secs

     Computing kpt #:    34  of   211
     total cpu time spent up to now is       82.7 secs

     Computing kpt #:    35  of   211
     total cpu time spent up to now is       84.9 secs

     Computing kpt #:    36  of   211
     total cpu time spent up to now is       87.1 secs

     Computing kpt #:    37  of   211
     total cpu time spent up to now is       89.3 secs

     Computing kpt #:    38  of   211
     total cpu time spent up to now is       91.5 secs

     Computing kpt #:    39  of   211
     total cpu time spent up to now is       93.7 secs

     Computing kpt #:    40  of   211
     total cpu time spent up to now is       96.2 secs

     Computing kpt #:    41  of   211
     total cpu time spent up to now is       98.3 secs

     Computing kpt #:    42  of   211
     total cpu time spent up to now is      100.8 secs

     Computing kpt #:    43  of   211
     total cpu time spent up to now is      103.2 secs

     Computing kpt #:    44  of   211
     total cpu time spent up to now is      105.3 secs

     Computing kpt #:    45  of   211
     total cpu time spent up to now is      107.5 secs

     Computing kpt #:    46  of   211
     total cpu time spent up to now is      109.6 secs

     Computing kpt #:    47  of   211
     total cpu time spent up to now is      112.0 secs

     Computing kpt #:    48  of   211
     total cpu time spent up to now is      114.0 secs

     Computing kpt #:    49  of   211
     total cpu time spent up to now is      116.0 secs

     Computing kpt #:    50  of   211
     total cpu time spent up to now is      118.0 secs

     Computing kpt #:    51  of   211
     total cpu time spent up to now is      119.9 secs

     Computing kpt #:    52  of   211
     total cpu time spent up to now is      121.9 secs

     Computing kpt #:    53  of   211
     total cpu time spent up to now is      123.9 secs

     Computing kpt #:    54  of   211
     total cpu time spent up to now is      126.0 secs

     Computing kpt #:    55  of   211
     total cpu time spent up to now is      128.1 secs

     Computing kpt #:    56  of   211
     total cpu time spent up to now is      130.2 secs

     Computing kpt #:    57  of   211
     total cpu time spent up to now is      132.4 secs

     Computing kpt #:    58  of   211
     total cpu time spent up to now is      134.5 secs

     Computing kpt #:    59  of   211
     total cpu time spent up to now is      136.5 secs

     Computing kpt #:    60  of   211
     total cpu time spent up to now is      138.7 secs

     Computing kpt #:    61  of   211
     total cpu time spent up to now is      140.9 secs

     Computing kpt #:    62  of   211
     total cpu time spent up to now is      143.3 secs

     Computing kpt #:    63  of   211
     total cpu time spent up to now is      145.3 secs

     Computing kpt #:    64  of   211
     total cpu time spent up to now is      147.5 secs

     Computing kpt #:    65  of   211
     total cpu time spent up to now is      149.8 secs

     Computing kpt #:    66  of   211
     total cpu time spent up to now is      152.1 secs

     Computing kpt #:    67  of   211
     total cpu time spent up to now is      154.7 secs

     Computing kpt #:    68  of   211
     total cpu time spent up to now is      157.3 secs

     Computing kpt #:    69  of   211
     total cpu time spent up to now is      159.7 secs

     Computing kpt #:    70  of   211
     total cpu time spent up to now is      162.1 secs

     Computing kpt #:    71  of   211
     total cpu time spent up to now is      164.4 secs

     Computing kpt #:    72  of   211
     total cpu time spent up to now is      166.7 secs

     Computing kpt #:    73  of   211
     total cpu time spent up to now is      169.0 secs

     Computing kpt #:    74  of   211
     total cpu time spent up to now is      171.4 secs

     Computing kpt #:    75  of   211
     total cpu time spent up to now is      173.7 secs

     Computing kpt #:    76  of   211
     total cpu time spent up to now is      176.2 secs

     Computing kpt #:    77  of   211
     total cpu time spent up to now is      178.6 secs

     Computing kpt #:    78  of   211
     total cpu time spent up to now is      180.9 secs

     Computing kpt #:    79  of   211
     total cpu time spent up to now is      183.3 secs

     Computing kpt #:    80  of   211
     total cpu time spent up to now is      185.5 secs

     Computing kpt #:    81  of   211
     total cpu time spent up to now is      187.8 secs

     Computing kpt #:    82  of   211
     total cpu time spent up to now is      190.0 secs

     Computing kpt #:    83  of   211
     total cpu time spent up to now is      192.3 secs

     Computing kpt #:    84  of   211
     total cpu time spent up to now is      194.5 secs

     Computing kpt #:    85  of   211
     total cpu time spent up to now is      196.8 secs

     Computing kpt #:    86  of   211
     total cpu time spent up to now is      199.0 secs

     Computing kpt #:    87  of   211
     total cpu time spent up to now is      201.3 secs

     Computing kpt #:    88  of   211
     total cpu time spent up to now is      203.6 secs

     Computing kpt #:    89  of   211
     total cpu time spent up to now is      205.9 secs

     Computing kpt #:    90  of   211
     total cpu time spent up to now is      208.4 secs

     Computing kpt #:    91  of   211
     total cpu time spent up to now is      210.9 secs

     Computing kpt #:    92  of   211
     total cpu time spent up to now is      213.3 secs

     Computing kpt #:    93  of   211
     total cpu time spent up to now is      215.9 secs

     Computing kpt #:    94  of   211
     total cpu time spent up to now is      218.3 secs

     Computing kpt #:    95  of   211
     total cpu time spent up to now is      221.2 secs

     Computing kpt #:    96  of   211
     total cpu time spent up to now is      223.5 secs

     Computing kpt #:    97  of   211
     total cpu time spent up to now is      225.9 secs

     Computing kpt #:    98  of   211
     total cpu time spent up to now is      228.2 secs

     Computing kpt #:    99  of   211
     total cpu time spent up to now is      230.5 secs

     Computing kpt #:   100  of   211
     total cpu time spent up to now is      232.8 secs

     Computing kpt #:   101  of   211
     total cpu time spent up to now is      235.0 secs

     Computing kpt #:   102  of   211
     total cpu time spent up to now is      237.3 secs

     Computing kpt #:   103  of   211
     total cpu time spent up to now is      239.5 secs

     Computing kpt #:   104  of   211
     total cpu time spent up to now is      241.7 secs

     Computing kpt #:   105  of   211
     total cpu time spent up to now is      244.0 secs

     Computing kpt #:   106  of   211
     total cpu time spent up to now is      246.5 secs

     Computing kpt #:   107  of   211
     total cpu time spent up to now is      249.0 secs

     Computing kpt #:   108  of   211
     total cpu time spent up to now is      251.3 secs

     Computing kpt #:   109  of   211
     total cpu time spent up to now is      253.9 secs

     Computing kpt #:   110  of   211
     total cpu time spent up to now is      256.2 secs

     Computing kpt #:   111  of   211
     total cpu time spent up to now is      258.6 secs

     Computing kpt #:   112  of   211
     total cpu time spent up to now is      261.0 secs

     Computing kpt #:   113  of   211
     total cpu time spent up to now is      263.2 secs

     Computing kpt #:   114  of   211
     total cpu time spent up to now is      265.6 secs

     Computing kpt #:   115  of   211
     total cpu time spent up to now is      267.9 secs

     Computing kpt #:   116  of   211
     total cpu time spent up to now is      270.2 secs

     Computing kpt #:   117  of   211
     total cpu time spent up to now is      272.6 secs

     Computing kpt #:   118  of   211
     total cpu time spent up to now is      274.9 secs

     Computing kpt #:   119  of   211
     total cpu time spent up to now is      277.2 secs

     Computing kpt #:   120  of   211
     total cpu time spent up to now is      279.7 secs

     Computing kpt #:   121  of   211
     total cpu time spent up to now is      282.0 secs

     Computing kpt #:   122  of   211
     total cpu time spent up to now is      284.4 secs

     Computing kpt #:   123  of   211
     total cpu time spent up to now is      287.0 secs

     Computing kpt #:   124  of   211
     c_bands:  1 eigenvalues not converged
     total cpu time spent up to now is      290.3 secs

     Computing kpt #:   125  of   211
     total cpu time spent up to now is      293.0 secs

     Computing kpt #:   126  of   211
     total cpu time spent up to now is      295.6 secs

     Computing kpt #:   127  of   211
     total cpu time spent up to now is      298.0 secs

     Computing kpt #:   128  of   211
     total cpu time spent up to now is      300.6 secs

     Computing kpt #:   129  of   211
     total cpu time spent up to now is      303.1 secs

     Computing kpt #:   130  of   211
     total cpu time spent up to now is      305.6 secs

     Computing kpt #:   131  of   211
     total cpu time spent up to now is      308.2 secs

     Computing kpt #:   132  of   211
     total cpu time spent up to now is      310.7 secs

     Computing kpt #:   133  of   211
     total cpu time spent up to now is      313.3 secs

     Computing kpt #:   134  of   211
     total cpu time spent up to now is      315.9 secs

     Computing kpt #:   135  of   211
     total cpu time spent up to now is      318.5 secs

     Computing kpt #:   136  of   211
     total cpu time spent up to now is      321.1 secs

     Computing kpt #:   137  of   211
     total cpu time spent up to now is      323.7 secs

     Computing kpt #:   138  of   211
     total cpu time spent up to now is      326.3 secs

     Computing kpt #:   139  of   211
     total cpu time spent up to now is      328.9 secs

     Computing kpt #:   140  of   211
     total cpu time spent up to now is      331.6 secs

     Computing kpt #:   141  of   211
     total cpu time spent up to now is      334.5 secs

     Computing kpt #:   142  of   211
     total cpu time spent up to now is      337.2 secs

     Computing kpt #:   143  of   211
     total cpu time spent up to now is      339.8 secs

     Computing kpt #:   144  of   211
     total cpu time spent up to now is      342.3 secs

     Computing kpt #:   145  of   211
     total cpu time spent up to now is      344.8 secs

     Computing kpt #:   146  of   211
     total cpu time spent up to now is      347.3 secs

     Computing kpt #:   147  of   211
     total cpu time spent up to now is      349.8 secs

     Computing kpt #:   148  of   211
     total cpu time spent up to now is      352.2 secs

     Computing kpt #:   149  of   211
     total cpu time spent up to now is      354.9 secs

     Computing kpt #:   150  of   211
     total cpu time spent up to now is      357.3 secs

     Computing kpt #:   151  of   211
     total cpu time spent up to now is      359.7 secs

     Computing kpt #:   152  of   211
     total cpu time spent up to now is      362.0 secs

     Computing kpt #:   153  of   211
     total cpu time spent up to now is      364.3 secs

     Computing kpt #:   154  of   211
     total cpu time spent up to now is      366.6 secs

     Computing kpt #:   155  of   211
     total cpu time spent up to now is      368.9 secs

     Computing kpt #:   156  of   211
     total cpu time spent up to now is      371.1 secs

     Computing kpt #:   157  of   211
     total cpu time spent up to now is      373.5 secs

     Computing kpt #:   158  of   211
     total cpu time spent up to now is      375.8 secs

     Computing kpt #:   159  of   211
     total cpu time spent up to now is      378.0 secs

     Computing kpt #:   160  of   211
     total cpu time spent up to now is      380.3 secs

     Computing kpt #:   161  of   211
     total cpu time spent up to now is      382.7 secs

     Computing kpt #:   162  of   211
     total cpu time spent up to now is      385.3 secs

     Computing kpt #:   163  of   211
     total cpu time spent up to now is      387.8 secs

     Computing kpt #:   164  of   211
     total cpu time spent up to now is      390.1 secs

     Computing kpt #:   165  of   211
     total cpu time spent up to now is      392.3 secs

     Computing kpt #:   166  of   211
     total cpu time spent up to now is      394.5 secs

     Computing kpt #:   167  of   211
     total cpu time spent up to now is      397.0 secs

     Computing kpt #:   168  of   211
     total cpu time spent up to now is      399.5 secs

     Computing kpt #:   169  of   211
     total cpu time spent up to now is      401.8 secs

     Computing kpt #:   170  of   211
     total cpu time spent up to now is      403.9 secs

     Computing kpt #:   171  of   211
     total cpu time spent up to now is      406.0 secs

     Computing kpt #:   172  of   211
     total cpu time spent up to now is      408.0 secs

     Computing kpt #:   173  of   211
     total cpu time spent up to now is      410.1 secs

     Computing kpt #:   174  of   211
     total cpu time spent up to now is      412.2 secs

     Computing kpt #:   175  of   211
     total cpu time spent up to now is      414.4 secs

     Computing kpt #:   176  of   211
     total cpu time spent up to now is      416.8 secs

     Computing kpt #:   177  of   211
     total cpu time spent up to now is      419.3 secs

     Computing kpt #:   178  of   211
     total cpu time spent up to now is      422.4 secs

     Computing kpt #:   179  of   211
     total cpu time spent up to now is      424.9 secs

     Computing kpt #:   180  of   211
     total cpu time spent up to now is      427.3 secs

     Computing kpt #:   181  of   211
     total cpu time spent up to now is      429.6 secs

     Computing kpt #:   182  of   211
     total cpu time spent up to now is      432.0 secs

     Computing kpt #:   183  of   211
     total cpu time spent up to now is      434.3 secs

     Computing kpt #:   184  of   211
     total cpu time spent up to now is      436.6 secs

     Computing kpt #:   185  of   211
     total cpu time spent up to now is      438.9 secs

     Computing kpt #:   186  of   211
     total cpu time spent up to now is      441.1 secs

     Computing kpt #:   187  of   211
     total cpu time spent up to now is      443.3 secs

     Computing kpt #:   188  of   211
     total cpu time spent up to now is      445.5 secs

     Computing kpt #:   189  of   211
     total cpu time spent up to now is      447.7 secs

     Computing kpt #:   190  of   211
     total cpu time spent up to now is      450.0 secs

     Computing kpt #:   191  of   211
     total cpu time spent up to now is      452.5 secs

     Computing kpt #:   192  of   211
     total cpu time spent up to now is      455.7 secs

     Computing kpt #:   193  of   211
     total cpu time spent up to now is      458.4 secs

     Computing kpt #:   194  of   211
     total cpu time spent up to now is      460.8 secs

     Computing kpt #:   195  of   211
     total cpu time spent up to now is      463.1 secs

     Computing kpt #:   196  of   211
     total cpu time spent up to now is      465.4 secs

     Computing kpt #:   197  of   211
     total cpu time spent up to now is      467.6 secs

     Computing kpt #:   198  of   211
     total cpu time spent up to now is      469.9 secs

     Computing kpt #:   199  of   211
     total cpu time spent up to now is      472.1 secs

     Computing kpt #:   200  of   211
     total cpu time spent up to now is      474.3 secs

     Computing kpt #:   201  of   211
     total cpu time spent up to now is      476.8 secs

     Computing kpt #:   202  of   211
     total cpu time spent up to now is      479.1 secs

     Computing kpt #:   203  of   211
     total cpu time spent up to now is      482.4 secs

     Computing kpt #:   204  of   211
     total cpu time spent up to now is      484.8 secs

     Computing kpt #:   205  of   211
     total cpu time spent up to now is      487.1 secs

     Computing kpt #:   206  of   211
     total cpu time spent up to now is      489.4 secs

     Computing kpt #:   207  of   211
     total cpu time spent up to now is      492.2 secs

     Computing kpt #:   208  of   211
     total cpu time spent up to now is      494.7 secs

     Computing kpt #:   209  of   211
     total cpu time spent up to now is      497.2 secs

     Computing kpt #:   210  of   211
     total cpu time spent up to now is      499.8 secs

     Computing kpt #:   211  of   211
     total cpu time spent up to now is      502.6 secs

     ethr =  1.28E-10,  avg # of iterations = 58.5

     total cpu time spent up to now is      502.6 secs

     End of band structure calculation

          k = 0.0000 0.0000 0.0000 ( 15117 PWs)   bands (ev):

   -34.9054 -34.9049 -34.9020 -34.9015 -34.8694 -34.8660 -34.8614 -34.8579
   -34.8515 -34.8481 -34.8004 -34.7977 -34.7803 -34.7605 -34.7579 -27.6963
   -27.6946 -27.6935 -27.6917 -27.6890 -27.6863 -27.6842 -27.6814 -27.6808
   -27.6780 -10.7821 -10.2385  -9.1696  -6.4476  -5.1372  -0.3964  -0.1767
    -0.0425   0.1187   0.2410   0.5599   0.5741   0.7718   1.0044   1.8327
     2.4711   2.6423   3.2908   3.6213   3.7247   6.0521   6.2304   6.8838
     7.0534   7.3913   7.7240   8.1685   8.3775   8.4312   8.5006   9.0875
     9.2758   9.5128   9.8727   9.9001  10.3621  10.6584  11.1853  11.2305
    11.3603  11.5477  12.6668  12.7022  13.4511  13.7527  14.0188  14.0708
    14.3057  14.8588  15.2191  15.5485  15.7690  15.9025  15.9335  16.1640
    16.4553  16.4630  16.5893  16.6430  16.7724  16.9515  17.0057  17.1003
    17.2459  17.3763  17.4410  17.6016  17.6861  17.8955  18.4446  18.4733
    18.5809  18.7758  18.9770  19.0381

          k = 0.0071 0.0041 0.0000 ( 15121 PWs)   bands (ev):

   -34.9054 -34.9049 -34.9020 -34.9015 -34.8694 -34.8660 -34.8614 -34.8579
   -34.8515 -34.8481 -34.8004 -34.7977 -34.7803 -34.7605 -34.7579 -27.6963
   -27.6946 -27.6935 -27.6917 -27.6890 -27.6863 -27.6842 -27.6814 -27.6808
   -27.6780 -10.7817 -10.2381  -9.1694  -6.4477  -5.1381  -0.3982  -0.1853
    -0.0440   0.1198   0.2400   0.5505   0.5844   0.7731   1.0064   1.8390
     2.4675   2.6420   3.2957   3.6216   3.7245   6.0528   6.2304   6.8840
     7.0516   7.3910   7.7239   8.1711   8.3731   8.4360   8.4985   9.0850
     9.2833   9.5148   9.8693   9.9022  10.3630  10.6610  11.1593  11.2405
    11.3724  11.5551  12.6647  12.7034  13.4427  13.7591  14.0032  14.0864
    14.3085  14.8582  15.1976  15.5646  15.7703  15.8851  15.9511  16.1606
    16.3953  16.4800  16.5703  16.6524  16.8191  16.9480  17.0025  17.1192
    17.2387  17.3846  17.4303  17.6203  17.6787  17.9070  18.3638  18.4789
    18.6066  18.8222  18.9431  19.0727

          k = 0.0143 0.0082 0.0000 ( 15123 PWs)   bands (ev):

   -34.9054 -34.9049 -34.9020 -34.9015 -34.8694 -34.8660 -34.8614 -34.8579
   -34.8515 -34.8481 -34.8004 -34.7977 -34.7803 -34.7605 -34.7579 -27.6963
   -27.6946 -27.6935 -27.6917 -27.6890 -27.6863 -27.6842 -27.6814 -27.6808
   -27.6780 -10.7805 -10.2370  -9.1688  -6.4481  -5.1407  -0.4035  -0.2097
    -0.0479   0.1217   0.2376   0.5349   0.6022   0.7770   1.0128   1.8573
     2.4569   2.6414   3.3101   3.6223   3.7242   6.0550   6.2305   6.8845
     7.0461   7.3902   7.7236   8.1784   8.3628   8.4465   8.4938   9.0783
     9.3045   9.5208   9.8600   9.9079  10.3660  10.6682  11.1150  11.2402
    11.4074  11.5755  12.6588  12.7067  13.4202  13.7746  13.9776  14.1127
    14.3173  14.8527  15.1519  15.5891  15.7833  15.8573  15.9736  16.1517
    16.3298  16.4442  16.5087  16.7392  16.8621  16.9357  17.0291  17.1519
    17.2308  17.3886  17.4254  17.6571  17.6707  17.9333  18.2703  18.3923
    18.6842  18.9004  18.9143  19.0381

          k = 0.0214 0.0124 0.0000 ( 15119 PWs)   bands (ev):

   -34.9054 -34.9049 -34.9020 -34.9015 -34.8694 -34.8660 -34.8614 -34.8579
   -34.8515 -34.8481 -34.8004 -34.7977 -34.7803 -34.7605 -34.7579 -27.6963
   -27.6946 -27.6935 -27.6917 -27.6890 -27.6863 -27.6842 -27.6814 -27.6808
   -27.6780 -10.7785 -10.2352  -9.1678  -6.4488  -5.1450  -0.4122  -0.2474
    -0.0535   0.1215   0.2347   0.5147   0.6242   0.7832   1.0244   1.8866
     2.4393   2.6417   3.3325   3.6232   3.7241   6.0586   6.2306   6.8852
     7.0373   7.3891   7.7235   8.1894   8.3503   8.4535   8.4936   9.0693
     9.3362   9.5305   9.8463   9.9166  10.3716  10.6787  11.0691  11.2253
    11.4569  11.6054  12.6497  12.7114  13.3890  13.7899  13.9569  14.1380
    14.3334  14.8308  15.1136  15.5895  15.8106  15.8297  15.9831  16.1460
    16.2865  16.3455  16.5005  16.8114  16.8588  16.9490  17.0773  17.1665
    17.2542  17.3862  17.4376  17.6581  17.7147  17.9558  18.1971  18.2860
    18.7229  18.9089  18.9822  19.0146

          k = 0.0286 0.0165 0.0000 ( 15117 PWs)   bands (ev):

   -34.9054 -34.9049 -34.9020 -34.9014 -34.8694 -34.8660 -34.8614 -34.8579
   -34.8515 -34.8481 -34.8004 -34.7977 -34.7803 -34.7605 -34.7579 -27.6963
   -27.6945 -27.6935 -27.6917 -27.6890 -27.6863 -27.6842 -27.6814 -27.6808
   -27.6780 -10.7757 -10.2327  -9.1663  -6.4497  -5.1511  -0.4241  -0.2951
    -0.0604   0.1169   0.2319   0.4888   0.6503   0.7914   1.0422   1.9255
     2.4156   2.6438   3.3612   3.6238   3.7251   6.0635   6.2308   6.8857
     7.0253   7.3877   7.7241   8.2022   8.3373   8.4496   8.5061   9.0595
     9.3751   9.5433   9.8294   9.9284  10.3803  10.6899  11.0263  11.2034
    11.5127  11.6420  12.6378  12.7174  13.3538  13.7947  13.9479  14.1611
    14.3564  14.7828  15.1030  15.5646  15.7689  15.8509  15.9931  16.1507
    16.2365  16.2779  16.5025  16.7945  16.8710  17.0098  17.1082  17.1543
    17.3182  17.4071  17.4478  17.6721  17.7583  17.9563  18.1546  18.1921
    18.6991  18.9420  18.9654  19.0885

          k = 0.0357 0.0206 0.0000 ( 15107 PWs)   bands (ev):

   -34.9054 -34.9049 -34.9020 -34.9014 -34.8694 -34.8660 -34.8614 -34.8579
   -34.8515 -34.8481 -34.8004 -34.7977 -34.7803 -34.7605 -34.7579 -27.6963
   -27.6945 -27.6934 -27.6917 -27.6890 -27.6863 -27.6842 -27.6815 -27.6808
   -27.6780 -10.7720 -10.2294  -9.1645  -6.4509  -5.1589  -0.4390  -0.3500
    -0.0687   0.1073   0.2295   0.4566   0.6799   0.8012   1.0663   1.9722
     2.3871   2.6483   3.3941   3.6238   3.7282   6.0699   6.2309   6.8856
     7.0111   7.3863   7.7259   8.2134   8.3263   8.4404   8.5272   9.0499
     9.4179   9.5587   9.8110   9.9436  10.3927  10.6986  10.9897  11.1791
    11.5707  11.6832  12.6232  12.7245  13.3176  13.7844  13.9516  14.1844
    14.3835  14.7145  15.1196  15.5245  15.7033  15.8364  16.0362  16.1105
    16.1975  16.2799  16.5104  16.7554  16.8576  17.0861  17.1054  17.1609
    17.3695  17.4458  17.4884  17.6908  17.7845  17.9564  18.0563  18.2031
    18.6521  18.8964  19.0032  19.1578

          k = 0.0429 0.0247 0.0000 ( 15117 PWs)   bands (ev):

   -34.9054 -34.9049 -34.9020 -34.9014 -34.8694 -34.8660 -34.8614 -34.8579
   -34.8515 -34.8481 -34.8004 -34.7977 -34.7803 -34.7605 -34.7579 -27.6963
   -27.6945 -27.6934 -27.6917 -27.6890 -27.6863 -27.6842 -27.6815 -27.6808
   -27.6780 -10.7676 -10.2254  -9.1623  -6.4524  -5.1684  -0.4566  -0.4102
    -0.0784   0.0935   0.2269   0.4187   0.7125   0.8122   1.0956   2.0253
     2.3556   2.6553   3.4290   3.6227   3.7345   6.0776   6.2309   6.8837
     6.9958   7.3851   7.7294   8.2174   8.3218   8.4317   8.5524   9.0410
     9.4612   9.5761   9.7937   9.9625  10.4089  10.7009  10.9630  11.1545
    11.6289  11.7281  12.6062  12.7328  13.2825  13.7633  13.9604  14.2107
    14.4079  14.6427  15.1528  15.4714  15.6300  15.7940  16.0146  16.1013
    16.2139  16.3004  16.5253  16.7193  16.8285  17.0663  17.1143  17.2392
    17.3768  17.4857  17.5781  17.6874  17.8162  17.9421  17.9991  18.2494
    18.5996  18.8508  18.9976  19.1554

          k = 0.0500 0.0289 0.0000 ( 15109 PWs)   bands (ev):

   -34.9054 -34.9049 -34.9020 -34.9014 -34.8694 -34.8660 -34.8614 -34.8579
   -34.8515 -34.8481 -34.8004 -34.7977 -34.7803 -34.7605 -34.7579 -27.6962
   -27.6945 -27.6934 -27.6917 -27.6890 -27.6863 -27.6842 -27.6815 -27.6808
   -27.6780 -10.7624 -10.2207  -9.1596  -6.4542  -5.1796  -0.4782  -0.4727
    -0.0897   0.0763   0.2237   0.3763   0.7471   0.8243   1.1288   2.0831
     2.3232   2.6647   3.4636   3.6212   3.7450   6.0866   6.2308   6.8784
     6.9816   7.3844   7.7347   8.2098   8.3282   8.4251   8.5805   9.0332
     9.4995   9.5958   9.7816   9.9854  10.4291  10.6935  10.9490  11.1312
    11.6857  11.7762  12.5871  12.7426  13.2496  13.7370  13.9669  14.2408
    14.4129  14.5911  15.1935  15.4017  15.5629  15.7361  15.9364  16.1416
    16.2423  16.3305  16.5451  16.6941  16.7944  17.0224  17.1093  17.3347
    17.3740  17.4927  17.6741  17.7057  17.8152  17.9014  18.0538  18.3047
    18.5465  18.8079  18.9661  19.1135

          k = 0.0571 0.0330 0.0000 ( 15111 PWs)   bands (ev):

   -34.9054 -34.9049 -34.9020 -34.9014 -34.8694 -34.8660 -34.8614 -34.8579
   -34.8515 -34.8481 -34.8004 -34.7977 -34.7803 -34.7605 -34.7579 -27.6962
   -27.6945 -27.6934 -27.6917 -27.6890 -27.6863 -27.6842 -27.6815 -27.6808
   -27.6780 -10.7564 -10.2153  -9.1566  -6.4563  -5.1925  -0.5416  -0.4982
    -0.1030   0.0564   0.2194   0.3310   0.7825   0.8379   1.1638   2.1439
     2.2920   2.6764   3.4945   3.6210   3.7602   6.0969   6.2304   6.8676
     6.9710   7.3841   7.7420   8.1926   8.3435   8.4210   8.6107   9.0267
     9.5251   9.6196   9.7796  10.0124  10.4531  10.6763  10.9476  11.1102
    11.7398  11.8271  12.5666  12.7537  13.2198  13.7088  13.9665  14.2712
    14.3823  14.5840  15.2329  15.3142  15.5110  15.6680  15.8730  16.1600
    16.2752  16.3645  16.5598  16.6870  16.7670  16.9785  17.0865  17.3424
    17.4285  17.4892  17.6969  17.7691  17.7929  17.9754  18.1199  18.3619
    18.4949  18.7697  18.9243  19.0661

          k = 0.0643 0.0371 0.0000 ( 15104 PWs)   bands (ev):

   -34.9054 -34.9049 -34.9020 -34.9014 -34.8694 -34.8660 -34.8614 -34.8579
   -34.8515 -34.8481 -34.8004 -34.7977 -34.7803 -34.7605 -34.7579 -27.6962
   -27.6945 -27.6934 -27.6917 -27.6890 -27.6863 -27.6843 -27.6815 -27.6808
   -27.6780 -10.7496 -10.2092  -9.1532  -6.4587  -5.2071  -0.6104  -0.5218
    -0.1183   0.0338   0.2139   0.2847   0.8159   0.8551   1.1983   2.2036
     2.2672   2.6901   3.5175   3.6257   3.7805   6.1083   6.2296   6.8502
     6.9657   7.3845   7.7513   8.1705   8.3635   8.4190   8.6429   9.0221
     9.5325   9.6483   9.7920  10.0432  10.4803  10.6526  10.9558  11.0921
    11.7906  11.8800  12.5455  12.7663  13.1937  13.6803  13.9543  14.2811
    14.3543  14.6078  15.2149  15.2562  15.4767  15.6021  15.8234  16.1645
    16.2998  16.3958  16.5636  16.6788  16.7763  16.9365  17.0525  17.2787
    17.4911  17.5187  17.6236  17.8461  17.8835  18.0719  18.1899  18.4142
    18.4490  18.7391  18.8793  19.0180

          k = 0.0714 0.0412 0.0000 ( 15100 PWs)   bands (ev):

   -34.9054 -34.9049 -34.9020 -34.9014 -34.8694 -34.8660 -34.8614 -34.8579
   -34.8515 -34.8481 -34.8004 -34.7977 -34.7803 -34.7605 -34.7579 -27.6962
   -27.6945 -27.6934 -27.6917 -27.6890 -27.6862 -27.6843 -27.6815 -27.6808
   -27.6780 -10.7419 -10.2024  -9.1494  -6.4614  -5.2234  -0.6807  -0.5467
    -0.1358   0.0080   0.2071   0.2397   0.8413   0.8813   1.2301   2.2251
     2.2867   2.7059   3.5288   3.6388   3.8059   6.1210   6.2283   6.8272
     6.9652   7.3855   7.7627   8.1467   8.3854   8.4184   8.6767   9.0195
     9.5247   9.6786   9.8186  10.0772  10.5094  10.6278  10.9698  11.0778
    11.8379  11.9336  12.5250  12.7803  13.1715  13.6524  13.9243  14.2520
    14.3730  14.6419  15.1102  15.2404  15.4645  15.5560  15.7850  16.1599
    16.3154  16.4121  16.5637  16.6600  16.8234  16.8966  17.0141  17.2066
    17.4584  17.5536  17.6492  17.9398  17.9669  18.1763  18.2606  18.4036
    18.4667  18.7200  18.8356  18.9721

          k = 0.0786 0.0454 0.0000 ( 15102 PWs)   bands (ev):

   -34.9054 -34.9049 -34.9019 -34.9014 -34.8694 -34.8660 -34.8614 -34.8579
   -34.8515 -34.8481 -34.8004 -34.7977 -34.7803 -34.7605 -34.7579 -27.6962
   -27.6945 -27.6934 -27.6917 -27.6890 -27.6862 -27.6843 -27.6815 -27.6808
   -27.6780 -10.7335 -10.1948  -9.1452  -6.4646  -5.2413  -0.7519  -0.5726
    -0.1556  -0.0225   0.1947   0.2027   0.8583   0.9165   1.2568   2.2111
     2.3488   2.7234   3.5298   3.6591   3.8360   6.1347   6.2263   6.8004
     6.9684   7.3874   7.7760   8.1233   8.4075   8.4184   8.7119   9.0194
     9.5083   9.7080   9.8556  10.1130  10.5346  10.6113  10.9863  11.0681
    11.8814  11.9862  12.5067  12.7957  13.1535  13.6256  13.8722  14.2292
    14.4037  14.6778  15.0049  15.1806  15.4609  15.5442  15.7598  16.1468
    16.3271  16.4078  16.5504  16.6624  16.8469  16.8758  16.9812  17.1543
    17.3620  17.6115  17.7229  18.0345  18.0434  18.2624  18.3289  18.3946
    18.5026  18.7130  18.7995  18.9330

          k = 0.0857 0.0495 0.0000 ( 15095 PWs)   bands (ev):

   -34.9054 -34.9049 -34.9019 -34.9014 -34.8694 -34.8660 -34.8614 -34.8579
   -34.8515 -34.8481 -34.8004 -34.7977 -34.7803 -34.7604 -34.7579 -27.6962
   -27.6945 -27.6934 -27.6917 -27.6890 -27.6862 -27.6843 -27.6815 -27.6808
   -27.6780 -10.7243 -10.1866  -9.1407  -6.4680  -5.2607  -0.8237  -0.5991
    -0.1776  -0.0589   0.1607   0.1921   0.8716   0.9555   1.2765   2.2012
     2.4148   2.7426   3.5253   3.6830   3.8700   6.1494   6.2233   6.7719
     6.9739   7.3901   7.7912   8.1013   8.4181   8.4294   8.7482   9.0222
     9.4880   9.7358   9.8987  10.1484  10.5409  10.6215  11.0033  11.0639
    11.9209  12.0362  12.4922  12.8122  13.1397  13.6005  13.8014  14.2254
    14.4315  14.7079  14.9060  15.0960  15.4521  15.5525  15.7565  16.1257
    16.3375  16.3895  16.5182  16.6876  16.7955  16.8838  16.9631  17.1533
    17.2624  17.6759  17.7992  18.1051  18.1235  18.2862  18.3866  18.4606
    18.5377  18.7067  18.7792  18.9123

          k = 0.0929 0.0536 0.0000 ( 15093 PWs)   bands (ev):

   -34.9054 -34.9049 -34.9019 -34.9014 -34.8694 -34.8660 -34.8614 -34.8579
   -34.8515 -34.8481 -34.8004 -34.7977 -34.7803 -34.7604 -34.7579 -27.6962
   -27.6945 -27.6933 -27.6917 -27.6890 -27.6862 -27.6843 -27.6815 -27.6808
   -27.6780 -10.7143 -10.1776  -9.1358  -6.4719  -5.2818  -0.8958  -0.6260
    -0.2015  -0.1021   0.1309   0.1832   0.8834   0.9956   1.2873   2.1998
     2.4806   2.7635   3.5189   3.7079   3.9069   6.1651   6.2189   6.7428
     6.9811   7.3937   7.8081   8.0815   8.4168   8.4506   8.7853   9.0281
     9.4672   9.7621   9.9450  10.1799  10.5331  10.6570  11.0193  11.0662
    11.9555  12.0821  12.4838  12.8295  13.1301  13.5775  13.7197  14.2372
    14.4522  14.7039  14.8396  15.0040  15.4434  15.5532  15.7820  16.0975
    16.3381  16.3716  16.4792  16.7103  16.7268  16.8723  16.9564  17.1594
    17.2125  17.7438  17.8731  18.1322  18.2020  18.2979  18.4309  18.5341
    18.6025  18.7068  18.7624  18.9290

          k = 0.1000 0.0577 0.0000 ( 15091 PWs)   bands (ev):

   -34.9054 -34.9048 -34.9019 -34.9014 -34.8694 -34.8660 -34.8614 -34.8579
   -34.8515 -34.8481 -34.8004 -34.7977 -34.7803 -34.7604 -34.7579 -27.6961
   -27.6945 -27.6933 -27.6917 -27.6890 -27.6862 -27.6843 -27.6816 -27.6808
   -27.6780 -10.7035 -10.1680  -9.1306  -6.4762  -5.3044  -0.9680  -0.6531
    -0.2270  -0.1514   0.1069   0.1742   0.8943   1.0360   1.2885   2.2081
     2.5448   2.7857   3.5130   3.7331   3.9457   6.1817   6.2130   6.7146
     6.9896   7.3984   7.8268   8.0643   8.4137   8.4711   8.8228   9.0377
     9.4478   9.7870   9.9928  10.2036  10.5297  10.7032  11.0342  11.0751
    11.9840  12.1230  12.4831  12.8474  13.1239  13.5570  13.6342  14.2599
    14.4636  14.6324  14.8210  14.9310  15.4333  15.5465  15.8296  16.0641
    16.3081  16.3730  16.4414  16.6467  16.7134  16.8670  16.9669  17.0721
    17.2875  17.8128  17.9411  18.1231  18.2758  18.3116  18.4736  18.5544
    18.6918  18.7487  18.7530  18.9801

          k = 0.1071 0.0619 0.0000 ( 15089 PWs)   bands (ev):

   -34.9054 -34.9048 -34.9019 -34.9014 -34.8694 -34.8660 -34.8614 -34.8579
   -34.8515 -34.8481 -34.8004 -34.7977 -34.7803 -34.7604 -34.7579 -27.6961
   -27.6945 -27.6933 -27.6917 -27.6890 -27.6862 -27.6843 -27.6816 -27.6808
   -27.6780 -10.6920 -10.1577  -9.1251  -6.4810  -5.3285  -1.0400  -0.6801
    -0.2539  -0.2054   0.0872   0.1655   0.9043   1.0759   1.2801   2.2260
     2.6065   2.8091   3.5096   3.7585   3.9852   6.1988   6.2053   6.6881
     6.9991   7.4041   7.8470   8.0502   8.4081   8.4909   8.8602   9.0512
     9.4310   9.8104  10.0408  10.2167  10.5379  10.7552  11.0496  11.0895
    12.0051  12.1587  12.4914  12.8656  13.1190  13.5339  13.5563  14.2904
    14.4629  14.5371  14.7564  14.9334  15.4152  15.5457  15.8869  16.0275
    16.2631  16.3630  16.4154  16.5744  16.6877  16.8718  16.9703  17.0228
    17.3709  17.8793  17.9927  18.1116  18.3116  18.3473  18.4833  18.5824
    18.6958  18.8229  18.8440  19.0454

          k = 0.1143 0.0660 0.0000 ( 15091 PWs)   bands (ev):

   -34.9054 -34.9048 -34.9019 -34.9014 -34.8694 -34.8660 -34.8614 -34.8579
   -34.8515 -34.8481 -34.8004 -34.7977 -34.7803 -34.7604 -34.7579 -27.6961
   -27.6945 -27.6933 -27.6917 -27.6890 -27.6862 -27.6844 -27.6816 -27.6808
   -27.6780 -10.6796 -10.1467  -9.1192  -6.4862  -5.3542  -1.1116  -0.7069
    -0.2819  -0.2628   0.0701   0.1575   0.9136   1.1149   1.2630   2.2525
     2.6648   2.8332   3.5100   3.7843   4.0248   6.1942   6.2175   6.6642
     7.0095   7.4111   7.8688   8.0393   8.3994   8.5101   8.8969   9.0688
     9.4178   9.8320  10.0877  10.2196  10.5590  10.8112  11.0675  11.1082
    12.0179  12.1898  12.5084  12.8840  13.1110  13.4693  13.5319  14.3260
    14.4171  14.4731  14.6617  14.9764  15.3868  15.5565  15.9422  15.9924
    16.2095  16.3267  16.3911  16.5303  16.6495  16.8469  16.9501  17.0592
    17.4529  17.9358  18.0064  18.1317  18.3098  18.4112  18.4548  18.6166
    18.7019  18.9268  18.9442  19.0892

          k = 0.1214 0.0701 0.0000 ( 15089 PWs)   bands (ev):

   -34.9054 -34.9048 -34.9019 -34.9014 -34.8694 -34.8660 -34.8614 -34.8579
   -34.8515 -34.8481 -34.8004 -34.7977 -34.7803 -34.7604 -34.7579 -27.6961
   -27.6945 -27.6933 -27.6917 -27.6890 -27.6862 -27.6844 -27.6816 -27.6808
   -27.6780 -10.6665 -10.1350  -9.1130  -6.4920  -5.3812  -1.1827  -0.7333
    -0.3224  -0.3107   0.0543   0.1506   0.9221   1.1515   1.2395   2.2862
     2.7191   2.8574   3.5157   3.8107   4.0639   6.1809   6.2363   6.6437
     7.0208   7.4194   7.8919   8.0319   8.3877   8.5289   8.9324   9.0908
     9.4087   9.8518  10.1301  10.2180  10.5907  10.8699  11.0883  11.1318
    12.0227  12.2174  12.5324  12.9028  13.0922  13.4096  13.5237  14.3194
    14.3629  14.4513  14.5682  15.0295  15.3511  15.5764  15.9387  16.0098
    16.1490  16.2779  16.3469  16.5166  16.6182  16.7821  16.9758  17.1126
    17.5282  17.9573  18.0121  18.1702  18.3151  18.4218  18.4633  18.6182
    18.7507  18.9924  19.0426  19.0820

          k = 0.1286 0.0742 0.0000 ( 15083 PWs)   bands (ev):

   -34.9053 -34.9048 -34.9019 -34.9014 -34.8694 -34.8660 -34.8614 -34.8579
   -34.8515 -34.8481 -34.8003 -34.7977 -34.7803 -34.7604 -34.7579 -27.6960
   -27.6945 -27.6932 -27.6917 -27.6890 -27.6862 -27.6844 -27.6816 -27.6808
   -27.6780 -10.6526 -10.1226  -9.1066  -6.4982  -5.4096  -1.2532  -0.7593
    -0.3833  -0.3402   0.0387   0.1448   0.9297   1.1763   1.2201   2.3252
     2.7692   2.8809   3.5280   3.8378   4.1020   6.1645   6.2557   6.6273
     7.0327   7.4290   7.9162   8.0281   8.3728   8.5472   8.9664   9.1167
     9.4043   9.8696  10.1566  10.2264  10.6299  10.9296  11.1110  11.1626
    12.0207  12.2420  12.5611  12.9218  13.0544  13.3739  13.5217  14.2189
    14.3764  14.4292  14.5015  15.0865  15.3112  15.6007  15.8991  16.0371
    16.0938  16.2271  16.3027  16.4892  16.6206  16.7137  17.0197  17.1703
    17.5921  17.9393  18.0335  18.1958  18.3150  18.4158  18.4972  18.6161
    18.7961  18.9448  19.0498  19.1362

          k = 0.1357 0.0784 0.0000 ( 15092 PWs)   bands (ev):

   -34.9053 -34.9048 -34.9019 -34.9014 -34.8694 -34.8660 -34.8614 -34.8579
   -34.8514 -34.8480 -34.8003 -34.7977 -34.7803 -34.7604 -34.7579 -27.6960
   -27.6945 -27.6932 -27.6917 -27.6890 -27.6862 -27.6844 -27.6816 -27.6808
   -27.6780 -10.6379 -10.1096  -9.0998  -6.5051  -5.4394  -1.3230  -0.7846
    -0.4449  -0.3701   0.0229   0.1405   0.9365   1.1573   1.2382   2.3678
     2.8153   2.9028   3.5477   3.8657   4.1389   6.1449   6.2755   6.6152
     7.0455   7.4402   7.9415   8.0283   8.3551   8.5650   8.9991   9.1457
     9.4048   9.8855  10.1573  10.2571  10.6741  10.9889  11.1349  11.2028
    12.0134  12.2637  12.5922  12.9384  12.9996  13.3626  13.5259  14.1208
    14.3120  14.4194  14.5018  15.1447  15.2693  15.6248  15.8585  15.9831
    16.0786  16.1998  16.2701  16.4406  16.6441  16.6592  17.0740  17.2286
    17.6390  17.9171  18.0444  18.1989  18.2817  18.4592  18.5221  18.5951
    18.8211  18.8934  19.0190  19.1921

          k = 0.1429 0.0825 0.0000 ( 15081 PWs)   bands (ev):

   -34.9053 -34.9048 -34.9019 -34.9013 -34.8694 -34.8660 -34.8614 -34.8579
   -34.8514 -34.8480 -34.8003 -34.7977 -34.7803 -34.7604 -34.7579 -27.6960
   -27.6945 -27.6932 -27.6917 -27.6890 -27.6862 -27.6844 -27.6817 -27.6808
   -27.6780 -10.6225 -10.0960  -9.0928  -6.5125  -5.4704  -1.3919  -0.8092
    -0.5068  -0.4003   0.0064   0.1374   0.9423   1.1190   1.2702   2.4124
     2.8578   2.9225   3.5752   3.8946   4.1744   6.1222   6.2957   6.6077
     7.0590   7.4528   7.9674   8.0328   8.3351   8.5822   9.0309   9.1765
[...]
     9.5341   9.8355  10.1005  10.5169  10.7417  10.8709  11.0958  11.3617
    12.2365  12.2873  12.6588  12.8826  13.0997  13.3300  13.4937  14.0305
    14.3835  14.4694  14.6354  14.9890  15.1423  15.3057  15.5278  16.0506
    16.1182  16.3326  16.4389  16.5928  16.7347  17.0068  17.1032  17.2380
    17.3112  17.4933  17.5540  17.6486  18.0254  18.7809  18.8206  18.9569
    18.9931  19.1140  19.2207  19.3021

          k = 0.0762 0.1364 0.0000 ( 15099 PWs)   bands (ev):

   -34.9054 -34.9047 -34.9020 -34.9013 -34.8694 -34.8660 -34.8614 -34.8579
   -34.8514 -34.8480 -34.8004 -34.7977 -34.7803 -34.7603 -34.7579 -27.6962
   -27.6942 -27.6934 -27.6914 -27.6889 -27.6861 -27.6843 -27.6815 -27.6810
   -27.6782 -10.6391 -10.1094  -9.0974  -6.4929  -5.4065  -1.1591  -0.8072
    -0.6016  -0.2438  -0.0049   0.1946   0.5808   1.1828   1.3524   2.3879
     2.4910   3.0050   3.6320   3.7548   4.2412   6.2297   6.2840   6.6892
     6.9190   7.4498   7.7658   8.1640   8.2791   8.5775   8.7579   9.2932
     9.5124   9.7881  10.1191  10.4575  10.6792  10.8771  11.0460  11.3071
    12.2010  12.2441  12.6677  12.8553  13.0950  13.3671  13.5062  14.1121
    14.4540  14.4906  14.6716  14.9432  15.2401  15.3433  15.5615  16.0268
    16.1414  16.2966  16.4702  16.6482  16.7033  17.0104  17.1534  17.2256
    17.2807  17.5166  17.5822  17.5884  17.9240  18.7161  18.7931  18.9799
    19.0247  19.1269  19.2016  19.2858

          k = 0.0714 0.1278 0.0000 ( 15105 PWs)   bands (ev):

   -34.9054 -34.9048 -34.9020 -34.9013 -34.8694 -34.8660 -34.8614 -34.8579
   -34.8514 -34.8480 -34.8004 -34.7977 -34.7803 -34.7603 -34.7579 -27.6962
   -27.6942 -27.6934 -27.6914 -27.6889 -27.6861 -27.6843 -27.6815 -27.6810
   -27.6782 -10.6563 -10.1248  -9.1057  -6.4866  -5.3747  -1.0871  -0.7632
    -0.5343  -0.2095   0.0065   0.2112   0.6003   1.1646   1.3431   2.3702
     2.4452   2.9721   3.5912   3.7307   4.1956   6.2273   6.2644   6.7165
     6.9286   7.4333   7.7253   8.1635   8.2769   8.6059   8.7232   9.2560
     9.4942   9.7446  10.1415  10.3936  10.6146  10.8728  11.0067  11.2645
    12.1553  12.2026  12.6690  12.8509  13.0728  13.3983  13.5450  14.1855
    14.4367  14.5951  14.6920  14.9310  15.3216  15.3616  15.6348  15.9968
    16.1545  16.2494  16.5024  16.6788  16.7142  17.0079  17.1647  17.2299
    17.2611  17.5058  17.5405  17.6658  17.8444  18.6061  18.7090  18.9402
    19.0246  19.1045  19.2358  19.2950

          k = 0.0667 0.1193 0.0000 ( 15121 PWs)   bands (ev):

   -34.9054 -34.9048 -34.9020 -34.9013 -34.8694 -34.8660 -34.8614 -34.8579
   -34.8514 -34.8481 -34.8004 -34.7977 -34.7803 -34.7604 -34.7579 -27.6962
   -27.6943 -27.6934 -27.6915 -27.6889 -27.6861 -27.6843 -27.6815 -27.6809
   -27.6781 -10.6724 -10.1394  -9.1137  -6.4808  -5.3448  -1.0139  -0.7231
    -0.4636  -0.1756   0.0148   0.2281   0.6196   1.1352   1.3397   2.3306
     2.4229   2.9362   3.5514   3.7137   4.1486   6.2179   6.2517   6.7434
     6.9396   7.4197   7.6894   8.1632   8.2805   8.6217   8.6940   9.2212
     9.4805   9.7049  10.1651  10.3274  10.5506  10.8612  10.9682  11.2381
    12.0977  12.1676  12.6554  12.8732  13.0428  13.4138  13.6115  14.2298
    14.4464  14.6588  14.7096  14.9720  15.3021  15.4628  15.7167  15.9770
    16.1556  16.2017  16.5104  16.6852  16.7664  17.0136  17.1406  17.2410
    17.2513  17.4668  17.5412  17.7138  17.8403  18.4835  18.5976  18.8503
    18.9910  19.1149  19.2224  19.2884

          k = 0.0619 0.1108 0.0000 ( 15118 PWs)   bands (ev):

   -34.9054 -34.9048 -34.9020 -34.9013 -34.8694 -34.8660 -34.8614 -34.8579
   -34.8515 -34.8481 -34.8004 -34.7977 -34.7803 -34.7604 -34.7579 -27.6963
   -27.6943 -27.6934 -27.6915 -27.6889 -27.6862 -27.6843 -27.6815 -27.6809
   -27.6781 -10.6874 -10.1529  -9.1211  -6.4756  -5.3167  -0.9398  -0.6857
    -0.3920  -0.1418   0.0209   0.2456   0.6380   1.0976   1.3384   2.2811
     2.4134   2.8966   3.5174   3.7003   4.1002   6.2016   6.2463   6.7697
     6.9510   7.4091   7.6586   8.1645   8.2885   8.6171   8.6757   9.1903
     9.4726   9.6685  10.1826  10.2633  10.4927  10.8463  10.9245  11.2274
    12.0338  12.1354  12.6344  12.9101  13.0124  13.4240  13.6912  14.2334
    14.4952  14.6158  14.8149  15.0308  15.2812  15.5655  15.7754  15.9904
    16.1371  16.1696  16.4934  16.6890  16.8208  17.0308  17.1134  17.2393
    17.2542  17.4092  17.5427  17.7426  17.9240  18.3565  18.4739  18.7327
    18.9729  19.1159  19.1971  19.2530

          k = 0.0571 0.1023 0.0000 ( 15116 PWs)   bands (ev):

   -34.9054 -34.9048 -34.9020 -34.9014 -34.8694 -34.8660 -34.8614 -34.8579
   -34.8515 -34.8481 -34.8004 -34.7977 -34.7803 -34.7604 -34.7579 -27.6963
   -27.6944 -27.6934 -27.6915 -27.6889 -27.6862 -27.6843 -27.6815 -27.6809
   -27.6781 -10.7014 -10.1654  -9.1281  -6.4710  -5.2905  -0.8649  -0.6500
    -0.3222  -0.1077   0.0256   0.2639   0.6551   1.0544   1.3348   2.2333
     2.4069   2.8536   3.4907   3.6890   4.0506   6.1830   6.2438   6.7948
     6.9622   7.4016   7.6335   8.1684   8.2995   8.5942   8.6651   9.1642
     9.4715   9.6347  10.1650  10.2236  10.4502  10.8262  10.8809  11.2272
    11.9672  12.1023  12.6144  12.9359  12.9996  13.4373  13.7728  14.2160
    14.5304  14.6019  14.9218  15.0674  15.2941  15.6496  15.8000  16.0517
    16.0977  16.1639  16.4658  16.6715  16.8773  17.0523  17.0812  17.2326
    17.2777  17.3527  17.5259  17.8079  18.0291  18.2317  18.3447  18.6089
    18.9590  19.1027  19.1529  19.2149

          k = 0.0524 0.0938 0.0000 ( 15116 PWs)   bands (ev):

   -34.9054 -34.9048 -34.9020 -34.9014 -34.8694 -34.8660 -34.8614 -34.8579
   -34.8515 -34.8481 -34.8004 -34.7977 -34.7803 -34.7604 -34.7579 -27.6963
   -27.6944 -27.6934 -27.6916 -27.6890 -27.6862 -27.6843 -27.6815 -27.6809
   -27.6781 -10.7142 -10.1770  -9.1345  -6.4669  -5.2663  -0.7898  -0.6157
    -0.2563  -0.0731   0.0304   0.2834   0.6706   1.0080   1.3254   2.1907
     2.4009   2.8088   3.4709   3.6792   4.0005   6.1643   6.2421   6.8181
     6.9728   7.3967   7.6146   8.1751   8.3128   8.5643   8.6513   9.1425
     9.4777   9.6026  10.1057  10.2058  10.4341  10.7892  10.8543  11.2324
    11.8995  12.0664  12.5997  12.9192  13.0311  13.4582  13.8488  14.1949
    14.4987  14.6595  15.0130  15.0832  15.3546  15.6814  15.8374  16.0510
    16.1492  16.1685  16.4355  16.6406  16.9177  17.0252  17.0944  17.2284
    17.2844  17.3373  17.5189  17.8784  18.1163  18.1447  18.2139  18.4883
    18.9435  19.0367  19.1219  19.1886

          k = 0.0476 0.0852 0.0000 ( 15117 PWs)   bands (ev):

   -34.9054 -34.9048 -34.9020 -34.9014 -34.8694 -34.8660 -34.8614 -34.8579
   -34.8515 -34.8481 -34.8004 -34.7977 -34.7803 -34.7604 -34.7579 -27.6963
   -27.6944 -27.6934 -27.6916 -27.6890 -27.6862 -27.6842 -27.6815 -27.6809
   -27.6781 -10.7260 -10.1876  -9.1405  -6.4633  -5.2441  -0.7148  -0.5828
    -0.1968  -0.0395   0.0378   0.3050   0.6842   0.9598   1.3080   2.1538
     2.3957   2.7644   3.4565   3.6706   3.9506   6.1464   6.2405   6.8387
     6.9829   7.3939   7.6026   8.1847   8.3278   8.5322   8.6317   9.1245
     9.4904   9.5714  10.0415  10.1741  10.4443  10.7388  10.8458  11.2393
    11.8315  12.0261  12.5918  12.8891  13.0754  13.4895  13.9105  14.1770
    14.4686  14.7078  15.0384  15.1602  15.4393  15.6652  15.8904  16.0242
    16.1868  16.2396  16.4106  16.6088  16.9213  16.9787  17.1334  17.2338
    17.2550  17.3628  17.5475  17.8806  18.0709  18.0977  18.2405  18.3889
    18.8977  18.9541  19.1104  19.1640

          k = 0.0429 0.0767 0.0000 ( 15127 PWs)   bands (ev):

   -34.9054 -34.9049 -34.9020 -34.9014 -34.8694 -34.8660 -34.8614 -34.8579
   -34.8515 -34.8481 -34.8004 -34.7977 -34.7803 -34.7604 -34.7579 -27.6963
   -27.6944 -27.6935 -27.6916 -27.6890 -27.6862 -27.6842 -27.6815 -27.6808
   -27.6780 -10.7366 -10.1973  -9.1459  -6.4601  -5.2240  -0.6404  -0.5513
    -0.1452  -0.0122   0.0532   0.3293   0.6958   0.9110   1.2818   2.1208
     2.3924   2.7231   3.4451   3.6630   3.9023   6.1296   6.2390   6.8557
     6.9928   7.3923   7.5979   8.1966   8.3437   8.4994   8.6078   9.1094
     9.5069   9.5406   9.9810  10.1328  10.4670  10.6889  10.8468  11.2464
    11.7640  11.9811  12.5909  12.8584  13.1186  13.5325  13.9492  14.1634
    14.4593  14.7191  15.0627  15.2611  15.5256  15.6403  15.9174  16.0201
    16.2219  16.2914  16.4205  16.5868  16.8764  16.9659  17.1471  17.2153
    17.2770  17.3781  17.6153  17.7927  17.9538  18.1130  18.2713  18.4047
    18.7810  18.9195  19.0949  19.1009

          k = 0.0381 0.0682 0.0000 ( 15126 PWs)   bands (ev):

   -34.9054 -34.9049 -34.9020 -34.9014 -34.8694 -34.8660 -34.8614 -34.8579
   -34.8515 -34.8481 -34.8004 -34.7977 -34.7803 -34.7605 -34.7579 -27.6963
   -27.6945 -27.6935 -27.6917 -27.6890 -27.6862 -27.6842 -27.6815 -27.6808
   -27.6780 -10.7462 -10.2059  -9.1508  -6.4573  -5.2059  -0.5673  -0.5216
    -0.1019   0.0038   0.0808   0.3573   0.7050   0.8632   1.2475   2.0884
     2.3931   2.6874   3.4342   3.6563   3.8571   6.1141   6.2375   6.8687
     7.0029   7.3913   7.6006   8.2099   8.3590   8.4674   8.5820   9.0971
     9.5043   9.5288   9.9284  10.0896  10.4868  10.6487  10.8562  11.2531
    11.6975  11.9312  12.5957  12.8295  13.1591  13.5863  13.9625  14.1490
    14.4765  14.6977  15.1079  15.3551  15.5804  15.6500  15.9259  16.0290
    16.2388  16.3046  16.4765  16.5887  16.8319  16.9641  17.1380  17.1890
    17.2934  17.4156  17.6559  17.7345  17.8362  18.0608  18.3272  18.5027
    18.6544  18.8629  19.0170  19.0866

          k = 0.0333 0.0597 0.0000 ( 15126 PWs)   bands (ev):

   -34.9054 -34.9049 -34.9020 -34.9014 -34.8694 -34.8660 -34.8614 -34.8579
   -34.8515 -34.8481 -34.8004 -34.7977 -34.7803 -34.7605 -34.7579 -27.6963
   -27.6945 -27.6935 -27.6917 -27.6890 -27.6862 -27.6842 -27.6815 -27.6808
   -27.6780 -10.7546 -10.2135  -9.1552  -6.4549  -5.1898  -0.4979  -0.4925
    -0.0673   0.0136   0.1139   0.3892   0.7108   0.8185   1.2071   2.0536
     2.3993   2.6589   3.4214   3.6502   3.8171   6.1002   6.2360   6.8774
     7.0132   7.3905   7.6102   8.2232   8.3701   8.4409   8.5564   9.0877
     9.4709   9.5428   9.8876  10.0484  10.4886  10.6288  10.8751  11.2593
    11.6328  11.8772  12.6045  12.8030  13.1984  13.6489  13.9563  14.1295
    14.5061  14.6727  15.1497  15.4290  15.6105  15.6978  15.9493  16.0363
    16.2003  16.3328  16.5275  16.6189  16.8257  16.9645  17.1199  17.1591
    17.2834  17.4606  17.5618  17.7409  17.8228  17.9806  18.4202  18.4961
    18.6404  18.7619  18.9820  19.0654

          k = 0.0286 0.0511 0.0000 ( 15124 PWs)   bands (ev):

   -34.9054 -34.9049 -34.9020 -34.9014 -34.8694 -34.8660 -34.8614 -34.8579
   -34.8515 -34.8481 -34.8004 -34.7977 -34.7803 -34.7605 -34.7579 -27.6963
   -27.6945 -27.6935 -27.6917 -27.6890 -27.6862 -27.6842 -27.6814 -27.6808
   -27.6780 -10.7619 -10.2201  -9.1590  -6.4529  -5.1759  -0.4697  -0.4280
    -0.0429   0.0253   0.1454   0.4242   0.7092   0.7820   1.1635   2.0148
     2.4112   2.6385   3.4048   3.6444   3.7842   6.0878   6.2346   6.8825
     7.0232   7.3900   7.6255   8.2337   8.3682   8.4306   8.5325   9.0814
     9.4344   9.5510   9.8614  10.0109  10.4689  10.6300  10.9047  11.2654
    11.5704  11.8200  12.6156  12.7794  13.2380  13.7171  13.9381  14.1068
    14.5079  14.6866  15.1633  15.4875  15.6737  15.7253  15.9860  16.0534
    16.1524  16.3401  16.5521  16.6741  16.8666  16.9723  17.0987  17.1198
    17.2674  17.4515  17.4640  17.6992  17.8914  17.9581  18.3587  18.5174
    18.6548  18.7429  18.9704  19.0335

          k = 0.0238 0.0426 0.0000 ( 15134 PWs)   bands (ev):

   -34.9054 -34.9049 -34.9020 -34.9014 -34.8694 -34.8660 -34.8614 -34.8579
   -34.8515 -34.8481 -34.8004 -34.7977 -34.7803 -34.7605 -34.7579 -27.6963
   -27.6945 -27.6935 -27.6917 -27.6890 -27.6863 -27.6842 -27.6814 -27.6808
   -27.6780 -10.7681 -10.2257  -9.1622  -6.4513  -5.1641  -0.4479  -0.3642
    -0.0305   0.0433   0.1724   0.4597   0.6918   0.7635   1.1199   1.9729
     2.4267   2.6265   3.3837   3.6388   3.7596   6.0771   6.2334   6.8849
     7.0323   7.3897   7.6448   8.2365   8.3565   8.4374   8.5113   9.0786
     9.3967   9.5506   9.8502   9.9782  10.4406  10.6389  10.9445  11.2717
    11.5113  11.7611  12.6274  12.7586  13.2794  13.7865  13.9129  14.0850
    14.4728  14.7440  15.1472  15.5526  15.7307  15.7548  15.9695  16.1125
    16.1390  16.3305  16.5451  16.7610  16.8994  17.0031  17.0670  17.0902
    17.2523  17.3645  17.3966  17.6827  17.8999  18.0557  18.2294  18.4757
    18.6747  18.8318  18.9551  19.0103

          k = 0.0190 0.0341 0.0000 ( 15129 PWs)   bands (ev):

   -34.9054 -34.9049 -34.9020 -34.9014 -34.8694 -34.8660 -34.8614 -34.8579
   -34.8515 -34.8481 -34.8004 -34.7977 -34.7803 -34.7605 -34.7579 -27.6963
   -27.6945 -27.6935 -27.6917 -27.6890 -27.6863 -27.6842 -27.6814 -27.6808
   -27.6780 -10.7731 -10.2303  -9.1649  -6.4499  -5.1544  -0.4297  -0.3061
    -0.0274   0.0653   0.1949   0.4924   0.6619   0.7609   1.0799   1.9308
     2.4425   2.6226   3.3592   3.6332   3.7431   6.0682   6.2324   6.8855
     7.0400   7.3899   7.6664   8.2272   8.3513   8.4481   8.4947   9.0786
     9.3597   9.5433   9.8506   9.9507  10.4133  10.6471  10.9926  11.2781
    11.4567  11.7023  12.6388  12.7407  13.3227  13.8408  13.8957  14.0670
    14.4270  14.8100  15.1227  15.6183  15.7338  15.8248  15.9148  16.1300
    16.2296  16.3158  16.5307  16.8441  16.8977  17.0037  17.0214  17.1421
    17.2327  17.2707  17.3454  17.6519  17.9337  18.1084  18.1774  18.3612
    18.7691  18.8685  18.9014  19.0502

          k = 0.0143 0.0256 0.0000 ( 15133 PWs)   bands (ev):

   -34.9054 -34.9049 -34.9020 -34.9014 -34.8694 -34.8660 -34.8614 -34.8579
   -34.8515 -34.8481 -34.8004 -34.7977 -34.7803 -34.7605 -34.7579 -27.6963
   -27.6945 -27.6935 -27.6917 -27.6890 -27.6863 -27.6842 -27.6814 -27.6808
   -27.6780 -10.7771 -10.2339  -9.1669  -6.4489  -5.1469  -0.4153  -0.2554
    -0.0296   0.0866   0.2133   0.5192   0.6311   0.7639   1.0468   1.8920
     2.4557   2.6257   3.3340   3.6283   3.7332   6.0612   6.2315   6.8852
     7.0460   7.3903   7.6878   8.2086   8.3558   8.4515   8.4879   9.0808
     9.3262   9.5328   9.8570   9.9288  10.3909  10.6528  11.0457  11.2827
    11.4090  11.6463  12.6491  12.7258  13.3666  13.8271  13.9377  14.0545
    14.3827  14.8570  15.1176  15.6461  15.7609  15.8384  15.8941  16.1597
    16.3043  16.3395  16.5202  16.8123  16.9380  16.9755  17.0088  17.1545
    17.2272  17.2492  17.3198  17.6270  17.8918  18.0785  18.2587  18.2970
    18.7992  18.8582  18.8871  19.0822

          k = 0.0095 0.0170 0.0000 ( 15125 PWs)   bands (ev):

   -34.9054 -34.9049 -34.9020 -34.9014 -34.8694 -34.8660 -34.8614 -34.8579
   -34.8515 -34.8481 -34.8004 -34.7977 -34.7803 -34.7605 -34.7579 -27.6963
   -27.6945 -27.6935 -27.6917 -27.6890 -27.6863 -27.6842 -27.6814 -27.6808
   -27.6780 -10.7799 -10.2364  -9.1684  -6.4482  -5.1415  -0.4049  -0.2145
    -0.0346   0.1039   0.2278   0.5387   0.6046   0.7678   1.0228   1.8606
     2.4647   2.6327   3.3117   3.6245   3.7279   6.0562   6.2309   6.8846
     7.0502   7.3908   7.7065   8.1886   8.3649   8.4442   8.4923   9.0839
     9.2993   9.5226   9.8648   9.9130  10.3749  10.6562  11.1003  11.2785
    11.3746  11.5971  12.6578  12.7139  13.4075  13.7928  13.9885  14.0502
    14.3445  14.8697  15.1486  15.6181  15.7894  15.8313  15.9187  16.1786
    16.3311  16.4356  16.5234  16.7308  16.8962  16.9674  17.0559  17.0731
    17.2398  17.3193  17.3303  17.6263  17.7806  18.0319  18.2761  18.3988
    18.7020  18.8591  18.9305  19.0685

          k = 0.0048 0.0085 0.0000 ( 15127 PWs)   bands (ev):

   -34.9054 -34.9049 -34.9020 -34.9015 -34.8694 -34.8660 -34.8614 -34.8579
   -34.8515 -34.8481 -34.8004 -34.7977 -34.7803 -34.7605 -34.7579 -27.6963
   -27.6946 -27.6935 -27.6917 -27.6890 -27.6863 -27.6842 -27.6814 -27.6808
   -27.6780 -10.7816 -10.2380  -9.1693  -6.4478  -5.1383  -0.3986  -0.1868
    -0.0400   0.1149   0.2375   0.5523   0.5845   0.7708   1.0089   1.8399
     2.4696   2.6395   3.2963   3.6221   3.7254   6.0531   6.2305   6.8840
     7.0526   7.3911   7.7194   8.1739   8.3736   8.4352   8.4982   9.0865
     9.2819   9.5154   9.8706   9.9033  10.3653  10.6579  11.1523  11.2554
    11.3615  11.5613  12.6642  12.7055  13.4389  13.7642  14.0145  14.0607
    14.3166  14.8633  15.1956  15.5718  15.7742  15.8800  15.9311  16.1714
    16.3959  16.4753  16.5781  16.6468  16.8245  16.9575  17.0197  17.0918
    17.2445  17.3589  17.3949  17.6531  17.6711  17.9437  18.3612  18.4857
    18.6075  18.8101  18.9686  19.0428

          k = 0.0000 0.0000 0.0000 ( 15117 PWs)   bands (ev):

   -34.9054 -34.9049 -34.9020 -34.9015 -34.8694 -34.8660 -34.8614 -34.8579
   -34.8515 -34.8481 -34.8004 -34.7977 -34.7803 -34.7605 -34.7579 -27.6963
   -27.6946 -27.6935 -27.6917 -27.6890 -27.6863 -27.6842 -27.6814 -27.6808
   -27.6780 -10.7821 -10.2385  -9.1696  -6.4476  -5.1372  -0.3964  -0.1767
    -0.0425   0.1187   0.2410   0.5599   0.5741   0.7718   1.0044   1.8327
     2.4711   2.6423   3.2908   3.6213   3.7247   6.0521   6.2304   6.8838
     7.0534   7.3913   7.7240   8.1685   8.3775   8.4312   8.5006   9.0875
     9.2758   9.5128   9.8727   9.9001  10.3621  10.6584  11.1853  11.2305
    11.3603  11.5477  12.6668  12.7022  13.4511  13.7527  14.0188  14.0708
    14.3057  14.8588  15.2191  15.5485  15.7690  15.9025  15.9335  16.1640
    16.4553  16.4630  16.5893  16.6430  16.7724  16.9515  17.0057  17.1003
    17.2459  17.3763  17.4410  17.6016  17.6861  17.8955  18.4446  18.4733
    18.5809  18.7758  18.9770  19.0381

     Writing all to output data dir tmp/Sb2Te3-uatsx-c1-5.0.save/ :
     XML data file, pseudopotentials, collected wavefunctions

     init_run     :      1.20s CPU      1.20s WALL (       1 calls)
     electrons    :    885.03s CPU    501.19s WALL (       1 calls)

     Called by init_run:
     wfcinit      :      0.00s CPU      0.01s WALL (       1 calls)
     wfcinit:wfcr :     18.02s CPU      9.29s WALL (     211 calls)
     potinit      :      0.49s CPU      0.47s WALL (       1 calls)
     hinit0       :      0.60s CPU      0.61s WALL (       1 calls)

     Called by electrons:
     c_bands      :    885.01s CPU    501.17s WALL (       1 calls)
     v_of_rho     :      0.05s CPU      0.03s WALL (       1 calls)
     v_h          :      0.00s CPU      0.00s WALL (       1 calls)
     v_xc         :      0.04s CPU      0.03s WALL (       1 calls)

     Called by c_bands:
     init_us_2    :      0.21s CPU      0.10s WALL (     211 calls)
     cegterg      :    862.57s CPU    488.05s WALL (     709 calls)

     Called by sum_band:

     Called by *egterg:
     cdiaghg      :    276.05s CPU    189.34s WALL (   12558 calls)
     cegterg:over :     54.58s CPU     29.42s WALL (   12347 calls)
     cegterg:upda :     27.66s CPU     11.96s WALL (   12347 calls)
     cegterg:last :     41.28s CPU     20.66s WALL (    5869 calls)
     h_psi        :    447.78s CPU    226.44s WALL (   13267 calls)
     g_psi        :      2.74s CPU      2.06s WALL (   12347 calls)

     Called by h_psi:
     h_psi:calbec :     20.56s CPU      8.87s WALL (   13267 calls)
     vloc_psi     :    414.24s CPU    211.48s WALL (   13267 calls)
     add_vuspsi   :     11.47s CPU      5.25s WALL (   13267 calls)

     General routines
     calbec       :     20.50s CPU      8.85s WALL (   13267 calls)
     fft          :      0.62s CPU      0.63s WALL (      11 calls)
     ffts         :      0.42s CPU      0.42s WALL (       1 calls)
     fftw         :    346.49s CPU    176.66s WALL ( 1216632 calls)
     interpolate  :      0.42s CPU      0.42s WALL (       1 calls)
     davcio       :      0.11s CPU      0.58s WALL (     422 calls)

     Parallel routines

     PWSCF        :  14m53.97s CPU   9m13.66s WALL


   This run was terminated on:  16:50:18  13Aug2025            

=------------------------------------------------------------------------------=
   JOB DONE.
=------------------------------------------------------------------------------=
