
     Program PWSCF v.7.4.1 starts on 22Aug2025 at 20:32:14 

     This program is part of the open-source Quantum ESPRESSO suite
     for quantum simulation of materials; please cite
         "P. Giannozzi et al., J. Phys.:Condens. Matter 21 395502 (2009);
         "P. Giannozzi et al., J. Phys.:Condens. Matter 29 465901 (2017);
         "P. Giannozzi et al., J. Chem. Phys. 152 154105 (2020);
          URL http://www.quantum-espresso.org", 
     in publications or presentations arising from this work. More details at
     http://www.quantum-espresso.org/quote

     Parallel version (MPI & OpenMP), running on      48 processor cores
     Number of MPI processes:                24
     Threads/MPI process:                     2

     MPI processes distributed on     2 nodes
     111692 MiB available memory on the printing compute node when the environment starts

     Waiting for input...
     Reading input from standard input

     Current dimensions of program PWSCF are:
     Max number of different atomic species (ntypx) = 10
     Max number of k-points (npk) =  40000
     Max angular momentum in pseudopotentials (lmaxx) =  4
     file Sb.rel-pbe-n-rrkjus_psl.1.0.0.UPF: wavefunction(s)  5S renormalized
     file Te.rel-pbe-n-rrkjus_psl.1.0.0.UPF: wavefunction(s)  5S renormalized

     IMPORTANT: XC functional enforced from input :
     Exchange-correlation= PBE
                           (   1   4   3   4   0   0   0)
     Any further DFT definition will be discarded
     Please, verify this is what you really want


     Atomic positions and unit cell read from directory:
     tmp/Sb2Te3-uatsx-c6-soc-1.0.save/


     R & G space division:  proc/nbgrp/npool/nimage =      24
     Subspace diagonalization in iterative solution of the eigenvalue problem:
     a serial algorithm will be used


     Parallelization info
     --------------------
     sticks:   dense  smooth     PW     G-vecs:    dense   smooth      PW
     Min          96      38     10                19112     4832     726
     Max          97      39     11                19125     4855     757
     Sum        2311     925    261               458817   116185   17833

     Using Slab Decomposition



     bravais-lattice index     =            0
     lattice parameter (alat)  =       8.2271  a.u.
     unit-cell volume          =    2430.6623 (a.u.)^3
     number of atoms/cell      =            5
     number of atomic types    =            2
     number of electrons       =        28.00
     number of Kohn-Sham states=          100
     kinetic-energy cutoff     =      50.0000  Ry
     charge density cutoff     =     500.0000  Ry
     Exchange-correlation= PBE
                           (   1   4   3   4   0   0   0)
     Non magnetic calculation with spin-orbit


     celldm(1)=   8.227090  celldm(2)=   0.000000  celldm(3)=   0.000000
     celldm(4)=   0.000000  celldm(5)=   0.000000  celldm(6)=   0.000000

     crystal axes: (cart. coord. in units of alat)
               a(1) = (   1.000000   0.000000   0.000000 )  
               a(2) = (  -0.495050   0.857443   0.000000 )  
               a(3) = (   0.000000   0.000000   5.090739 )  

     reciprocal axes: (cart. coord. in units 2 pi/alat)
               b(1) = (  1.000000  0.577356 -0.000000 )  
               b(2) = (  0.000000  1.166259  0.000000 )  
               b(3) = (  0.000000 -0.000000  0.196435 )  


     PseudoPot. # 1 for Sb read from file:
     /zfs-home/202401017n1/pseudos/Sb.rel-pbe-n-rrkjus_psl.1.0.0.UPF
     MD5 check sum: c1afc134568783a62b80e43a202109b2
     Pseudo is Ultrasoft + core correction, Zval =  5.0
     Generated using &quot;atomic&quot; code by A. Dal Corso  v.6.2.2
     Using radial grid of 1243 points, 10 beta functions with: 
                l(1) =   0
                l(2) =   0
                l(3) =   1
                l(4) =   1
                l(5) =   1
                l(6) =   1
                l(7) =   2
                l(8) =   2
                l(9) =   2
               l(10) =   2
     Q(r) pseudized with 0 coefficients 


     PseudoPot. # 2 for Te read from file:
     /zfs-home/202401017n1/pseudos/Te.rel-pbe-n-rrkjus_psl.1.0.0.UPF
     MD5 check sum: 7fd30b6833abd190471e4dcc2367351b
     Pseudo is Ultrasoft + core correction, Zval =  6.0
     Generated using &quot;atomic&quot; code by A. Dal Corso  v.6.3
     Using radial grid of 1245 points, 10 beta functions with: 
                l(1) =   0
                l(2) =   0
                l(3) =   1
                l(4) =   1
                l(5) =   1
                l(6) =   1
                l(7) =   2
                l(8) =   2
                l(9) =   2
               l(10) =   2
     Q(r) pseudized with 0 coefficients 


     atomic species   valence    mass     pseudopotential
     Sb                5.00   121.76000     Sb( 1.00)
     Te                6.00   127.60000     Te( 1.00)

     No symmetry found


                                    s                        frac. trans.

      isym =  1     identity                                     

 cryst.   s( 1) = (     1          0          0      )
                  (     0          1          0      )
                  (     0          0          1      )

 cart.    s( 1) = (  1.0000000  0.0000000  0.0000000 )
                  (  0.0000000  1.0000000  0.0000000 )
                  (  0.0000000  0.0000000  1.0000000 )


   Cartesian axes

     site n.     atom                  positions (alat units)
         1        Sb     tau(   1) = (   0.5788554   0.4207610   3.0040749  )
         2        Te     tau(   2) = (   0.5752577   0.4138624   1.6972962  )
         3        Sb     tau(   3) = (   0.0743102   0.1298379   2.0866212  )
         4        Te     tau(   4) = (   0.0782247   0.1361538   3.3933943  )
         5        Te     tau(   5) = (   0.0792404   0.7036244   2.5453648  )

     -------------------------------------------------
     Parameters for Dispersion (Grimme-D2) Correction:
     -------------------------------------------------
       atom      VdW radius       C_6     

        Sb         3.555       1333.532
        Te         3.575       1101.101

   Crystallographic axes

     site n.     atom                  positions (cryst. coord.)
         1        Sb     tau(   1) = (  0.8217842  0.4907162  0.5901058  )
         2        Te     tau(   2) = (  0.8142035  0.4826706  0.3334086  )
         3        Sb     tau(   3) = (  0.1492728  0.1514246  0.4098857  )
         4        Te     tau(   4) = (  0.1568340  0.1587906  0.6665818  )
         5        Te     tau(   5) = (  0.4854821  0.8206082  0.4999990  )

     number of k points=   211
                       cart. coord. in units 2pi/alat
        k(    1) = (   0.0000000   0.0000000   0.0000000), wk =   0.0047393
        k(    2) = (   0.0071429   0.0041240   0.0000000), wk =   0.0047393
        k(    3) = (   0.0142857   0.0082479   0.0000000), wk =   0.0047393
        k(    4) = (   0.0214286   0.0123719   0.0000000), wk =   0.0047393
        k(    5) = (   0.0285714   0.0164959   0.0000000), wk =   0.0047393
        k(    6) = (   0.0357143   0.0206199   0.0000000), wk =   0.0047393
        k(    7) = (   0.0428571   0.0247438   0.0000000), wk =   0.0047393
        k(    8) = (   0.0500000   0.0288678   0.0000000), wk =   0.0047393
        k(    9) = (   0.0571429   0.0329918   0.0000000), wk =   0.0047393
        k(   10) = (   0.0642857   0.0371157   0.0000000), wk =   0.0047393
        k(   11) = (   0.0714286   0.0412397   0.0000000), wk =   0.0047393
        k(   12) = (   0.0785714   0.0453637   0.0000000), wk =   0.0047393
        k(   13) = (   0.0857143   0.0494876   0.0000000), wk =   0.0047393
        k(   14) = (   0.0928571   0.0536116   0.0000000), wk =   0.0047393
        k(   15) = (   0.1000000   0.0577356   0.0000000), wk =   0.0047393
        k(   16) = (   0.1071429   0.0618596   0.0000000), wk =   0.0047393
        k(   17) = (   0.1142857   0.0659835   0.0000000), wk =   0.0047393
        k(   18) = (   0.1214286   0.0701075   0.0000000), wk =   0.0047393
        k(   19) = (   0.1285714   0.0742315   0.0000000), wk =   0.0047393
        k(   20) = (   0.1357143   0.0783554   0.0000000), wk =   0.0047393
        k(   21) = (   0.1428571   0.0824794   0.0000000), wk =   0.0047393
        k(   22) = (   0.1500000   0.0866034   0.0000000), wk =   0.0047393
        k(   23) = (   0.1571429   0.0907273   0.0000000), wk =   0.0047393
        k(   24) = (   0.1642857   0.0948513   0.0000000), wk =   0.0047393
        k(   25) = (   0.1714286   0.0989753   0.0000000), wk =   0.0047393
        k(   26) = (   0.1785714   0.1030993   0.0000000), wk =   0.0047393
        k(   27) = (   0.1857143   0.1072232   0.0000000), wk =   0.0047393
        k(   28) = (   0.1928571   0.1113472   0.0000000), wk =   0.0047393
        k(   29) = (   0.2000000   0.1154712   0.0000000), wk =   0.0047393
        k(   30) = (   0.2071429   0.1195951   0.0000000), wk =   0.0047393
        k(   31) = (   0.2142857   0.1237191   0.0000000), wk =   0.0047393
        k(   32) = (   0.2214286   0.1278431   0.0000000), wk =   0.0047393
        k(   33) = (   0.2285714   0.1319671   0.0000000), wk =   0.0047393
        k(   34) = (   0.2357143   0.1360910   0.0000000), wk =   0.0047393
        k(   35) = (   0.2428571   0.1402150   0.0000000), wk =   0.0047393
        k(   36) = (   0.2500000   0.1443390   0.0000000), wk =   0.0047393
        k(   37) = (   0.2571429   0.1484629   0.0000000), wk =   0.0047393
        k(   38) = (   0.2642857   0.1525869   0.0000000), wk =   0.0047393
        k(   39) = (   0.2714286   0.1567109   0.0000000), wk =   0.0047393
        k(   40) = (   0.2785714   0.1608348   0.0000000), wk =   0.0047393
        k(   41) = (   0.2857143   0.1649588   0.0000000), wk =   0.0047393
        k(   42) = (   0.2928571   0.1690828   0.0000000), wk =   0.0047393
        k(   43) = (   0.3000000   0.1732068   0.0000000), wk =   0.0047393
        k(   44) = (   0.3071429   0.1773307   0.0000000), wk =   0.0047393
        k(   45) = (   0.3142857   0.1814547   0.0000000), wk =   0.0047393
        k(   46) = (   0.3214286   0.1855787   0.0000000), wk =   0.0047393
        k(   47) = (   0.3285714   0.1897026   0.0000000), wk =   0.0047393
        k(   48) = (   0.3357143   0.1938266   0.0000000), wk =   0.0047393
        k(   49) = (   0.3428571   0.1979506   0.0000000), wk =   0.0047393
        k(   50) = (   0.3500000   0.2020745   0.0000000), wk =   0.0047393
        k(   51) = (   0.3571429   0.2061985   0.0000000), wk =   0.0047393
        k(   52) = (   0.3642857   0.2103225   0.0000000), wk =   0.0047393
        k(   53) = (   0.3714286   0.2144465   0.0000000), wk =   0.0047393
        k(   54) = (   0.3785714   0.2185704   0.0000000), wk =   0.0047393
        k(   55) = (   0.3857143   0.2226944   0.0000000), wk =   0.0047393
        k(   56) = (   0.3928571   0.2268184   0.0000000), wk =   0.0047393
        k(   57) = (   0.4000000   0.2309423   0.0000000), wk =   0.0047393
        k(   58) = (   0.4071429   0.2350663   0.0000000), wk =   0.0047393
        k(   59) = (   0.4142857   0.2391903   0.0000000), wk =   0.0047393
        k(   60) = (   0.4214286   0.2433143   0.0000000), wk =   0.0047393
        k(   61) = (   0.4285714   0.2474382   0.0000000), wk =   0.0047393
        k(   62) = (   0.4357143   0.2515622   0.0000000), wk =   0.0047393
        k(   63) = (   0.4428571   0.2556862   0.0000000), wk =   0.0047393
        k(   64) = (   0.4500000   0.2598101   0.0000000), wk =   0.0047393
        k(   65) = (   0.4571429   0.2639341   0.0000000), wk =   0.0047393
        k(   66) = (   0.4642857   0.2680581   0.0000000), wk =   0.0047393
        k(   67) = (   0.4714286   0.2721820   0.0000000), wk =   0.0047393
        k(   68) = (   0.4785714   0.2763060   0.0000000), wk =   0.0047393
        k(   69) = (   0.4857143   0.2804300   0.0000000), wk =   0.0047393
        k(   70) = (   0.4928571   0.2845540   0.0000000), wk =   0.0047393
        k(   71) = (   0.5000000   0.2886779   0.0000000), wk =   0.0047393
        k(   72) = (   0.4976190   0.2928569   0.0000000), wk =   0.0047393
        k(   73) = (   0.4952381   0.2970358   0.0000000), wk =   0.0047393
        k(   74) = (   0.4928571   0.3012148   0.0000000), wk =   0.0047393
        k(   75) = (   0.4904762   0.3053938   0.0000000), wk =   0.0047393
        k(   76) = (   0.4880952   0.3095727   0.0000000), wk =   0.0047393
        k(   77) = (   0.4857143   0.3137517   0.0000000), wk =   0.0047393
        k(   78) = (   0.4833333   0.3179306   0.0000000), wk =   0.0047393
        k(   79) = (   0.4809524   0.3221096   0.0000000), wk =   0.0047393
        k(   80) = (   0.4785714   0.3262885   0.0000000), wk =   0.0047393
        k(   81) = (   0.4761905   0.3304675   0.0000000), wk =   0.0047393
        k(   82) = (   0.4738095   0.3346464   0.0000000), wk =   0.0047393
        k(   83) = (   0.4714286   0.3388254   0.0000000), wk =   0.0047393
        k(   84) = (   0.4690476   0.3430044   0.0000000), wk =   0.0047393
        k(   85) = (   0.4666667   0.3471833   0.0000000), wk =   0.0047393
        k(   86) = (   0.4642857   0.3513623   0.0000000), wk =   0.0047393
        k(   87) = (   0.4619048   0.3555412   0.0000000), wk =   0.0047393
        k(   88) = (   0.4595238   0.3597202   0.0000000), wk =   0.0047393
        k(   89) = (   0.4571429   0.3638991   0.0000000), wk =   0.0047393
        k(   90) = (   0.4547619   0.3680781   0.0000000), wk =   0.0047393
        k(   91) = (   0.4523810   0.3722571   0.0000000), wk =   0.0047393
        k(   92) = (   0.4500000   0.3764360   0.0000000), wk =   0.0047393
        k(   93) = (   0.4476190   0.3806150   0.0000000), wk =   0.0047393
        k(   94) = (   0.4452381   0.3847939   0.0000000), wk =   0.0047393
        k(   95) = (   0.4428571   0.3889729   0.0000000), wk =   0.0047393
        k(   96) = (   0.4404762   0.3931518   0.0000000), wk =   0.0047393
        k(   97) = (   0.4380952   0.3973308   0.0000000), wk =   0.0047393
        k(   98) = (   0.4357143   0.4015098   0.0000000), wk =   0.0047393
        k(   99) = (   0.4333333   0.4056887   0.0000000), wk =   0.0047393
        k(  100) = (   0.4309524   0.4098677   0.0000000), wk =   0.0047393
        k(  101) = (   0.4285714   0.4140466   0.0000000), wk =   0.0047393
        k(  102) = (   0.4261905   0.4182256   0.0000000), wk =   0.0047393
        k(  103) = (   0.4238095   0.4224045   0.0000000), wk =   0.0047393
        k(  104) = (   0.4214286   0.4265835   0.0000000), wk =   0.0047393
        k(  105) = (   0.4190476   0.4307625   0.0000000), wk =   0.0047393
        k(  106) = (   0.4166667   0.4349414   0.0000000), wk =   0.0047393
        k(  107) = (   0.4142857   0.4391204   0.0000000), wk =   0.0047393
        k(  108) = (   0.4119048   0.4432993   0.0000000), wk =   0.0047393
        k(  109) = (   0.4095238   0.4474783   0.0000000), wk =   0.0047393
        k(  110) = (   0.4071429   0.4516572   0.0000000), wk =   0.0047393
        k(  111) = (   0.4047619   0.4558362   0.0000000), wk =   0.0047393
        k(  112) = (   0.4023810   0.4600151   0.0000000), wk =   0.0047393
        k(  113) = (   0.4000000   0.4641941   0.0000000), wk =   0.0047393
        k(  114) = (   0.3976190   0.4683731   0.0000000), wk =   0.0047393
        k(  115) = (   0.3952381   0.4725520   0.0000000), wk =   0.0047393
        k(  116) = (   0.3928571   0.4767310   0.0000000), wk =   0.0047393
        k(  117) = (   0.3904762   0.4809099   0.0000000), wk =   0.0047393
        k(  118) = (   0.3880952   0.4850889   0.0000000), wk =   0.0047393
        k(  119) = (   0.3857143   0.4892678   0.0000000), wk =   0.0047393
        k(  120) = (   0.3833333   0.4934468   0.0000000), wk =   0.0047393
        k(  121) = (   0.3809524   0.4976258   0.0000000), wk =   0.0047393
        k(  122) = (   0.3785714   0.5018047   0.0000000), wk =   0.0047393
        k(  123) = (   0.3761905   0.5059837   0.0000000), wk =   0.0047393
        k(  124) = (   0.3738095   0.5101626   0.0000000), wk =   0.0047393
        k(  125) = (   0.3714286   0.5143416   0.0000000), wk =   0.0047393
        k(  126) = (   0.3690476   0.5185205   0.0000000), wk =   0.0047393
        k(  127) = (   0.3666667   0.5226995   0.0000000), wk =   0.0047393
        k(  128) = (   0.3642857   0.5268785   0.0000000), wk =   0.0047393
        k(  129) = (   0.3619048   0.5310574   0.0000000), wk =   0.0047393
        k(  130) = (   0.3595238   0.5352364   0.0000000), wk =   0.0047393
        k(  131) = (   0.3571429   0.5394153   0.0000000), wk =   0.0047393
        k(  132) = (   0.3547619   0.5435943   0.0000000), wk =   0.0047393
        k(  133) = (   0.3523810   0.5477732   0.0000000), wk =   0.0047393
        k(  134) = (   0.3500000   0.5519522   0.0000000), wk =   0.0047393
        k(  135) = (   0.3476190   0.5561312   0.0000000), wk =   0.0047393
        k(  136) = (   0.3452381   0.5603101   0.0000000), wk =   0.0047393
        k(  137) = (   0.3428571   0.5644891   0.0000000), wk =   0.0047393
        k(  138) = (   0.3404762   0.5686680   0.0000000), wk =   0.0047393
        k(  139) = (   0.3380952   0.5728470   0.0000000), wk =   0.0047393
        k(  140) = (   0.3357143   0.5770259   0.0000000), wk =   0.0047393
        k(  141) = (   0.3333333   0.5812049   0.0000000), wk =   0.0047393
        k(  142) = (   0.3285714   0.5729020   0.0000000), wk =   0.0047393
        k(  143) = (   0.3238095   0.5645990   0.0000000), wk =   0.0047393
        k(  144) = (   0.3190476   0.5562961   0.0000000), wk =   0.0047393
        k(  145) = (   0.3142857   0.5479932   0.0000000), wk =   0.0047393
        k(  146) = (   0.3095238   0.5396903   0.0000000), wk =   0.0047393
        k(  147) = (   0.3047619   0.5313873   0.0000000), wk =   0.0047393
        k(  148) = (   0.3000000   0.5230844   0.0000000), wk =   0.0047393
        k(  149) = (   0.2952381   0.5147815   0.0000000), wk =   0.0047393
        k(  150) = (   0.2904762   0.5064785   0.0000000), wk =   0.0047393
        k(  151) = (   0.2857143   0.4981756   0.0000000), wk =   0.0047393
        k(  152) = (   0.2809524   0.4898727   0.0000000), wk =   0.0047393
        k(  153) = (   0.2761905   0.4815698   0.0000000), wk =   0.0047393
        k(  154) = (   0.2714286   0.4732668   0.0000000), wk =   0.0047393
        k(  155) = (   0.2666667   0.4649639   0.0000000), wk =   0.0047393
        k(  156) = (   0.2619048   0.4566610   0.0000000), wk =   0.0047393
        k(  157) = (   0.2571429   0.4483581   0.0000000), wk =   0.0047393
        k(  158) = (   0.2523810   0.4400551   0.0000000), wk =   0.0047393
        k(  159) = (   0.2476190   0.4317522   0.0000000), wk =   0.0047393
        k(  160) = (   0.2428571   0.4234493   0.0000000), wk =   0.0047393
        k(  161) = (   0.2380952   0.4151464   0.0000000), wk =   0.0047393
        k(  162) = (   0.2333333   0.4068434   0.0000000), wk =   0.0047393
        k(  163) = (   0.2285714   0.3985405   0.0000000), wk =   0.0047393
        k(  164) = (   0.2238095   0.3902376   0.0000000), wk =   0.0047393
        k(  165) = (   0.2190476   0.3819346   0.0000000), wk =   0.0047393
        k(  166) = (   0.2142857   0.3736317   0.0000000), wk =   0.0047393
        k(  167) = (   0.2095238   0.3653288   0.0000000), wk =   0.0047393
        k(  168) = (   0.2047619   0.3570259   0.0000000), wk =   0.0047393
        k(  169) = (   0.2000000   0.3487229   0.0000000), wk =   0.0047393
        k(  170) = (   0.1952381   0.3404200   0.0000000), wk =   0.0047393
        k(  171) = (   0.1904762   0.3321171   0.0000000), wk =   0.0047393
        k(  172) = (   0.1857143   0.3238142   0.0000000), wk =   0.0047393
        k(  173) = (   0.1809524   0.3155112   0.0000000), wk =   0.0047393
        k(  174) = (   0.1761905   0.3072083   0.0000000), wk =   0.0047393
        k(  175) = (   0.1714286   0.2989054   0.0000000), wk =   0.0047393
        k(  176) = (   0.1666667   0.2906024   0.0000000), wk =   0.0047393
        k(  177) = (   0.1619048   0.2822995   0.0000000), wk =   0.0047393
        k(  178) = (   0.1571429   0.2739966   0.0000000), wk =   0.0047393
        k(  179) = (   0.1523810   0.2656937   0.0000000), wk =   0.0047393
        k(  180) = (   0.1476190   0.2573907   0.0000000), wk =   0.0047393
        k(  181) = (   0.1428571   0.2490878   0.0000000), wk =   0.0047393
        k(  182) = (   0.1380952   0.2407849   0.0000000), wk =   0.0047393
        k(  183) = (   0.1333333   0.2324820   0.0000000), wk =   0.0047393
        k(  184) = (   0.1285714   0.2241790   0.0000000), wk =   0.0047393
        k(  185) = (   0.1238095   0.2158761   0.0000000), wk =   0.0047393
        k(  186) = (   0.1190476   0.2075732   0.0000000), wk =   0.0047393
        k(  187) = (   0.1142857   0.1992702   0.0000000), wk =   0.0047393
        k(  188) = (   0.1095238   0.1909673   0.0000000), wk =   0.0047393
        k(  189) = (   0.1047619   0.1826644   0.0000000), wk =   0.0047393
        k(  190) = (   0.1000000   0.1743615   0.0000000), wk =   0.0047393
        k(  191) = (   0.0952381   0.1660585   0.0000000), wk =   0.0047393
        k(  192) = (   0.0904762   0.1577556   0.0000000), wk =   0.0047393
        k(  193) = (   0.0857143   0.1494527   0.0000000), wk =   0.0047393
        k(  194) = (   0.0809524   0.1411498   0.0000000), wk =   0.0047393
        k(  195) = (   0.0761905   0.1328468   0.0000000), wk =   0.0047393
        k(  196) = (   0.0714286   0.1245439   0.0000000), wk =   0.0047393
        k(  197) = (   0.0666667   0.1162410   0.0000000), wk =   0.0047393
        k(  198) = (   0.0619048   0.1079381   0.0000000), wk =   0.0047393
        k(  199) = (   0.0571429   0.0996351   0.0000000), wk =   0.0047393
        k(  200) = (   0.0523810   0.0913322   0.0000000), wk =   0.0047393
        k(  201) = (   0.0476190   0.0830293   0.0000000), wk =   0.0047393
        k(  202) = (   0.0428571   0.0747263   0.0000000), wk =   0.0047393
        k(  203) = (   0.0380952   0.0664234   0.0000000), wk =   0.0047393
        k(  204) = (   0.0333333   0.0581205   0.0000000), wk =   0.0047393
        k(  205) = (   0.0285714   0.0498176   0.0000000), wk =   0.0047393
        k(  206) = (   0.0238095   0.0415146   0.0000000), wk =   0.0047393
        k(  207) = (   0.0190476   0.0332117   0.0000000), wk =   0.0047393
        k(  208) = (   0.0142857   0.0249088   0.0000000), wk =   0.0047393
        k(  209) = (   0.0095238   0.0166059   0.0000000), wk =   0.0047393
        k(  210) = (   0.0047619   0.0083029   0.0000000), wk =   0.0047393
        k(  211) = (   0.0000000   0.0000000   0.0000000), wk =   0.0047393

                       cryst. coord.
        k(    1) = (   0.0000000   0.0000000   0.0000000), wk =   0.0047393
        k(    2) = (   0.0071429   0.0000000   0.0000000), wk =   0.0047393
        k(    3) = (   0.0142857   0.0000000   0.0000000), wk =   0.0047393
        k(    4) = (   0.0214286   0.0000000   0.0000000), wk =   0.0047393
        k(    5) = (   0.0285714   0.0000000   0.0000000), wk =   0.0047393
        k(    6) = (   0.0357143  -0.0000000   0.0000000), wk =   0.0047393
        k(    7) = (   0.0428571   0.0000000   0.0000000), wk =   0.0047393
        k(    8) = (   0.0500000   0.0000000   0.0000000), wk =   0.0047393
        k(    9) = (   0.0571429   0.0000000   0.0000000), wk =   0.0047393
        k(   10) = (   0.0642857   0.0000000   0.0000000), wk =   0.0047393
        k(   11) = (   0.0714286  -0.0000000   0.0000000), wk =   0.0047393
        k(   12) = (   0.0785714  -0.0000000   0.0000000), wk =   0.0047393
        k(   13) = (   0.0857143   0.0000000   0.0000000), wk =   0.0047393
        k(   14) = (   0.0928571   0.0000000   0.0000000), wk =   0.0047393
        k(   15) = (   0.1000000   0.0000000   0.0000000), wk =   0.0047393
        k(   16) = (   0.1071429  -0.0000000   0.0000000), wk =   0.0047393
        k(   17) = (   0.1142857   0.0000000   0.0000000), wk =   0.0047393
        k(   18) = (   0.1214286   0.0000000   0.0000000), wk =   0.0047393
        k(   19) = (   0.1285714   0.0000000   0.0000000), wk =   0.0047393
        k(   20) = (   0.1357143   0.0000000   0.0000000), wk =   0.0047393
        k(   21) = (   0.1428571  -0.0000000   0.0000000), wk =   0.0047393
        k(   22) = (   0.1500000  -0.0000000   0.0000000), wk =   0.0047393
        k(   23) = (   0.1571429  -0.0000000   0.0000000), wk =   0.0047393
        k(   24) = (   0.1642857   0.0000000   0.0000000), wk =   0.0047393
        k(   25) = (   0.1714286   0.0000000   0.0000000), wk =   0.0047393
        k(   26) = (   0.1785714   0.0000000   0.0000000), wk =   0.0047393
        k(   27) = (   0.1857143   0.0000000   0.0000000), wk =   0.0047393
        k(   28) = (   0.1928571   0.0000000   0.0000000), wk =   0.0047393
        k(   29) = (   0.2000000   0.0000000   0.0000000), wk =   0.0047393
        k(   30) = (   0.2071429   0.0000000   0.0000000), wk =   0.0047393
        k(   31) = (   0.2142857  -0.0000000   0.0000000), wk =   0.0047393
        k(   32) = (   0.2214286   0.0000000   0.0000000), wk =   0.0047393
        k(   33) = (   0.2285714   0.0000000   0.0000000), wk =   0.0047393
        k(   34) = (   0.2357143   0.0000000   0.0000000), wk =   0.0047393
        k(   35) = (   0.2428571   0.0000000   0.0000000), wk =   0.0047393
        k(   36) = (   0.2500000   0.0000000   0.0000000), wk =   0.0047393
        k(   37) = (   0.2571429   0.0000000   0.0000000), wk =   0.0047393
        k(   38) = (   0.2642857  -0.0000000   0.0000000), wk =   0.0047393
        k(   39) = (   0.2714286   0.0000000   0.0000000), wk =   0.0047393
        k(   40) = (   0.2785714  -0.0000000   0.0000000), wk =   0.0047393
        k(   41) = (   0.2857143  -0.0000000   0.0000000), wk =   0.0047393
        k(   42) = (   0.2928571   0.0000000   0.0000000), wk =   0.0047393
        k(   43) = (   0.3000000  -0.0000000   0.0000000), wk =   0.0047393
        k(   44) = (   0.3071429   0.0000000   0.0000000), wk =   0.0047393
        k(   45) = (   0.3142857  -0.0000000   0.0000000), wk =   0.0047393
        k(   46) = (   0.3214286   0.0000000   0.0000000), wk =   0.0047393
        k(   47) = (   0.3285714   0.0000000   0.0000000), wk =   0.0047393
        k(   48) = (   0.3357143   0.0000000   0.0000000), wk =   0.0047393
        k(   49) = (   0.3428571   0.0000000   0.0000000), wk =   0.0047393
        k(   50) = (   0.3500000  -0.0000000   0.0000000), wk =   0.0047393
        k(   51) = (   0.3571429   0.0000000   0.0000000), wk =   0.0047393
        k(   52) = (   0.3642857   0.0000000   0.0000000), wk =   0.0047393
        k(   53) = (   0.3714286   0.0000000   0.0000000), wk =   0.0047393
        k(   54) = (   0.3785714   0.0000000   0.0000000), wk =   0.0047393
        k(   55) = (   0.3857143   0.0000000   0.0000000), wk =   0.0047393
        k(   56) = (   0.3928571   0.0000000   0.0000000), wk =   0.0047393
        k(   57) = (   0.4000000   0.0000000   0.0000000), wk =   0.0047393
        k(   58) = (   0.4071429   0.0000000   0.0000000), wk =   0.0047393
        k(   59) = (   0.4142857   0.0000000   0.0000000), wk =   0.0047393
        k(   60) = (   0.4214286  -0.0000000   0.0000000), wk =   0.0047393
        k(   61) = (   0.4285714  -0.0000000   0.0000000), wk =   0.0047393
        k(   62) = (   0.4357143   0.0000000   0.0000000), wk =   0.0047393
        k(   63) = (   0.4428571   0.0000000   0.0000000), wk =   0.0047393
        k(   64) = (   0.4500000  -0.0000000   0.0000000), wk =   0.0047393
        k(   65) = (   0.4571429   0.0000000   0.0000000), wk =   0.0047393
        k(   66) = (   0.4642857  -0.0000000   0.0000000), wk =   0.0047393
        k(   67) = (   0.4714286   0.0000000   0.0000000), wk =   0.0047393
        k(   68) = (   0.4785714   0.0000000   0.0000000), wk =   0.0047393
        k(   69) = (   0.4857143   0.0000000   0.0000000), wk =   0.0047393
        k(   70) = (   0.4928571   0.0000000   0.0000000), wk =   0.0047393
        k(   71) = (   0.5000000   0.0000000   0.0000000), wk =   0.0047393
        k(   72) = (   0.4976190   0.0047619   0.0000000), wk =   0.0047393
        k(   73) = (   0.4952381   0.0095238   0.0000000), wk =   0.0047393
        k(   74) = (   0.4928571   0.0142857   0.0000000), wk =   0.0047393
        k(   75) = (   0.4904762   0.0190476   0.0000000), wk =   0.0047393
        k(   76) = (   0.4880952   0.0238095   0.0000000), wk =   0.0047393
        k(   77) = (   0.4857143   0.0285714   0.0000000), wk =   0.0047393
        k(   78) = (   0.4833333   0.0333333   0.0000000), wk =   0.0047393
        k(   79) = (   0.4809524   0.0380952   0.0000000), wk =   0.0047393
        k(   80) = (   0.4785714   0.0428571   0.0000000), wk =   0.0047393
        k(   81) = (   0.4761905   0.0476190   0.0000000), wk =   0.0047393
        k(   82) = (   0.4738095   0.0523810   0.0000000), wk =   0.0047393
        k(   83) = (   0.4714286   0.0571429   0.0000000), wk =   0.0047393
        k(   84) = (   0.4690476   0.0619048   0.0000000), wk =   0.0047393
        k(   85) = (   0.4666667   0.0666667   0.0000000), wk =   0.0047393
        k(   86) = (   0.4642857   0.0714286   0.0000000), wk =   0.0047393
        k(   87) = (   0.4619048   0.0761905   0.0000000), wk =   0.0047393
        k(   88) = (   0.4595238   0.0809524   0.0000000), wk =   0.0047393
        k(   89) = (   0.4571429   0.0857143   0.0000000), wk =   0.0047393
        k(   90) = (   0.4547619   0.0904762   0.0000000), wk =   0.0047393
        k(   91) = (   0.4523810   0.0952381   0.0000000), wk =   0.0047393
        k(   92) = (   0.4500000   0.1000000   0.0000000), wk =   0.0047393
        k(   93) = (   0.4476190   0.1047619   0.0000000), wk =   0.0047393
        k(   94) = (   0.4452381   0.1095238   0.0000000), wk =   0.0047393
        k(   95) = (   0.4428571   0.1142857   0.0000000), wk =   0.0047393
        k(   96) = (   0.4404762   0.1190476   0.0000000), wk =   0.0047393
        k(   97) = (   0.4380952   0.1238095   0.0000000), wk =   0.0047393
        k(   98) = (   0.4357143   0.1285714   0.0000000), wk =   0.0047393
        k(   99) = (   0.4333333   0.1333333   0.0000000), wk =   0.0047393
        k(  100) = (   0.4309524   0.1380952   0.0000000), wk =   0.0047393
        k(  101) = (   0.4285714   0.1428571   0.0000000), wk =   0.0047393
        k(  102) = (   0.4261905   0.1476190   0.0000000), wk =   0.0047393
        k(  103) = (   0.4238095   0.1523810   0.0000000), wk =   0.0047393
        k(  104) = (   0.4214286   0.1571429   0.0000000), wk =   0.0047393
        k(  105) = (   0.4190476   0.1619048   0.0000000), wk =   0.0047393
        k(  106) = (   0.4166667   0.1666667   0.0000000), wk =   0.0047393
        k(  107) = (   0.4142857   0.1714286   0.0000000), wk =   0.0047393
        k(  108) = (   0.4119048   0.1761905   0.0000000), wk =   0.0047393
        k(  109) = (   0.4095238   0.1809524   0.0000000), wk =   0.0047393
        k(  110) = (   0.4071429   0.1857143   0.0000000), wk =   0.0047393
        k(  111) = (   0.4047619   0.1904762   0.0000000), wk =   0.0047393
        k(  112) = (   0.4023810   0.1952381   0.0000000), wk =   0.0047393
        k(  113) = (   0.4000000   0.2000000   0.0000000), wk =   0.0047393
        k(  114) = (   0.3976190   0.2047619   0.0000000), wk =   0.0047393
        k(  115) = (   0.3952381   0.2095238   0.0000000), wk =   0.0047393
        k(  116) = (   0.3928571   0.2142857   0.0000000), wk =   0.0047393
        k(  117) = (   0.3904762   0.2190476   0.0000000), wk =   0.0047393
        k(  118) = (   0.3880952   0.2238095   0.0000000), wk =   0.0047393
        k(  119) = (   0.3857143   0.2285714   0.0000000), wk =   0.0047393
        k(  120) = (   0.3833333   0.2333333   0.0000000), wk =   0.0047393
        k(  121) = (   0.3809524   0.2380952   0.0000000), wk =   0.0047393
        k(  122) = (   0.3785714   0.2428571   0.0000000), wk =   0.0047393
        k(  123) = (   0.3761905   0.2476190   0.0000000), wk =   0.0047393
        k(  124) = (   0.3738095   0.2523810   0.0000000), wk =   0.0047393
        k(  125) = (   0.3714286   0.2571429   0.0000000), wk =   0.0047393
        k(  126) = (   0.3690476   0.2619048   0.0000000), wk =   0.0047393
        k(  127) = (   0.3666667   0.2666667   0.0000000), wk =   0.0047393
        k(  128) = (   0.3642857   0.2714286   0.0000000), wk =   0.0047393
        k(  129) = (   0.3619048   0.2761905   0.0000000), wk =   0.0047393
        k(  130) = (   0.3595238   0.2809524   0.0000000), wk =   0.0047393
        k(  131) = (   0.3571429   0.2857143   0.0000000), wk =   0.0047393
        k(  132) = (   0.3547619   0.2904762   0.0000000), wk =   0.0047393
        k(  133) = (   0.3523810   0.2952381   0.0000000), wk =   0.0047393
        k(  134) = (   0.3500000   0.3000000   0.0000000), wk =   0.0047393
        k(  135) = (   0.3476190   0.3047619   0.0000000), wk =   0.0047393
        k(  136) = (   0.3452381   0.3095238   0.0000000), wk =   0.0047393
        k(  137) = (   0.3428571   0.3142857   0.0000000), wk =   0.0047393
        k(  138) = (   0.3404762   0.3190476   0.0000000), wk =   0.0047393
        k(  139) = (   0.3380952   0.3238095   0.0000000), wk =   0.0047393
        k(  140) = (   0.3357143   0.3285714   0.0000000), wk =   0.0047393
        k(  141) = (   0.3333333   0.3333333   0.0000000), wk =   0.0047393
        k(  142) = (   0.3285714   0.3285714   0.0000000), wk =   0.0047393
        k(  143) = (   0.3238095   0.3238095   0.0000000), wk =   0.0047393
        k(  144) = (   0.3190476   0.3190476   0.0000000), wk =   0.0047393
        k(  145) = (   0.3142857   0.3142857   0.0000000), wk =   0.0047393
        k(  146) = (   0.3095238   0.3095238   0.0000000), wk =   0.0047393
        k(  147) = (   0.3047619   0.3047619   0.0000000), wk =   0.0047393
        k(  148) = (   0.3000000   0.3000000   0.0000000), wk =   0.0047393
        k(  149) = (   0.2952381   0.2952381   0.0000000), wk =   0.0047393
        k(  150) = (   0.2904762   0.2904762   0.0000000), wk =   0.0047393
        k(  151) = (   0.2857143   0.2857143   0.0000000), wk =   0.0047393
        k(  152) = (   0.2809524   0.2809524   0.0000000), wk =   0.0047393
        k(  153) = (   0.2761905   0.2761905   0.0000000), wk =   0.0047393
        k(  154) = (   0.2714286   0.2714286   0.0000000), wk =   0.0047393
        k(  155) = (   0.2666667   0.2666667   0.0000000), wk =   0.0047393
        k(  156) = (   0.2619048   0.2619048   0.0000000), wk =   0.0047393
        k(  157) = (   0.2571429   0.2571429   0.0000000), wk =   0.0047393
        k(  158) = (   0.2523810   0.2523810   0.0000000), wk =   0.0047393
        k(  159) = (   0.2476190   0.2476190   0.0000000), wk =   0.0047393
        k(  160) = (   0.2428571   0.2428571   0.0000000), wk =   0.0047393
        k(  161) = (   0.2380952   0.2380952   0.0000000), wk =   0.0047393
        k(  162) = (   0.2333333   0.2333333   0.0000000), wk =   0.0047393
        k(  163) = (   0.2285714   0.2285714   0.0000000), wk =   0.0047393
        k(  164) = (   0.2238095   0.2238095   0.0000000), wk =   0.0047393
        k(  165) = (   0.2190476   0.2190476   0.0000000), wk =   0.0047393
        k(  166) = (   0.2142857   0.2142857   0.0000000), wk =   0.0047393
        k(  167) = (   0.2095238   0.2095238   0.0000000), wk =   0.0047393
        k(  168) = (   0.2047619   0.2047619   0.0000000), wk =   0.0047393
        k(  169) = (   0.2000000   0.2000000   0.0000000), wk =   0.0047393
        k(  170) = (   0.1952381   0.1952381   0.0000000), wk =   0.0047393
        k(  171) = (   0.1904762   0.1904762   0.0000000), wk =   0.0047393
        k(  172) = (   0.1857143   0.1857143   0.0000000), wk =   0.0047393
        k(  173) = (   0.1809524   0.1809524   0.0000000), wk =   0.0047393
        k(  174) = (   0.1761905   0.1761905   0.0000000), wk =   0.0047393
        k(  175) = (   0.1714286   0.1714286   0.0000000), wk =   0.0047393
        k(  176) = (   0.1666667   0.1666667   0.0000000), wk =   0.0047393
        k(  177) = (   0.1619048   0.1619048   0.0000000), wk =   0.0047393
        k(  178) = (   0.1571429   0.1571429   0.0000000), wk =   0.0047393
        k(  179) = (   0.1523810   0.1523810   0.0000000), wk =   0.0047393
        k(  180) = (   0.1476190   0.1476190   0.0000000), wk =   0.0047393
        k(  181) = (   0.1428571   0.1428571   0.0000000), wk =   0.0047393
        k(  182) = (   0.1380952   0.1380952   0.0000000), wk =   0.0047393
        k(  183) = (   0.1333333   0.1333333   0.0000000), wk =   0.0047393
        k(  184) = (   0.1285714   0.1285714   0.0000000), wk =   0.0047393
        k(  185) = (   0.1238095   0.1238095   0.0000000), wk =   0.0047393
        k(  186) = (   0.1190476   0.1190476   0.0000000), wk =   0.0047393
        k(  187) = (   0.1142857   0.1142857   0.0000000), wk =   0.0047393
        k(  188) = (   0.1095238   0.1095238   0.0000000), wk =   0.0047393
        k(  189) = (   0.1047619   0.1047619   0.0000000), wk =   0.0047393
        k(  190) = (   0.1000000   0.1000000   0.0000000), wk =   0.0047393
        k(  191) = (   0.0952381   0.0952381   0.0000000), wk =   0.0047393
        k(  192) = (   0.0904762   0.0904762   0.0000000), wk =   0.0047393
        k(  193) = (   0.0857143   0.0857143   0.0000000), wk =   0.0047393
        k(  194) = (   0.0809524   0.0809524   0.0000000), wk =   0.0047393
        k(  195) = (   0.0761905   0.0761905   0.0000000), wk =   0.0047393
        k(  196) = (   0.0714286   0.0714286   0.0000000), wk =   0.0047393
        k(  197) = (   0.0666667   0.0666667   0.0000000), wk =   0.0047393
        k(  198) = (   0.0619048   0.0619048   0.0000000), wk =   0.0047393
        k(  199) = (   0.0571429   0.0571429   0.0000000), wk =   0.0047393
        k(  200) = (   0.0523810   0.0523810   0.0000000), wk =   0.0047393
        k(  201) = (   0.0476190   0.0476190   0.0000000), wk =   0.0047393
        k(  202) = (   0.0428571   0.0428571   0.0000000), wk =   0.0047393
        k(  203) = (   0.0380952   0.0380952   0.0000000), wk =   0.0047393
        k(  204) = (   0.0333333   0.0333333   0.0000000), wk =   0.0047393
        k(  205) = (   0.0285714   0.0285714   0.0000000), wk =   0.0047393
        k(  206) = (   0.0238095   0.0238095   0.0000000), wk =   0.0047393
        k(  207) = (   0.0190476   0.0190476   0.0000000), wk =   0.0047393
        k(  208) = (   0.0142857   0.0142857   0.0000000), wk =   0.0047393
        k(  209) = (   0.0095238   0.0095238   0.0000000), wk =   0.0047393
        k(  210) = (   0.0047619   0.0047619   0.0000000), wk =   0.0047393
        k(  211) = (   0.0000000   0.0000000   0.0000000), wk =   0.0047393

     Dense  grid:   458817 G-vectors     FFT dimensions: (  60,  60, 300)

     Smooth grid:   116185 G-vectors     FFT dimensions: (  40,  40, 192)

     Dynamical RAM for                 wfc:       1.84 MB

     Dynamical RAM for     wfc (w. buffer):       1.84 MB

     Dynamical RAM for           str. fact:       0.58 MB

     Dynamical RAM for           local pot:       0.00 MB

     Dynamical RAM for          nlocal pot:       1.57 MB

     Dynamical RAM for                qrad:       9.40 MB

     Dynamical RAM for          rho,v,vnew:       7.78 MB

     Dynamical RAM for           G-vectors:       1.13 MB

     Dynamical RAM for          h,s,v(r/c):       1.83 MB

     Dynamical RAM for          <psi|beta>:       0.52 MB

     Dynamical RAM for                 psi:       3.69 MB

     Dynamical RAM for                hpsi:       3.69 MB

     Dynamical RAM for                spsi:       3.69 MB

     Dynamical RAM for      wfcinit/wfcrot:       2.99 MB

     Dynamical RAM for           addusdens:     178.80 MB

     Estimated static dynamical RAM per process >      26.04 MB

     Estimated max dynamical RAM per process >     204.84 MB

     Estimated total dynamical RAM >       4.80 GB

     The potential is recalculated from file :
     tmp/Sb2Te3-uatsx-c6-soc-1.0.save/charge-density


     negative rho (up, down):  3.910E-06 0.000E+00
     Starting wfcs are   40 randomized atomic wfcs +   60 random wfcs

     Band Structure Calculation
     Davidson diagonalization with overlap

     Computing kpt #:     1  of   211
     total cpu time spent up to now is        7.9 secs

     Computing kpt #:     2  of   211
     total cpu time spent up to now is       13.0 secs

     Computing kpt #:     3  of   211
     total cpu time spent up to now is       18.0 secs

     Computing kpt #:     4  of   211
     total cpu time spent up to now is       23.1 secs

     Computing kpt #:     5  of   211
     total cpu time spent up to now is       28.0 secs

     Computing kpt #:     6  of   211
     total cpu time spent up to now is       33.0 secs

     Computing kpt #:     7  of   211
     total cpu time spent up to now is       38.1 secs

     Computing kpt #:     8  of   211
     total cpu time spent up to now is       43.2 secs

     Computing kpt #:     9  of   211
     total cpu time spent up to now is       48.6 secs

     Computing kpt #:    10  of   211
     total cpu time spent up to now is       54.1 secs

     Computing kpt #:    11  of   211
     total cpu time spent up to now is       59.5 secs

     Computing kpt #:    12  of   211
     total cpu time spent up to now is       64.7 secs

     Computing kpt #:    13  of   211
     total cpu time spent up to now is       69.6 secs

     Computing kpt #:    14  of   211
     total cpu time spent up to now is       74.6 secs

     Computing kpt #:    15  of   211
     total cpu time spent up to now is       79.6 secs

     Computing kpt #:    16  of   211
     total cpu time spent up to now is       84.7 secs

     Computing kpt #:    17  of   211
     total cpu time spent up to now is       89.7 secs

     Computing kpt #:    18  of   211
     total cpu time spent up to now is       94.5 secs

     Computing kpt #:    19  of   211
     total cpu time spent up to now is       99.3 secs

     Computing kpt #:    20  of   211
     total cpu time spent up to now is      103.9 secs

     Computing kpt #:    21  of   211
     total cpu time spent up to now is      108.5 secs

     Computing kpt #:    22  of   211
     total cpu time spent up to now is      113.2 secs

     Computing kpt #:    23  of   211
     total cpu time spent up to now is      118.0 secs

     Computing kpt #:    24  of   211
     total cpu time spent up to now is      122.9 secs

     Computing kpt #:    25  of   211
     total cpu time spent up to now is      128.0 secs

     Computing kpt #:    26  of   211
     total cpu time spent up to now is      132.9 secs

     Computing kpt #:    27  of   211
     total cpu time spent up to now is      138.4 secs

     Computing kpt #:    28  of   211
     total cpu time spent up to now is      143.3 secs

     Computing kpt #:    29  of   211
     total cpu time spent up to now is      148.1 secs

     Computing kpt #:    30  of   211
     total cpu time spent up to now is      152.9 secs

     Computing kpt #:    31  of   211
     total cpu time spent up to now is      157.7 secs

     Computing kpt #:    32  of   211
     total cpu time spent up to now is      162.6 secs

     Computing kpt #:    33  of   211
     total cpu time spent up to now is      167.6 secs

     Computing kpt #:    34  of   211
     total cpu time spent up to now is      172.5 secs

     Computing kpt #:    35  of   211
     total cpu time spent up to now is      177.5 secs

     Computing kpt #:    36  of   211
     total cpu time spent up to now is      182.8 secs

     Computing kpt #:    37  of   211
     total cpu time spent up to now is      188.0 secs

     Computing kpt #:    38  of   211
     total cpu time spent up to now is      193.0 secs

     Computing kpt #:    39  of   211
     total cpu time spent up to now is      198.2 secs

     Computing kpt #:    40  of   211
     total cpu time spent up to now is      203.6 secs

     Computing kpt #:    41  of   211
     total cpu time spent up to now is      209.1 secs

     Computing kpt #:    42  of   211
     total cpu time spent up to now is      214.4 secs

     Computing kpt #:    43  of   211
     total cpu time spent up to now is      219.9 secs

     Computing kpt #:    44  of   211
     total cpu time spent up to now is      225.3 secs

     Computing kpt #:    45  of   211
     total cpu time spent up to now is      231.8 secs

     Computing kpt #:    46  of   211
     total cpu time spent up to now is      237.6 secs

     Computing kpt #:    47  of   211
     total cpu time spent up to now is      243.8 secs

     Computing kpt #:    48  of   211
     total cpu time spent up to now is      249.4 secs

     Computing kpt #:    49  of   211
     total cpu time spent up to now is      254.9 secs

     Computing kpt #:    50  of   211
     total cpu time spent up to now is      260.8 secs

     Computing kpt #:    51  of   211
     total cpu time spent up to now is      267.3 secs

     Computing kpt #:    52  of   211
     total cpu time spent up to now is      273.4 secs

     Computing kpt #:    53  of   211
     total cpu time spent up to now is      279.0 secs

     Computing kpt #:    54  of   211
     total cpu time spent up to now is      284.5 secs

     Computing kpt #:    55  of   211
     total cpu time spent up to now is      290.1 secs

     Computing kpt #:    56  of   211
     total cpu time spent up to now is      295.8 secs

     Computing kpt #:    57  of   211
     total cpu time spent up to now is      301.7 secs

     Computing kpt #:    58  of   211
     total cpu time spent up to now is      307.7 secs

     Computing kpt #:    59  of   211
     total cpu time spent up to now is      313.9 secs

     Computing kpt #:    60  of   211
     total cpu time spent up to now is      320.2 secs

     Computing kpt #:    61  of   211
     total cpu time spent up to now is      326.7 secs

     Computing kpt #:    62  of   211
     total cpu time spent up to now is      333.1 secs

     Computing kpt #:    63  of   211
     total cpu time spent up to now is      339.9 secs

     Computing kpt #:    64  of   211
     total cpu time spent up to now is      346.2 secs

     Computing kpt #:    65  of   211
     total cpu time spent up to now is      352.7 secs

     Computing kpt #:    66  of   211
     total cpu time spent up to now is      359.4 secs

     Computing kpt #:    67  of   211
     total cpu time spent up to now is      366.0 secs

     Computing kpt #:    68  of   211
     total cpu time spent up to now is      372.4 secs

     Computing kpt #:    69  of   211
     total cpu time spent up to now is      379.1 secs

     Computing kpt #:    70  of   211
     total cpu time spent up to now is      385.5 secs

     Computing kpt #:    71  of   211
     total cpu time spent up to now is      391.6 secs

     Computing kpt #:    72  of   211
     total cpu time spent up to now is      398.2 secs

     Computing kpt #:    73  of   211
     total cpu time spent up to now is      404.9 secs

     Computing kpt #:    74  of   211
     total cpu time spent up to now is      411.7 secs

     Computing kpt #:    75  of   211
     c_bands:  2 eigenvalues not converged
     total cpu time spent up to now is      419.2 secs

     Computing kpt #:    76  of   211
     c_bands:  2 eigenvalues not converged
     total cpu time spent up to now is      426.5 secs

     Computing kpt #:    77  of   211
     c_bands:  2 eigenvalues not converged
     total cpu time spent up to now is      434.0 secs

     Computing kpt #:    78  of   211
     total cpu time spent up to now is      441.3 secs

     Computing kpt #:    79  of   211
     total cpu time spent up to now is      447.9 secs

     Computing kpt #:    80  of   211
     total cpu time spent up to now is      454.4 secs

     Computing kpt #:    81  of   211
     total cpu time spent up to now is      461.0 secs

     Computing kpt #:    82  of   211
     total cpu time spent up to now is      467.6 secs

     Computing kpt #:    83  of   211
     total cpu time spent up to now is      474.3 secs

     Computing kpt #:    84  of   211
     total cpu time spent up to now is      481.1 secs

     Computing kpt #:    85  of   211
     total cpu time spent up to now is      487.7 secs

     Computing kpt #:    86  of   211
     total cpu time spent up to now is      495.0 secs

     Computing kpt #:    87  of   211
     total cpu time spent up to now is      501.7 secs

     Computing kpt #:    88  of   211
     total cpu time spent up to now is      508.3 secs

     Computing kpt #:    89  of   211
     total cpu time spent up to now is      515.3 secs

     Computing kpt #:    90  of   211
     total cpu time spent up to now is      522.2 secs

     Computing kpt #:    91  of   211
     total cpu time spent up to now is      529.0 secs

     Computing kpt #:    92  of   211
     total cpu time spent up to now is      535.8 secs

     Computing kpt #:    93  of   211
     total cpu time spent up to now is      542.6 secs

     Computing kpt #:    94  of   211
     total cpu time spent up to now is      549.2 secs

     Computing kpt #:    95  of   211
     total cpu time spent up to now is      555.8 secs

     Computing kpt #:    96  of   211
     total cpu time spent up to now is      562.5 secs

     Computing kpt #:    97  of   211
     total cpu time spent up to now is      569.1 secs

     Computing kpt #:    98  of   211
     total cpu time spent up to now is      575.4 secs

     Computing kpt #:    99  of   211
     total cpu time spent up to now is      581.9 secs

     Computing kpt #:   100  of   211
     total cpu time spent up to now is      588.5 secs

     Computing kpt #:   101  of   211
     total cpu time spent up to now is      594.9 secs

     Computing kpt #:   102  of   211
     total cpu time spent up to now is      601.5 secs

     Computing kpt #:   103  of   211
     total cpu time spent up to now is      608.0 secs

     Computing kpt #:   104  of   211
     total cpu time spent up to now is      614.8 secs

     Computing kpt #:   105  of   211
     total cpu time spent up to now is      621.4 secs

     Computing kpt #:   106  of   211
     total cpu time spent up to now is      628.0 secs

     Computing kpt #:   107  of   211
     total cpu time spent up to now is      634.7 secs

     Computing kpt #:   108  of   211
     total cpu time spent up to now is      641.1 secs

     Computing kpt #:   109  of   211
     total cpu time spent up to now is      647.5 secs

     Computing kpt #:   110  of   211
     total cpu time spent up to now is      653.8 secs

     Computing kpt #:   111  of   211
     total cpu time spent up to now is      660.0 secs

     Computing kpt #:   112  of   211
     total cpu time spent up to now is      666.2 secs

     Computing kpt #:   113  of   211
     total cpu time spent up to now is      672.3 secs

     Computing kpt #:   114  of   211
     total cpu time spent up to now is      678.0 secs

     Computing kpt #:   115  of   211
     total cpu time spent up to now is      683.5 secs

     Computing kpt #:   116  of   211
     total cpu time spent up to now is      689.4 secs

     Computing kpt #:   117  of   211
     total cpu time spent up to now is      694.7 secs

     Computing kpt #:   118  of   211
     total cpu time spent up to now is      700.2 secs

     Computing kpt #:   119  of   211
     total cpu time spent up to now is      705.8 secs

     Computing kpt #:   120  of   211
     total cpu time spent up to now is      711.3 secs

     Computing kpt #:   121  of   211
     total cpu time spent up to now is      716.8 secs

     Computing kpt #:   122  of   211
     total cpu time spent up to now is      722.2 secs

     Computing kpt #:   123  of   211
     total cpu time spent up to now is      727.7 secs

     Computing kpt #:   124  of   211
     total cpu time spent up to now is      733.2 secs

     Computing kpt #:   125  of   211
     total cpu time spent up to now is      738.6 secs

     Computing kpt #:   126  of   211
     total cpu time spent up to now is      744.2 secs

     Computing kpt #:   127  of   211
     total cpu time spent up to now is      749.7 secs

     Computing kpt #:   128  of   211
     total cpu time spent up to now is      755.1 secs

     Computing kpt #:   129  of   211
     total cpu time spent up to now is      760.4 secs

     Computing kpt #:   130  of   211
     total cpu time spent up to now is      766.1 secs

     Computing kpt #:   131  of   211
     total cpu time spent up to now is      771.5 secs

     Computing kpt #:   132  of   211
     total cpu time spent up to now is      776.9 secs

     Computing kpt #:   133  of   211
     total cpu time spent up to now is      782.3 secs

     Computing kpt #:   134  of   211
     total cpu time spent up to now is      787.8 secs

     Computing kpt #:   135  of   211
     total cpu time spent up to now is      793.2 secs

     Computing kpt #:   136  of   211
     total cpu time spent up to now is      798.6 secs

     Computing kpt #:   137  of   211
     total cpu time spent up to now is      804.0 secs

     Computing kpt #:   138  of   211
     total cpu time spent up to now is      809.4 secs

     Computing kpt #:   139  of   211
     total cpu time spent up to now is      815.2 secs

     Computing kpt #:   140  of   211
     total cpu time spent up to now is      821.7 secs

     Computing kpt #:   141  of   211
     c_bands:  4 eigenvalues not converged
     total cpu time spent up to now is      828.6 secs

     Computing kpt #:   142  of   211
     c_bands:  2 eigenvalues not converged
     total cpu time spent up to now is      835.2 secs

     Computing kpt #:   143  of   211
     total cpu time spent up to now is      841.5 secs

     Computing kpt #:   144  of   211
     total cpu time spent up to now is      847.3 secs

     Computing kpt #:   145  of   211
     total cpu time spent up to now is      852.6 secs

     Computing kpt #:   146  of   211
     total cpu time spent up to now is      858.1 secs

     Computing kpt #:   147  of   211
     total cpu time spent up to now is      863.5 secs

     Computing kpt #:   148  of   211
     total cpu time spent up to now is      868.9 secs

     Computing kpt #:   149  of   211
     total cpu time spent up to now is      874.3 secs

     Computing kpt #:   150  of   211
     total cpu time spent up to now is      879.3 secs

     Computing kpt #:   151  of   211
     total cpu time spent up to now is      884.4 secs

     Computing kpt #:   152  of   211
     total cpu time spent up to now is      889.4 secs

     Computing kpt #:   153  of   211
     total cpu time spent up to now is      894.5 secs

     Computing kpt #:   154  of   211
     total cpu time spent up to now is      899.5 secs

     Computing kpt #:   155  of   211
     total cpu time spent up to now is      904.5 secs

     Computing kpt #:   156  of   211
     total cpu time spent up to now is      909.5 secs

     Computing kpt #:   157  of   211
     total cpu time spent up to now is      915.0 secs

     Computing kpt #:   158  of   211
     total cpu time spent up to now is      920.9 secs

     Computing kpt #:   159  of   211
     total cpu time spent up to now is      926.4 secs

     Computing kpt #:   160  of   211
     total cpu time spent up to now is      931.7 secs

     Computing kpt #:   161  of   211
     total cpu time spent up to now is      937.0 secs

     Computing kpt #:   162  of   211
     total cpu time spent up to now is      942.0 secs

     Computing kpt #:   163  of   211
     total cpu time spent up to now is      947.9 secs

     Computing kpt #:   164  of   211
     total cpu time spent up to now is      953.5 secs

     Computing kpt #:   165  of   211
     total cpu time spent up to now is      958.5 secs

     Computing kpt #:   166  of   211
     total cpu time spent up to now is      963.5 secs

     Computing kpt #:   167  of   211
     total cpu time spent up to now is      968.8 secs

     Computing kpt #:   168  of   211
     total cpu time spent up to now is      974.1 secs

     Computing kpt #:   169  of   211
     total cpu time spent up to now is      979.6 secs

     Computing kpt #:   170  of   211
     total cpu time spent up to now is      984.9 secs

     Computing kpt #:   171  of   211
     total cpu time spent up to now is      990.3 secs

     Computing kpt #:   172  of   211
     total cpu time spent up to now is      995.5 secs

     Computing kpt #:   173  of   211
     total cpu time spent up to now is     1000.5 secs

     Computing kpt #:   174  of   211
     total cpu time spent up to now is     1005.5 secs

     Computing kpt #:   175  of   211
     total cpu time spent up to now is     1010.8 secs

     Computing kpt #:   176  of   211
     total cpu time spent up to now is     1016.2 secs

     Computing kpt #:   177  of   211
     total cpu time spent up to now is     1021.5 secs

     Computing kpt #:   178  of   211
     total cpu time spent up to now is     1027.0 secs

     Computing kpt #:   179  of   211
     total cpu time spent up to now is     1032.2 secs

     Computing kpt #:   180  of   211
     total cpu time spent up to now is     1037.5 secs

     Computing kpt #:   181  of   211
     total cpu time spent up to now is     1042.7 secs

     Computing kpt #:   182  of   211
     total cpu time spent up to now is     1048.2 secs

     Computing kpt #:   183  of   211
     total cpu time spent up to now is     1053.6 secs

     Computing kpt #:   184  of   211
     total cpu time spent up to now is     1058.8 secs

     Computing kpt #:   185  of   211
     total cpu time spent up to now is     1063.9 secs

     Computing kpt #:   186  of   211
     total cpu time spent up to now is     1068.9 secs

     Computing kpt #:   187  of   211
     total cpu time spent up to now is     1073.7 secs

     Computing kpt #:   188  of   211
     total cpu time spent up to now is     1078.5 secs

     Computing kpt #:   189  of   211
     total cpu time spent up to now is     1083.4 secs

     Computing kpt #:   190  of   211
     total cpu time spent up to now is     1088.3 secs

     Computing kpt #:   191  of   211
     total cpu time spent up to now is     1093.2 secs

     Computing kpt #:   192  of   211
     total cpu time spent up to now is     1098.0 secs

     Computing kpt #:   193  of   211
     total cpu time spent up to now is     1103.1 secs

     Computing kpt #:   194  of   211
     total cpu time spent up to now is     1108.4 secs

     Computing kpt #:   195  of   211
     total cpu time spent up to now is     1113.6 secs

     Computing kpt #:   196  of   211
     total cpu time spent up to now is     1118.8 secs

     Computing kpt #:   197  of   211
     total cpu time spent up to now is     1123.8 secs

     Computing kpt #:   198  of   211
     total cpu time spent up to now is     1128.9 secs

     Computing kpt #:   199  of   211
     total cpu time spent up to now is     1134.0 secs

     Computing kpt #:   200  of   211
     total cpu time spent up to now is     1138.7 secs

     Computing kpt #:   201  of   211
     total cpu time spent up to now is     1143.4 secs

     Computing kpt #:   202  of   211
     total cpu time spent up to now is     1147.9 secs

     Computing kpt #:   203  of   211
     total cpu time spent up to now is     1152.6 secs

     Computing kpt #:   204  of   211
     total cpu time spent up to now is     1157.6 secs

     Computing kpt #:   205  of   211
     total cpu time spent up to now is     1162.6 secs

     Computing kpt #:   206  of   211
     total cpu time spent up to now is     1167.5 secs

     Computing kpt #:   207  of   211
     total cpu time spent up to now is     1172.9 secs

     Computing kpt #:   208  of   211
     total cpu time spent up to now is     1177.9 secs

     Computing kpt #:   209  of   211
     total cpu time spent up to now is     1183.4 secs

     Computing kpt #:   210  of   211
     total cpu time spent up to now is     1188.7 secs

     Computing kpt #:   211  of   211
     total cpu time spent up to now is     1193.9 secs

     ethr =  3.57E-10,  avg # of iterations = 73.1

     total cpu time spent up to now is     1193.9 secs

     End of band structure calculation

          k = 0.0000 0.0000 0.0000 ( 14485 PWs)   bands (ev):

   -12.5616 -12.5616 -12.0413 -12.0413 -10.9478 -10.9478  -8.1984  -8.1984
    -6.7828  -6.7828  -2.4188  -2.4188  -1.9073  -1.9073  -1.6530  -1.6530
    -1.3813  -1.3813  -1.2990  -1.2990  -1.1936  -1.1936  -0.9735  -0.9735
    -0.5882  -0.5882  -0.4540  -0.4540   0.2588   0.2588   0.8706   0.8706
     1.1944   1.1944   1.4288   1.4288   2.1918   2.1918   2.2936   2.2936
     4.2604   4.2604   4.4624   4.4624   5.0306   5.0306   5.6631   5.6631
     5.7490   5.7490   5.8962   5.8962   6.4828   6.4828   6.7351   6.7351
     6.8764   6.8764   7.0583   7.0583   7.2042   7.2042   7.7465   7.7465
     7.8051   7.8051   8.1085   8.1085   8.2081   8.2081   8.6347   8.6347
     9.2282   9.2282   9.3849   9.3849   9.5947   9.5947   9.6799   9.6799
     9.7829   9.7829  10.8865  10.8865  10.9403  10.9403  12.0769  12.0769
    12.2158  12.2158  12.2941  12.2941  12.3880  12.3880  12.4780  12.4780
    13.1769  13.1769  13.9502  13.9502

          k = 0.0071 0.0041 0.0000 ( 14485 PWs)   bands (ev):

   -12.5611 -12.5611 -12.0409 -12.0409 -10.9475 -10.9475  -8.1984  -8.1984
    -6.7835  -6.7835  -2.4194  -2.4194  -1.9132  -1.9130  -1.6524  -1.6520
    -1.3839  -1.3835  -1.3160  -1.3132  -1.1852  -1.1819  -0.9700  -0.9694
    -0.5923  -0.5918  -0.4504  -0.4500   0.2646   0.2649   0.8708   0.8711
     1.1881   1.1889   1.4347   1.4355   2.1944   2.1946   2.2930   2.2932
     4.2612   4.2612   4.4626   4.4626   5.0309   5.0309   5.6630   5.6630
     5.7454   5.7455   5.8966   5.8966   6.4860   6.4860   6.7344   6.7344
     6.8744   6.8745   7.0578   7.0578   7.2032   7.2033   7.7517   7.7518
     7.8075   7.8076   8.1076   8.1076   8.2111   8.2111   8.6375   8.6375
     9.2264   9.2265   9.3789   9.3795   9.5693   9.5699   9.7063   9.7070
     9.7920   9.7926  10.8862  10.8862  10.9417  10.9417  12.0615  12.0615
    12.1959  12.1967  12.3102  12.3117  12.3992  12.3999  12.4829  12.4829
    13.1809  13.1809  13.9305  13.9306

          k = 0.0143 0.0082 0.0000 ( 14491 PWs)   bands (ev):

   -12.5598 -12.5598 -12.0397 -12.0397 -10.9468 -10.9468  -8.1986  -8.1986
    -6.7857  -6.7857  -2.4214  -2.4213  -1.9304  -1.9300  -1.6508  -1.6500
    -1.3928  -1.3918  -1.3499  -1.3464  -1.1675  -1.1628  -0.9594  -0.9582
    -0.6037  -0.6028  -0.4388  -0.4381   0.2814   0.2821   0.8714   0.8720
     1.1724   1.1737   1.4510   1.4524   2.2021   2.2024   2.2916   2.2919
     4.2637   4.2637   4.4632   4.4632   5.0317   5.0318   5.6626   5.6626
     5.7351   5.7352   5.8981   5.8981   6.4953   6.4953   6.7322   6.7323
     6.8683   6.8684   7.0570   7.0570   7.2006   7.2007   7.7664   7.7666
     7.8148   7.8150   8.1055   8.1055   8.2199   8.2199   8.6459   8.6459
     9.2204   9.2207   9.3626   9.3637   9.5279   9.5287   9.7518   9.7530
     9.8200   9.8211  10.8854  10.8854  10.9459  10.9459  12.0220  12.0221
    12.1576  12.1583  12.3377  12.3392  12.4277  12.4286  12.5003  12.5004
    13.1916  13.1916  13.8788  13.8789

          k = 0.0214 0.0124 0.0000 ( 14486 PWs)   bands (ev):

   -12.5576 -12.5576 -12.0377 -12.0377 -10.9455 -10.9455  -8.1988  -8.1988
    -6.7894  -6.7894  -2.4246  -2.4245  -1.9570  -1.9566  -1.6497  -1.6487
    -1.4173  -1.4148  -1.3796  -1.3771  -1.1521  -1.1469  -0.9428  -0.9411
    -0.6206  -0.6194  -0.4195  -0.4184   0.3072   0.3082   0.8724   0.8733
     1.1522   1.1538   1.4738   1.4755   2.2144   2.2149   2.2898   2.2902
     4.2677   4.2678   4.4642   4.4643   5.0331   5.0331   5.6611   5.6612
     5.7191   5.7192   5.9011   5.9012   6.5097   6.5097   6.7277   6.7278
     6.8583   6.8584   7.0579   7.0579   7.1967   7.1969   7.7878   7.7880
     7.8269   7.8271   8.1032   8.1033   8.2345   8.2345   8.6600   8.6600
     9.2086   9.2091   9.3391   9.3404   9.4902   9.4910   9.7971   9.7986
     9.8646   9.8661  10.8843  10.8843  10.9526  10.9526  11.9695  11.9696
    12.1143  12.1147  12.3574  12.3585  12.4654  12.4660  12.5333  12.5334
    13.2045  13.2045  13.8126  13.8126

          k = 0.0286 0.0165 0.0000 ( 14495 PWs)   bands (ev):

   -12.5545 -12.5545 -12.0349 -12.0349 -10.9438 -10.9438  -8.1991  -8.1991
    -6.7946  -6.7946  -2.4293  -2.4292  -1.9915  -1.9910  -1.6509  -1.6496
    -1.4613  -1.4578  -1.3962  -1.3941  -1.1426  -1.1373  -0.9229  -0.9209
    -0.6398  -0.6381  -0.3932  -0.3920   0.3392   0.3404   0.8739   0.8749
     1.1322   1.1340   1.4993   1.5013   2.2301   2.2306   2.2889   2.2893
     4.2734   4.2734   4.4656   4.4657   5.0348   5.0348   5.6563   5.6564
     5.7007   5.7008   5.9060   5.9060   6.5282   6.5282   6.7196   6.7197
     6.8460   6.8461   7.0623   7.0624   7.1922   7.1924   7.8117   7.8119
     7.8434   7.8437   8.1029   8.1030   8.2547   8.2547   8.6799   8.6800
     9.1892   9.1897   9.3121   9.3134   9.4612   9.4618   9.8416   9.8431
     9.9197   9.9211  10.8829  10.8830  10.9618  10.9618  11.9110  11.9112
    12.0693  12.0696  12.3670  12.3677  12.5083  12.5085  12.5787  12.5788
    13.2119  13.2120  13.7490  13.7490

          k = 0.0357 0.0206 0.0000 ( 14492 PWs)   bands (ev):

   -12.5506 -12.5506 -12.0313 -12.0312 -10.9415 -10.9415  -8.1996  -8.1996
    -6.8012  -6.8012  -2.4354  -2.4353  -2.0323  -2.0318  -1.6557  -1.6542
    -1.5118  -1.5080  -1.4098  -1.4077  -1.1397  -1.1344  -0.9036  -0.9013
    -0.6563  -0.6542  -0.3618  -0.3604   0.3741   0.3755   0.8761   0.8771
     1.1162   1.1179   1.5255   1.5276   2.2450   2.2456   2.2927   2.2931
     4.2806   4.2806   4.4674   4.4675   5.0368   5.0368   5.6421   5.6422
     5.6870   5.6871   5.9130   5.9130   6.5493   6.5493   6.7059   6.7060
     6.8342   6.8344   7.0710   7.0710   7.1878   7.1879   7.8337   7.8339
     7.8631   7.8635   8.1078   8.1079   8.2803   8.2803   8.7059   8.7060
     9.1610   9.1616   9.2849   9.2860   9.4417   9.4421   9.8876   9.8891
     9.9789   9.9802  10.8816  10.8816  10.9732  10.9733  11.8503  11.8506
    12.0243  12.0245  12.3715  12.3719  12.5532  12.5534  12.6306  12.6308
    13.2039  13.2039  13.7018  13.7018

          k = 0.0429 0.0247 0.0000 ( 14478 PWs)   bands (ev):

   -12.5457 -12.5457 -12.0268 -12.0268 -10.9388 -10.9388  -8.2001  -8.2001
    -6.8094  -6.8093  -2.4431  -2.4430  -2.0782  -2.0777  -1.6651  -1.6636
    -1.5636  -1.5598  -1.4237  -1.4216  -1.1434  -1.1383  -0.8888  -0.8862
    -0.6647  -0.6625  -0.3272  -0.3258   0.4085   0.4100   0.8800   0.8807
     1.1066   1.1080   1.5511   1.5531   2.2524   2.2533   2.3077   2.3083
     4.2893   4.2893   4.4696   4.4696   5.0387   5.0387   5.6162   5.6163
     5.6817   5.6818   5.9220   5.9220   6.5715   6.5716   6.6857   6.6858
     6.8261   6.8263   7.0837   7.0837   7.1839   7.1840   7.8501   7.8502
     7.8845   7.8848   8.1216   8.1217   8.3109   8.3109   8.7380   8.7380
     9.1255   9.1260   9.2592   9.2602   9.4309   9.4310   9.9356   9.9370
    10.0389  10.0402  10.8802  10.8803  10.9869  10.9869  11.7898  11.7901
    11.9799  11.9800  12.3752  12.3756  12.5979  12.5982  12.6845  12.6847
    13.1726  13.1726  13.6789  13.6790

          k = 0.0500 0.0289 0.0000 ( 14481 PWs)   bands (ev):

   -12.5400 -12.5400 -12.0216 -12.0216 -10.9356 -10.9356  -8.2008  -8.2008
    -6.8190  -6.8189  -2.4528  -2.4526  -2.1282  -2.1277  -1.6803  -1.6790
    -1.6139  -1.6105  -1.4387  -1.4365  -1.1539  -1.1491  -0.8807  -0.8780
    -0.6613  -0.6590  -0.2917  -0.2903   0.4395   0.4410   0.8871   0.8874
     1.1050   1.1060   1.5754   1.5774   2.2522   2.2533   2.3339   2.3347
     4.2994   4.2995   4.4720   4.4721   5.0404   5.0404   5.5843   5.5843
     5.6804   5.6805   5.9331   5.9331   6.5927   6.5928   6.6611   6.6612
     6.8226   6.8227   7.0997   7.0997   7.1813   7.1814   7.8568   7.8569
     7.9074   7.9076   8.1468   8.1468   8.3460   8.3460   8.7760   8.7761
     9.0857   9.0861   9.2356   9.2364   9.4265   9.4267   9.9854   9.9867
    10.0979  10.0991  10.8790  10.8791  11.0026  11.0026  11.7312  11.7315
    11.9367  11.9368  12.3810  12.3812  12.6406  12.6410  12.7355  12.7358
    13.1207  13.1208  13.6770  13.6771

          k = 0.0571 0.0330 0.0000 ( 14477 PWs)   bands (ev):

   -12.5334 -12.5334 -12.0156 -12.0156 -10.9319 -10.9319  -8.2016  -8.2016
    -6.8300  -6.8300  -2.4646  -2.4644  -2.1813  -2.1809  -1.7054  -1.7040
    -1.6578  -1.6556  -1.4550  -1.4528  -1.1714  -1.1671  -0.8783  -0.8757
    -0.6458  -0.6437  -0.2574  -0.2561   0.4650   0.4665   0.8990   0.8995
     1.1117   1.1124   1.5983   1.6003   2.2491   2.2504   2.3664   2.3674
     4.3109   4.3110   4.4748   4.4749   5.0413   5.0413   5.5502   5.5503
     5.6807   5.6807   5.9462   5.9462   6.6031   6.6032   6.6433   6.6435
     6.8227   6.8228   7.1178   7.1179   7.1811   7.1811   7.8529   7.8530
     7.9326   7.9326   8.1830   8.1830   8.3846   8.3846   8.8194   8.8195
     9.0453   9.0456   9.2144   9.2150   9.4268   9.4270  10.0364  10.0377
    10.1546  10.1557  10.8783  10.8783  11.0198  11.0198  11.6762  11.6765
    11.8951  11.8953  12.3901  12.3903  12.6796  12.6802  12.7749  12.7754
    13.0636  13.0636  13.6820  13.6821

          k = 0.0643 0.0371 0.0000 ( 14482 PWs)   bands (ev):

   -12.5260 -12.5260 -12.0087 -12.0087 -10.9277 -10.9277  -8.2026  -8.2025
    -6.8426  -6.8426  -2.4791  -2.4789  -2.2365  -2.2360  -1.7454  -1.7427
    -1.6904  -1.6890  -1.4731  -1.4710  -1.1953  -1.1915  -0.8782  -0.8759
    -0.6214  -0.6195  -0.2269  -0.2257   0.4846   0.4859   0.9170   0.9182
     1.1264   1.1270   1.6199   1.6218   2.2457   2.2471   2.4026   2.4036
     4.3237   4.3238   4.4778   4.4779   5.0410   5.0411   5.5163   5.5164
     5.6815   5.6815   5.9611   5.9611   6.5835   6.5835   6.6534   6.6536
     6.8250   6.8251   7.1359   7.1360   7.1853   7.1854   7.8408   7.8410
     7.9594   7.9594   8.2280   8.2281   8.4256   8.4257   8.8663   8.8664
     9.0084   9.0086   9.1960   9.1965   9.4299   9.4301  10.0882  10.0894
    10.2080  10.2091  10.8781  10.8782  11.0380  11.0380  11.6267  11.6270
    11.8556  11.8557  12.4031  12.4033  12.7122  12.7131  12.7830  12.7839
    13.0294  13.0295  13.6770  13.6771

          k = 0.0714 0.0412 0.0000 ( 14479 PWs)   bands (ev):

   -12.5177 -12.5177 -12.0011 -12.0011 -10.9230 -10.9230  -8.2037  -8.2037
    -6.8566  -6.8566  -2.4973  -2.4970  -2.2923  -2.2919  -1.7941  -1.7907
    -1.7166  -1.7149  -1.4936  -1.4916  -1.2241  -1.2209  -0.8778  -0.8758
    -0.5915  -0.5898  -0.2024  -0.2013   0.4999   0.5010   0.9409   0.9427
     1.1483   1.1492   1.6406   1.6424   2.2430   2.2446   2.4410   2.4420
     4.3377   4.3378   4.4810   4.4811   5.0389   5.0389   5.4841   5.4842
     5.6825   5.6826   5.9779   5.9779   6.5534   6.5534   6.6734   6.6735
     6.8278   6.8280   7.1503   7.1504   7.1979   7.1980   7.8236   7.8237
     7.9871   7.9871   8.2795   8.2795   8.4676   8.4677   8.9059   8.9061
     8.9873   8.9875   9.1811   9.1815   9.4347   9.4349  10.1402  10.1414
    10.2572  10.2582  10.8789  10.8789  11.0561  11.0561  11.5846  11.5848
    11.8186  11.8187  12.4191  12.4193  12.7182  12.7198  12.7617  12.7634
    13.0411  13.0411  13.6506  13.6507

          k = 0.0786 0.0454 0.0000 ( 14497 PWs)   bands (ev):

   -12.5085 -12.5085 -11.9927 -11.9927 -10.9179 -10.9179  -8.2050  -8.2050
    -6.8722  -6.8721  -2.5207  -2.5204  -2.3467  -2.3463  -1.8453  -1.8417
    -1.7413  -1.7395  -1.5169  -1.5151  -1.2558  -1.2533  -0.8761  -0.8743
    -0.5585  -0.5569  -0.1861  -0.1851   0.5140   0.5148   0.9693   0.9715
     1.1766   1.1779   1.6610   1.6626   2.2420   2.2436   2.4807   2.4816
     4.3528   4.3529   4.4843   4.4844   5.0341   5.0342   5.4552   5.4552
     5.6837   5.6837   5.9964   5.9964   6.5230   6.5230   6.6944   6.6945
     6.8301   6.8302   7.1597   7.1598   7.2204   7.2205   7.8037   7.8038
     8.0149   8.0150   8.3353   8.3354   8.5090   8.5091   8.9070   8.9072
     9.0145   9.0150   9.1706   9.1708   9.4405   9.4407  10.1919  10.1930
    10.3012  10.3022  10.8809  10.8810  11.0730  11.0731  11.5521  11.5523
    11.7846  11.7847  12.4344  12.4346  12.6572  12.6577  12.7742  12.7747
    13.0835  13.0836  13.6008  13.6009

          k = 0.0857 0.0495 0.0000 ( 14485 PWs)   bands (ev):

   -12.4984 -12.4984 -11.9835 -11.9835 -10.9123 -10.9123  -8.2066  -8.2066
    -6.8891  -6.8891  -2.5518  -2.5514  -2.3969  -2.3964  -1.8974  -1.8937
    -1.7660  -1.7643  -1.5434  -1.5417  -1.2885  -1.2867  -0.8730  -0.8715
    -0.5241  -0.5226  -0.1794  -0.1784   0.5297   0.5303   1.0004   1.0029
     1.2098   1.2113   1.6818   1.6832   2.2432   2.2449   2.5209   2.5218
     4.3689   4.3689   4.4876   4.4876   5.0262   5.0262   5.4308   5.4308
     5.6850   5.6850   6.0165   6.0166   6.4946   6.4946   6.7149   6.7150
     6.8305   6.8306   7.1671   7.1672   7.2499   7.2500   7.7830   7.7830
     8.0423   8.0424   8.3939   8.3940   8.5478   8.5479   8.8888   8.8890
     9.0720   9.0727   9.1661   9.1663   9.4469   9.4471  10.2425  10.2437
    10.3394  10.3403  10.8844  10.8844  11.0876  11.0877  11.5313  11.5315
    11.7541  11.7542  12.4334  12.4337  12.5945  12.5946  12.7875  12.7878
    13.1378  13.1379  13.5307  13.5308

          k = 0.0929 0.0536 0.0000 ( 14477 PWs)   bands (ev):

   -12.4875 -12.4875 -11.9736 -11.9736 -10.9063 -10.9063  -8.2084  -8.2084
    -6.9076  -6.9076  -2.5929  -2.5925  -2.4401  -2.4395  -1.9498  -1.9461
    -1.7910  -1.7893  -1.5732  -1.5716  -1.3207  -1.3194  -0.8690  -0.8677
    -0.4896  -0.4881  -0.1827  -0.1817   0.5493   0.5496   1.0331   1.0356
     1.2459   1.2476   1.7040   1.7052   2.2473   2.2489   2.5609   2.5618
     4.3857   4.3858   4.4906   4.4907   5.0146   5.0147   5.4120   5.4120
     5.6865   5.6865   6.0383   6.0384   6.4692   6.4692   6.7348   6.7349
     6.8282   6.8283   7.1752   7.1752   7.2840   7.2840   7.7628   7.7628
     8.0688   8.0688   8.4533   8.4533   8.5813   8.5814   8.8767   8.8768
     9.1292   9.1306   9.1754   9.1764   9.4539   9.4540  10.2914  10.2926
    10.3711  10.3721  10.8891  10.8891  11.0997  11.0997  11.5236  11.5236
    11.7279  11.7280  12.3839  12.3842  12.5791  12.5791  12.7935  12.7937
    13.1952  13.1953  13.4462  13.4462

          k = 0.1000 0.0577 0.0000 ( 14477 PWs)   bands (ev):

   -12.4757 -12.4757 -11.9628 -11.9628 -10.8999 -10.8999  -8.2104  -8.2104
    -6.9275  -6.9275  -2.6443  -2.6439  -2.4755  -2.4748  -2.0026  -1.9989
    -1.8162  -1.8146  -1.6060  -1.6046  -1.3512  -1.3504  -0.8645  -0.8635
    -0.4559  -0.4544  -0.1954  -0.1941   0.5733   0.5734   1.0668   1.0692
     1.2824   1.2842   1.7288   1.7297   2.2547   2.2563   2.6003   2.6011
     4.4031   4.4032   4.4934   4.4935   4.9995   4.9996   5.3992   5.3993
     5.6883   5.6883   6.0617   6.0618   6.4474   6.4475   6.7538   6.7539
     6.8230   6.8230   7.1849   7.1849   7.3212   7.3213   7.7442   7.7443
     8.0937   8.0937   8.5102   8.5103   8.6078   8.6079   8.8786   8.8787
     9.1540   9.1552   9.2280   9.2287   9.4620   9.4621  10.3373  10.3385
    10.3964  10.3974  10.8944  10.8944  11.1105  11.1106  11.5283  11.5284
    11.7068  11.7069  12.2974  12.2976  12.6040  12.6041  12.7916  12.7917
    13.2455  13.2456  13.3591  13.3591

          k = 0.1071 0.0619 0.0000 ( 14483 PWs)   bands (ev):

   -12.4631 -12.4631 -11.9513 -11.9513 -10.8930 -10.8930  -8.2128  -8.2128
    -6.9489  -6.9489  -2.7036  -2.7031  -2.5052  -2.5045  -2.0557  -2.0521
    -1.8416  -1.8400  -1.6414  -1.6400  -1.3798  -1.3788  -0.8602  -0.8593
    -0.4245  -0.4230  -0.2151  -0.2137   0.6012   0.6012   1.1015   1.1037
     1.3171   1.3189   1.7572   1.7578   2.2659   2.2673   2.6386   2.6393
     4.4206   4.4206   4.4958   4.4959   4.9816   4.9817   5.3927   5.3927
     5.6905   5.6906   6.0866   6.0867   6.4297   6.4297   6.7712   6.7713
     6.8151   6.8152   7.1969   7.1970   7.3608   7.3608   7.7283   7.7284
     8.1167   8.1167   8.5570   8.5572   8.6315   8.6316   8.8981   8.8982
     9.1673   9.1680   9.3000   9.3004   9.4727   9.4728  10.3775  10.3789
    10.4170  10.4182  10.8994  10.8995  11.1230  11.1230  11.5430  11.5432
    11.6918  11.6920  12.2004  12.2006  12.6450  12.6450  12.7823  12.7824
    13.2206  13.2207  13.3376  13.3376

          k = 0.1143 0.0660 0.0000 ( 14481 PWs)   bands (ev):

   -12.4496 -12.4496 -11.9390 -11.9390 -10.8858 -10.8857  -8.2155  -8.2154
    -6.9717  -6.9717  -2.7678  -2.7674  -2.5316  -2.5309  -2.1093  -2.1058
    -1.8672  -1.8658  -1.6784  -1.6770  -1.4061  -1.4048  -0.8565  -0.8556
    -0.3981  -0.3967  -0.2381  -0.2364   0.6317   0.6319   1.1373   1.1392
     1.3480   1.3499   1.7898   1.7903   2.2812   2.2825   2.6753   2.6759
     4.4372   4.4373   4.4981   4.4982   4.9621   4.9622   5.3917   5.3917
     5.6934   5.6934   6.1130   6.1131   6.4162   6.4163   6.7823   6.7824
     6.8093   6.8094   7.2116   7.2116   7.4016   7.4016   7.7158   7.7159
     8.1376   8.1376   8.5807   8.5809   8.6660   8.6660   8.9339   8.9340
     9.1841   9.1847   9.3726   9.3728   9.4895   9.4896  10.4046  10.4056
    10.4405  10.4413  10.9034  10.9035  11.1402  11.1402  11.5633  11.5637
    11.6840  11.6845  12.1031  12.1033  12.6933  12.6933  12.7669  12.7670
    13.1232  13.1232  13.3354  13.3354

          k = 0.1214 0.0701 0.0000 ( 14479 PWs)   bands (ev):

   -12.4353 -12.4353 -11.9260 -11.9260 -10.8781 -10.8781  -8.2185  -8.2185
    -6.9959  -6.9959  -2.8350  -2.8346  -2.5564  -2.5557  -2.1635  -2.1600
    -1.8933  -1.8921  -1.7161  -1.7147  -1.4302  -1.4286  -0.8537  -0.8528
    -0.3832  -0.3817  -0.2563  -0.2545   0.6635   0.6638   1.1743   1.1760
     1.3744   1.3765   1.8268   1.8271   2.3010   2.3021   2.7103   2.7109
     4.4508   4.4509   4.5018   4.5019   4.9425   4.9426   5.3957   5.3957
     5.6972   5.6972   6.1410   6.1411   6.4072   6.4073   6.7750   6.7750
     6.8179   6.8180   7.2289   7.2290   7.4426   7.4427   7.7076   7.7076
     8.1562   8.1562   8.5850   8.5852   8.7105   8.7105   8.9819   8.9820
     9.2065   9.2070   9.4356   9.4357   9.5215   9.5217  10.4141  10.4145
    10.4707  10.4710  10.9063  10.9064  11.1644  11.1644  11.5832  11.5840
    11.6838  11.6845  12.0124  12.0126  12.7333  12.7336  12.7589  12.7591
    13.0176  13.0176  13.2371  13.2372

          k = 0.1286 0.0742 0.0000 ( 14484 PWs)   bands (ev):

   -12.4201 -12.4201 -11.9122 -11.9122 -10.8700 -10.8700  -8.2219  -8.2219
    -7.0216  -7.0215  -2.9038  -2.9035  -2.5805  -2.5797  -2.2182  -2.2149
    -1.9201  -1.9192  -1.7533  -1.7520  -1.4523  -1.4504  -0.8523  -0.8511
    -0.3897  -0.3881  -0.2587  -0.2569   0.6952   0.6955   1.2126   1.2139
     1.3965   1.3986   1.8673   1.8676   2.3257   2.3265   2.7434   2.7438
     4.4574   4.4574   4.5101   4.5101   4.9245   4.9247   5.4037   5.4038
     5.7021   5.7021   6.1704   6.1705   6.4027   6.4028   6.7568   6.7569
     6.8336   6.8337   7.2492   7.2492   7.4824   7.4825   7.7043   7.7043
     8.1724   8.1725   8.5831   8.5832   8.7547   8.7548   9.0373   9.0374
     9.2348   9.2352   9.4795   9.4796   9.5793   9.5794  10.4134  10.4136
    10.4998  10.4999  10.9089  10.9091  11.1960  11.1961  11.5960  11.5968
    11.6873  11.6880  11.9386  11.9389  12.7142  12.7144  12.8068  12.8068
    12.9137  12.9138  13.1258  13.1258

          k = 0.1357 0.0784 0.0000 ( 14496 PWs)   bands (ev):

   -12.4041 -12.4041 -11.8977 -11.8977 -10.8616 -10.8616  -8.2258  -8.2258
    -7.0486  -7.0485  -2.9736  -2.9733  -2.6042  -2.6033  -2.2736  -2.2704
    -1.9481  -1.9473  -1.7892  -1.7880  -1.4726  -1.4705  -0.8526  -0.8511
    -0.4170  -0.4150  -0.2447  -0.2431   0.7254   0.7259   1.2517   1.2528
[...]
     9.2085   9.2088   9.4305   9.4307   9.7327   9.7327  10.5402  10.5406
    10.6095  10.6097  11.0113  11.0119  11.2214  11.2217  11.5099  11.5100
    11.6810  11.6812  11.9682  11.9683  12.2717  12.2718  13.0054  13.0056
    13.0980  13.0980  13.2719  13.2721

          k = 0.0762 0.1328 0.0000 ( 14490 PWs)   bands (ev):

   -12.4111 -12.4111 -11.9038 -11.9038 -10.8646 -10.8646  -8.2214  -8.2214
    -7.0301  -7.0301  -2.8655  -2.8649  -2.5915  -2.5908  -2.3740  -2.3725
    -1.9734  -1.9716  -1.6576  -1.6565  -1.4113  -1.4102  -1.0386  -1.0378
    -0.3284  -0.3269  -0.2264  -0.2249   0.7565   0.7571   1.1103   1.1110
     1.3498   1.3511   2.0066   2.0075   2.3252   2.3261   2.7561   2.7565
     4.4997   4.4998   4.5199   4.5200   4.9684   4.9685   5.2593   5.2594
     5.6910   5.6910   6.2558   6.2560   6.5276   6.5279   6.6357   6.6361
     6.8025   6.8028   7.1084   7.1086   7.5547   7.5548   7.9155   7.9158
     8.1672   8.1674   8.4916   8.4918   8.8477   8.8478   9.0556   9.0558
     9.2310   9.2313   9.3600   9.3603   9.6472   9.6472  10.5221  10.5228
    10.5741  10.5746  11.0134  11.0141  11.1621  11.1625  11.4671  11.4671
    11.6950  11.6952  12.0573  12.0575  12.3491  12.3492  12.9665  12.9666
    13.1837  13.1838  13.2499  13.2500

          k = 0.0714 0.1245 0.0000 ( 14501 PWs)   bands (ev):

   -12.4292 -12.4292 -11.9203 -11.9203 -10.8743 -10.8743  -8.2176  -8.2176
    -7.0003  -7.0002  -2.7960  -2.7954  -2.5589  -2.5582  -2.3001  -2.2985
    -1.9307  -1.9287  -1.6327  -1.6316  -1.3882  -1.3871  -1.0142  -1.0134
    -0.3460  -0.3449  -0.2256  -0.2243   0.7454   0.7461   1.0538   1.0547
     1.3264   1.3277   1.9629   1.9641   2.2864   2.2876   2.7211   2.7214
     4.4747   4.4748   4.5150   4.5150   4.9874   4.9874   5.2832   5.2833
     5.6784   5.6784   6.2025   6.2027   6.5354   6.5357   6.6240   6.6244
     6.8253   6.8256   7.0936   7.0938   7.5167   7.5167   7.8919   7.8922
     8.1191   8.1193   8.5080   8.5082   8.7888   8.7889   8.9999   9.0001
     9.2508   9.2514   9.3049   9.3055   9.5632   9.5632  10.4892  10.4901
    10.5388  10.5397  11.0315  11.0322  11.1099  11.1104  11.4263  11.4264
    11.7036  11.7037  12.1494  12.1496  12.4329  12.4330  12.9236  12.9237
    13.1320  13.1321  13.3327  13.3328

          k = 0.0667 0.1162 0.0000 ( 14503 PWs)   bands (ev):

   -12.4462 -12.4462 -11.9357 -11.9357 -10.8834 -10.8834  -8.2143  -8.2143
    -6.9723  -6.9723  -2.7284  -2.7279  -2.5266  -2.5258  -2.2260  -2.2242
    -1.8868  -1.8847  -1.6106  -1.6094  -1.3647  -1.3636  -0.9900  -0.9892
    -0.3775  -0.3767  -0.2155  -0.2142   0.7280   0.7287   1.0033   1.0043
     1.3038   1.3052   1.9116   1.9130   2.2601   2.2616   2.6836   2.6840
     4.4502   4.4502   4.5100   4.5100   5.0038   5.0038   5.3115   5.3117
     5.6689   5.6689   6.1517   6.1518   6.5452   6.5455   6.6195   6.6199
     6.8335   6.8337   7.0908   7.0910   7.4746   7.4747   7.8728   7.8730
     8.0756   8.0757   8.5271   8.5273   8.7217   8.7218   8.9469   8.9471
     9.2361   9.2367   9.2917   9.2922   9.4843   9.4843  10.4443  10.4454
    10.5038  10.5047  11.0372  11.0378  11.0876  11.0879  11.3918  11.3919
    11.7093  11.7095  12.2412  12.2414  12.5177  12.5178  12.8857  12.8857
    13.0537  13.0538  13.4461  13.4461

          k = 0.0619 0.1079 0.0000 ( 14501 PWs)   bands (ev):

   -12.4620 -12.4620 -11.9501 -11.9501 -10.8920 -10.8920  -8.2114  -8.2114
    -6.9462  -6.9462  -2.6648  -2.6644  -2.4923  -2.4914  -2.1528  -2.1509
    -1.8418  -1.8396  -1.5906  -1.5893  -1.3408  -1.3395  -0.9665  -0.9657
    -0.4166  -0.4160  -0.2028  -0.2017   0.7022   0.7030   0.9628   0.9641
     1.2800   1.2814   1.8570   1.8585   2.2439   2.2454   2.6437   2.6442
     4.4266   4.4266   4.5048   4.5048   5.0173   5.0173   5.3438   5.3439
     5.6623   5.6623   6.1042   6.1043   6.5563   6.5567   6.6217   6.6221
     6.8279   6.8282   7.0979   7.0980   7.4297   7.4298   7.8587   7.8590
     8.0372   8.0373   8.5445   8.5446   8.6494   8.6496   8.9006   8.9008
     9.1946   9.1950   9.3025   9.3027   9.4187   9.4189  10.3913  10.3923
    10.4679  10.4688  11.0036  11.0038  11.1120  11.1121  11.3705  11.3706
    11.7147  11.7149  12.3287  12.3290  12.5962  12.5964  12.8590  12.8590
    12.9817  12.9817  13.4953  13.4954

          k = 0.0571 0.0996 0.0000 ( 14499 PWs)   bands (ev):

   -12.4767 -12.4767 -11.9635 -11.9635 -10.9001 -10.9000  -8.2090  -8.2089
    -6.9220  -6.9220  -2.6085  -2.6081  -2.4531  -2.4520  -2.0811  -2.0790
    -1.7963  -1.7942  -1.5724  -1.5710  -1.3161  -1.3146  -0.9439  -0.9432
    -0.4599  -0.4592  -0.1924  -0.1912   0.6681   0.6690   0.9342   0.9356
     1.2534   1.2548   1.8032   1.8047   2.2350   2.2365   2.6016   2.6021
     4.4041   4.4041   4.4995   4.4995   5.0277   5.0278   5.3796   5.3797
     5.6585   5.6585   6.0605   6.0606   6.5691   6.5695   6.6295   6.6300
     6.8130   6.8132   7.1090   7.1092   7.3838   7.3839   7.8503   7.8505
     8.0036   8.0037   8.5475   8.5480   8.5802   8.5807   8.8675   8.8678
     9.1480   9.1482   9.2948   9.2950   9.3852   9.3855  10.3332  10.3342
    10.4296  10.4305  10.9692  10.9693  11.1305  11.1307  11.3737  11.3737
    11.7218  11.7220  12.4056  12.4059  12.6550  12.6552  12.8523  12.8524
    12.9251  12.9252  13.4642  13.4643

          k = 0.0524 0.0913 0.0000 ( 14491 PWs)   bands (ev):

   -12.4902 -12.4902 -11.9759 -11.9759 -10.9075 -10.9075  -8.2068  -8.2068
    -6.8998  -6.8998  -2.5624  -2.5620  -2.4063  -2.4052  -2.0110  -2.0088
    -1.7514  -1.7493  -1.5552  -1.5537  -1.2907  -1.2890  -0.9224  -0.9218
    -0.5052  -0.5044  -0.1873  -0.1861   0.6287   0.6297   0.9161   0.9176
     1.2234   1.2248   1.7532   1.7549   2.2312   2.2327   2.5577   2.5582
     4.3829   4.3829   4.4943   4.4943   5.0353   5.0353   5.4182   5.4184
     5.6572   5.6572   6.0207   6.0208   6.5838   6.5842   6.6411   6.6415
     6.7935   6.7938   7.1187   7.1189   7.3391   7.3392   7.8478   7.8479
     7.9740   7.9741   8.4898   8.4900   8.5555   8.5558   8.8559   8.8562
     9.0935   9.0937   9.2686   9.2688   9.3859   9.3863  10.2720  10.2730
    10.3878  10.3886  10.9411  10.9412  11.1282  11.1283  11.4075  11.4076
    11.7324  11.7326  12.4629  12.4631  12.6768  12.6770  12.8628  12.8631
    12.9073  12.9076  13.4327  13.4328

          k = 0.0476 0.0830 0.0000 ( 14485 PWs)   bands (ev):

   -12.5025 -12.5025 -11.9872 -11.9872 -10.9144 -10.9144  -8.2051  -8.2050
    -6.8795  -6.8794  -2.5271  -2.5267  -2.3520  -2.3508  -1.9427  -1.9405
    -1.7086  -1.7066  -1.5381  -1.5366  -1.2646  -1.2625  -0.9022  -0.9016
    -0.5508  -0.5499  -0.1901  -0.1890   0.5879   0.5890   0.9059   0.9074
     1.1908   1.1920   1.7088   1.7104   2.2312   2.2326   2.5125   2.5131
     4.3630   4.3630   4.4892   4.4893   5.0401   5.0401   5.4592   5.4593
     5.6578   5.6579   5.9851   5.9852   6.6003   6.6007   6.6537   6.6540
     6.7741   6.7744   7.1232   7.1234   7.2981   7.2982   7.8506   7.8508
     7.9476   7.9478   8.4153   8.4155   8.5294   8.5296   8.8685   8.8688
     9.0324   9.0325   9.2468   9.2471   9.3970   9.3974  10.2090  10.2099
    10.3415  10.3423  10.9199  10.9199  11.1100  11.1101  11.4644  11.4646
    11.7480  11.7482  12.4930  12.4933  12.6611  12.6613  12.8748  12.8751
    12.9418  12.9421  13.4137  13.4138

          k = 0.0429 0.0747 0.0000 ( 14481 PWs)   bands (ev):

   -12.5137 -12.5137 -11.9974 -11.9974 -10.9206 -10.9206  -8.2036  -8.2035
    -6.8611  -6.8610  -2.5004  -2.5000  -2.2927  -2.2915  -1.8764  -1.8742
    -1.6695  -1.6677  -1.5202  -1.5187  -1.2382  -1.2357  -0.8839  -0.8831
    -0.5948  -0.5937  -0.2026  -0.2014   0.5482   0.5496   0.9008   0.9022
     1.1578   1.1588   1.6699   1.6716   2.2338   2.2351   2.4671   2.4677
     4.3446   4.3446   4.4845   4.4845   5.0425   5.0426   5.5016   5.5017
     5.6599   5.6599   5.9539   5.9540   6.6171   6.6174   6.6632   6.6634
     6.7606   6.7609   7.1203   7.1205   7.2633   7.2634   7.8574   7.8576
     7.9238   7.9239   8.3428   8.3430   8.4903   8.4904   8.8964   8.8968
     8.9729   8.9731   9.2348   9.2350   9.4093   9.4097  10.1450  10.1459
    10.2904  10.2911  10.9050  10.9050  11.0849  11.0850  11.5338  11.5340
    11.7702  11.7703  12.4986  12.4989  12.6252  12.6254  12.8937  12.8941
    12.9898  12.9902  13.4204  13.4205

          k = 0.0381 0.0664 0.0000 ( 14482 PWs)   bands (ev):

   -12.5237 -12.5237 -12.0066 -12.0066 -10.9263 -10.9263  -8.2023  -8.2023
    -6.8446  -6.8446  -2.4798  -2.4795  -2.2317  -2.2306  -1.8128  -1.8108
    -1.6353  -1.6336  -1.5006  -1.4991  -1.2123  -1.2093  -0.8688  -0.8676
    -0.6344  -0.6329  -0.2250  -0.2238   0.5104   0.5119   0.8987   0.9000
     1.1281   1.1289   1.6356   1.6374   2.2379   2.2391   2.4224   2.4230
     4.3277   4.3277   4.4800   4.4801   5.0431   5.0431   5.5445   5.5446
     5.6629   5.6629   5.9273   5.9274   6.6279   6.6281   6.6680   6.6682
     6.7598   6.7602   7.1101   7.1102   7.2365   7.2366   7.8650   7.8653
     7.9025   7.9028   8.2752   8.2754   8.4446   8.4447   8.8882   8.8885
     8.9637   8.9639   9.2310   9.2312   9.4210   9.4214  10.0807  10.0817
    10.2344  10.2351  10.8953  10.8953  11.0584  11.0584  11.6086  11.6089
    11.8002  11.8004  12.4891  12.4895  12.5838  12.5840  12.8888  12.8891
    13.0497  13.0499  13.4589  13.4590

          k = 0.0333 0.0581 0.0000 ( 14485 PWs)   bands (ev):

   -12.5326 -12.5326 -12.0147 -12.0147 -10.9313 -10.9313  -8.2013  -8.2013
    -6.8301  -6.8301  -2.4635  -2.4633  -2.1713  -2.1703  -1.7543  -1.7524
    -1.6047  -1.6028  -1.4792  -1.4778  -1.1885  -1.1849  -0.8602  -0.8585
    -0.6644  -0.6626  -0.2561  -0.2549   0.4733   0.4749   0.8974   0.8986
     1.1063   1.1071   1.6043   1.6061   2.2427   2.2437   2.3800   2.3805
     4.3125   4.3125   4.4760   4.4761   5.0423   5.0423   5.5862   5.5863
     5.6667   5.6667   5.9057   5.9058   6.6207   6.6208   6.6782   6.6785
     6.7722   6.7726   7.0950   7.0950   7.2178   7.2179   7.8651   7.8656
     7.8882   7.8887   8.2153   8.2154   8.3973   8.3974   8.8351   8.8353
     9.0105   9.0107   9.2344   9.2347   9.4321   9.4325  10.0171  10.0180
    10.1740  10.1748  10.8895  10.8896  11.0328  11.0329  11.6845  11.6848
    11.8395  11.8397  12.4719  12.4724  12.5438  12.5441  12.8521  12.8524
    13.1167  13.1169  13.5222  13.5223

          k = 0.0286 0.0498 0.0000 ( 14487 PWs)   bands (ev):

   -12.5403 -12.5403 -12.0218 -12.0218 -10.9356 -10.9356  -8.2004  -8.2004
    -6.8175  -6.8175  -2.4506  -2.4504  -2.1134  -2.1125  -1.7056  -1.7039
    -1.5726  -1.5701  -1.4569  -1.4556  -1.1685  -1.1644  -0.8635  -0.8615
    -0.6781  -0.6761  -0.2935  -0.2923   0.4355   0.4371   0.8947   0.8960
     1.0964   1.0976   1.5744   1.5763   2.2465   2.2473   2.3419   2.3424
     4.2990   4.2991   4.4725   4.4725   5.0405   5.0405   5.6239   5.6240
     5.6721   5.6722   5.8895   5.8896   6.5994   6.5995   6.6939   6.6941
     6.7919   6.7922   7.0792   7.0792   7.2056   7.2057   7.8499   7.8502
     7.8844   7.8848   8.1666   8.1667   8.3520   8.3520   8.7833   8.7834
     9.0644   9.0645   9.2448   9.2452   9.4434   9.4438   9.9549   9.9558
    10.1100  10.1107  10.8865  10.8865  11.0096  11.0096  11.7583  11.7586
    11.8890  11.8892  12.4509  12.4515  12.5078  12.5083  12.7952  12.7955
    13.1768  13.1769  13.5973  13.5975

          k = 0.0238 0.0415 0.0000 ( 14481 PWs)   bands (ev):

   -12.5468 -12.5468 -12.0277 -12.0277 -10.9393 -10.9393  -8.1998  -8.1998
    -6.8069  -6.8069  -2.4403  -2.4401  -2.0593  -2.0585  -1.6729  -1.6713
    -1.5318  -1.5290  -1.4351  -1.4340  -1.1546  -1.1500  -0.8804  -0.8784
    -0.6728  -0.6709  -0.3337  -0.3325   0.3962   0.3978   0.8901   0.8913
     1.1003   1.1018   1.5447   1.5467   2.2461   2.2467   2.3120   2.3124
     4.2875   4.2875   4.4695   4.4695   5.0383   5.0383   5.6501   5.6502
     5.6846   5.6846   5.8795   5.8796   6.5732   6.5732   6.7087   6.7088
     6.8139   6.8141   7.0663   7.0663   7.1986   7.1988   7.8293   7.8296
     7.8765   7.8769   8.1327   8.1328   8.3107   8.3108   8.7381   8.7381
     9.1162   9.1164   9.2631   9.2637   9.4561   9.4566   9.8952   9.8961
    10.0432  10.0440  10.8852  10.8852  10.9892  10.9892  11.8280  11.8283
    11.9480  11.9482  12.4274  12.4283  12.4767  12.4774  12.7282  12.7284
    13.2165  13.2166  13.6718  13.6719

          k = 0.0190 0.0332 0.0000 ( 14482 PWs)   bands (ev):

   -12.5521 -12.5521 -12.0326 -12.0326 -10.9424 -10.9424  -8.1993  -8.1993
    -6.7982  -6.7982  -2.4323  -2.4322  -2.0106  -2.0098  -1.6565  -1.6551
    -1.4818  -1.4788  -1.4148  -1.4137  -1.1486  -1.1438  -0.9057  -0.9039
    -0.6541  -0.6525  -0.3729  -0.3718   0.3564   0.3578   0.8842   0.8853
     1.1160   1.1176   1.5147   1.5166   2.2369   2.2374   2.2956   2.2960
     4.2778   4.2779   4.4670   4.4670   5.0359   5.0359   5.6596   5.6597
     5.7066   5.7067   5.8762   5.8762   6.5463   6.5463   6.7202   6.7202
     6.8351   6.8352   7.0582   7.0582   7.1960   7.1962   7.8075   7.8077
     7.8602   7.8605   8.1142   8.1143   8.2752   8.2752   8.7007   8.7007
     9.1599   9.1602   9.2903   9.2911   9.4726   9.4732   9.8392   9.8402
     9.9751   9.9760  10.8849  10.8850  10.9721  10.9721  11.8937  11.8940
    12.0133  12.0135  12.4019  12.4029  12.4506  12.4514  12.6578  12.6580
    13.2290  13.2290  13.7396  13.7397

          k = 0.0143 0.0249 0.0000 ( 14490 PWs)   bands (ev):

   -12.5562 -12.5562 -12.0364 -12.0364 -10.9447 -10.9447  -8.1989  -8.1989
    -6.7915  -6.7915  -2.4263  -2.4262  -1.9688  -1.9682  -1.6507  -1.6497
    -1.4300  -1.4277  -1.3949  -1.3930  -1.1519  -1.1471  -0.9321  -0.9306
    -0.6302  -0.6290  -0.4073  -0.4063   0.3189   0.3199   0.8785   0.8794
     1.1394   1.1410   1.4849   1.4866   2.2206   2.2211   2.2914   2.2918
     4.2703   4.2703   4.4650   4.4650   5.0338   5.0338   5.6623   5.6623
     5.7267   5.7268   5.8793   5.8793   6.5214   6.5214   6.7279   6.7279
     6.8529   6.8530   7.0551   7.0551   7.1969   7.1971   7.7857   7.7859
     7.8397   7.8399   8.1074   8.1074   8.2465   8.2465   8.6716   8.6717
     9.1917   9.1920   9.3239   9.3249   9.4957   9.4964   9.7883   9.7892
     9.9081   9.9089  10.8853  10.8853  10.9585  10.9585  11.9561  11.9563
    12.0797  12.0800  12.3738  12.3750  12.4289  12.4297  12.5900  12.5901
    13.2191  13.2192  13.8070  13.8071

          k = 0.0095 0.0166 0.0000 ( 14488 PWs)   bands (ev):

   -12.5592 -12.5592 -12.0392 -12.0392 -10.9464 -10.9464  -8.1986  -8.1986
    -6.7866  -6.7866  -2.4221  -2.4220  -1.9360  -1.9356  -1.6506  -1.6499
    -1.3966  -1.3955  -1.3621  -1.3587  -1.1647  -1.1602  -0.9543  -0.9531
    -0.6083  -0.6075  -0.4334  -0.4326   0.2874   0.2881   0.8741   0.8747
     1.1649   1.1663   1.4574   1.4588   2.2053   2.2057   2.2918   2.2921
     4.2648   4.2648   4.4636   4.4636   5.0321   5.0321   5.6630   5.6630
     5.7400   5.7400   5.8864   5.8865   6.5010   6.5011   6.7323   6.7324
     6.8660   6.8661   7.0556   7.0556   7.1999   7.2000   7.7659   7.7661
     7.8213   7.8215   8.1066   8.1067   8.2254   8.2254   8.6510   8.6511
     9.2124   9.2127   9.3557   9.3567   9.5285   9.5294   9.7431   9.7439
     9.8465   9.8473  10.8858  10.8858  10.9485  10.9485  12.0134  12.0135
    12.1415  12.1420  12.3426  12.3440  12.4105  12.4113  12.5317  12.5318
    13.1999  13.1999  13.8745  13.8745

          k = 0.0048 0.0083 0.0000 ( 14490 PWs)   bands (ev):

   -12.5610 -12.5610 -12.0408 -12.0408 -10.9474 -10.9474  -8.1985  -8.1984
    -6.7837  -6.7837  -2.4196  -2.4196  -1.9148  -1.9145  -1.6522  -1.6519
    -1.3848  -1.3843  -1.3203  -1.3175  -1.1834  -1.1802  -0.9687  -0.9681
    -0.5935  -0.5930  -0.4491  -0.4487   0.2662   0.2666   0.8714   0.8718
     1.1858   1.1866   1.4366   1.4374   2.1953   2.1954   2.2930   2.2932
     4.2615   4.2615   4.4627   4.4627   5.0310   5.0310   5.6631   5.6631
     5.7469   5.7469   5.8934   5.8934   6.4876   6.4876   6.7345   6.7345
     6.8738   6.8739   7.0574   7.0574   7.2029   7.2030   7.7517   7.7518
     7.8092   7.8093   8.1078   8.1078   8.2125   8.2125   8.6388   8.6388
     9.2243   9.2245   9.3773   9.3778   9.5689   9.5696   9.7031   9.7037
     9.8002   9.8007  10.8863  10.8863  10.9424  10.9424  12.0585  12.0585
    12.1919  12.1926  12.3110  12.3123  12.3951  12.3957  12.4918  12.4919
    13.1833  13.1833  13.9288  13.9289

          k = 0.0000 0.0000 0.0000 ( 14485 PWs)   bands (ev):

   -12.5616 -12.5616 -12.0413 -12.0413 -10.9478 -10.9478  -8.1984  -8.1984
    -6.7828  -6.7828  -2.4188  -2.4188  -1.9073  -1.9073  -1.6530  -1.6530
    -1.3813  -1.3813  -1.2990  -1.2990  -1.1936  -1.1936  -0.9735  -0.9735
    -0.5882  -0.5882  -0.4540  -0.4540   0.2588   0.2588   0.8706   0.8706
     1.1944   1.1944   1.4288   1.4288   2.1918   2.1918   2.2936   2.2936
     4.2604   4.2604   4.4624   4.4624   5.0306   5.0306   5.6631   5.6631
     5.7490   5.7490   5.8962   5.8962   6.4828   6.4828   6.7351   6.7351
     6.8764   6.8764   7.0583   7.0583   7.2042   7.2042   7.7465   7.7465
     7.8051   7.8051   8.1085   8.1085   8.2081   8.2081   8.6347   8.6347
     9.2282   9.2282   9.3849   9.3849   9.5947   9.5947   9.6799   9.6799
     9.7829   9.7829  10.8865  10.8865  10.9403  10.9403  12.0769  12.0769
    12.2158  12.2158  12.2941  12.2941  12.3880  12.3880  12.4780  12.4780
    13.1769  13.1769  13.9502  13.9502

     Writing all to output data dir tmp/Sb2Te3-uatsx-c6-soc-1.0.save/ :
     XML data file, pseudopotentials, collected wavefunctions

     init_run     :      1.82s CPU      1.97s WALL (       1 calls)
     electrons    :   2195.69s CPU   1191.24s WALL (       1 calls)

     Called by init_run:
     wfcinit      :      0.00s CPU      0.16s WALL (       1 calls)
     wfcinit:atom :      0.12s CPU      0.08s WALL (     211 calls)
     wfcinit:wfcr :     43.02s CPU     22.49s WALL (     211 calls)
     potinit      :      0.50s CPU      0.48s WALL (       1 calls)
     hinit0       :      0.67s CPU      0.70s WALL (       1 calls)

     Called by electrons:
     c_bands      :   2195.68s CPU   1191.23s WALL (       1 calls)
     v_of_rho     :      0.05s CPU      0.03s WALL (       1 calls)
     v_h          :      0.01s CPU      0.00s WALL (       1 calls)
     v_xc         :      0.04s CPU      0.03s WALL (       1 calls)
     newd         :      0.55s CPU      0.53s WALL (       1 calls)

     Called by c_bands:
     init_us_2    :      0.20s CPU      0.17s WALL (     211 calls)
     cegterg      :   2143.99s CPU   1161.72s WALL (     878 calls)

     Called by sum_band:

     Called by *egterg:
     cdiaghg      :    337.10s CPU    226.30s WALL (   15625 calls)
     cegterg:over :    123.94s CPU     65.42s WALL (   15414 calls)
     cegterg:upda :     65.87s CPU     31.52s WALL (   15414 calls)
     cegterg:last :    154.13s CPU     77.59s WALL (    7775 calls)
     h_psi        :   1338.13s CPU    688.88s WALL (   16503 calls)
     s_psi        :     92.98s CPU     53.31s WALL (   16503 calls)
     g_psi        :      7.90s CPU      4.87s WALL (   15414 calls)

     Called by h_psi:
     h_psi:calbec :     73.44s CPU     36.90s WALL (   16503 calls)
     vloc_psi     :   1186.73s CPU    604.00s WALL (   16503 calls)
     add_vuspsi   :     74.52s CPU     45.85s WALL (   16503 calls)

     General routines
     calbec       :     73.33s CPU     36.86s WALL (   16503 calls)
     fft          :      0.58s CPU      0.58s WALL (      19 calls)
     ffts         :      0.42s CPU      0.42s WALL (       4 calls)
     fftw         :    863.15s CPU    441.19s WALL ( 3097976 calls)
     interpolate  :      0.44s CPU      0.43s WALL (       4 calls)
     davcio       :      0.20s CPU      0.35s WALL (     422 calls)

     Parallel routines

     PWSCF        :  36m54.32s CPU  21m24.65s WALL


   This run was terminated on:  20:53:38  22Aug2025            

=------------------------------------------------------------------------------=
   JOB DONE.
=------------------------------------------------------------------------------=
