
     Program PWSCF v.7.4.1 starts on 22Aug2025 at 21:32:30 

     This program is part of the open-source Quantum ESPRESSO suite
     for quantum simulation of materials; please cite
         "P. Giannozzi et al., J. Phys.:Condens. Matter 21 395502 (2009);
         "P. Giannozzi et al., J. Phys.:Condens. Matter 29 465901 (2017);
         "P. Giannozzi et al., J. Chem. Phys. 152 154105 (2020);
          URL http://www.quantum-espresso.org", 
     in publications or presentations arising from this work. More details at
     http://www.quantum-espresso.org/quote

     Parallel version (MPI & OpenMP), running on      48 processor cores
     Number of MPI processes:                24
     Threads/MPI process:                     2

     MPI processes distributed on     2 nodes
     102113 MiB available memory on the printing compute node when the environment starts

     Waiting for input...
     Reading input from standard input

     Current dimensions of program PWSCF are:
     Max number of different atomic species (ntypx) = 10
     Max number of k-points (npk) =  40000
     Max angular momentum in pseudopotentials (lmaxx) =  4
     file Sb.rel-pbe-n-rrkjus_psl.1.0.0.UPF: wavefunction(s)  5S renormalized
     file Te.rel-pbe-n-rrkjus_psl.1.0.0.UPF: wavefunction(s)  5S renormalized

     IMPORTANT: XC functional enforced from input :
     Exchange-correlation= PBE
                           (   1   4   3   4   0   0   0)
     Any further DFT definition will be discarded
     Please, verify this is what you really want


     Atomic positions and unit cell read from directory:
     tmp/Sb2Te3-uatsx-c6-soc-2.0.save/


     R & G space division:  proc/nbgrp/npool/nimage =      24
     Subspace diagonalization in iterative solution of the eigenvalue problem:
     a serial algorithm will be used


     Parallelization info
     --------------------
     sticks:   dense  smooth     PW     G-vecs:    dense   smooth      PW
     Min          97      39     10                19297     4885     728
     Max          98      40     11                19315     4897     761
     Sum        2329     937    263               463351   117389   17987

     Using Slab Decomposition



     bravais-lattice index     =            0
     lattice parameter (alat)  =       8.3085  a.u.
     unit-cell volume          =    2454.7283 (a.u.)^3
     number of atoms/cell      =            5
     number of atomic types    =            2
     number of electrons       =        28.00
     number of Kohn-Sham states=          100
     kinetic-energy cutoff     =      50.0000  Ry
     charge density cutoff     =     500.0000  Ry
     Exchange-correlation= PBE
                           (   1   4   3   4   0   0   0)
     Non magnetic calculation with spin-orbit


     celldm(1)=   8.308546  celldm(2)=   0.000000  celldm(3)=   0.000000
     celldm(4)=   0.000000  celldm(5)=   0.000000  celldm(6)=   0.000000

     crystal axes: (cart. coord. in units of alat)
               a(1) = (   1.000000   0.000000   0.000000 )  
               a(2) = (  -0.490196   0.849036   0.000000 )  
               a(3) = (   0.000000   0.000000   5.040830 )  

     reciprocal axes: (cart. coord. in units 2 pi/alat)
               b(1) = (  1.000000  0.577356 -0.000000 )  
               b(2) = (  0.000000  1.177806  0.000000 )  
               b(3) = (  0.000000 -0.000000  0.198380 )  


     PseudoPot. # 1 for Sb read from file:
     /zfs-home/202401017n1/pseudos/Sb.rel-pbe-n-rrkjus_psl.1.0.0.UPF
     MD5 check sum: c1afc134568783a62b80e43a202109b2
     Pseudo is Ultrasoft + core correction, Zval =  5.0
     Generated using &quot;atomic&quot; code by A. Dal Corso  v.6.2.2
     Using radial grid of 1243 points, 10 beta functions with: 
                l(1) =   0
                l(2) =   0
                l(3) =   1
                l(4) =   1
                l(5) =   1
                l(6) =   1
                l(7) =   2
                l(8) =   2
                l(9) =   2
               l(10) =   2
     Q(r) pseudized with 0 coefficients 


     PseudoPot. # 2 for Te read from file:
     /zfs-home/202401017n1/pseudos/Te.rel-pbe-n-rrkjus_psl.1.0.0.UPF
     MD5 check sum: 7fd30b6833abd190471e4dcc2367351b
     Pseudo is Ultrasoft + core correction, Zval =  6.0
     Generated using &quot;atomic&quot; code by A. Dal Corso  v.6.3
     Using radial grid of 1245 points, 10 beta functions with: 
                l(1) =   0
                l(2) =   0
                l(3) =   1
                l(4) =   1
                l(5) =   1
                l(6) =   1
                l(7) =   2
                l(8) =   2
                l(9) =   2
               l(10) =   2
     Q(r) pseudized with 0 coefficients 


     atomic species   valence    mass     pseudopotential
     Sb                5.00   121.76000     Sb( 1.00)
     Te                6.00   127.60000     Te( 1.00)

     No symmetry found


                                    s                        frac. trans.

      isym =  1     identity                                     

 cryst.   s( 1) = (     1          0          0      )
                  (     0          1          0      )
                  (     0          0          1      )

 cart.    s( 1) = (  1.0000000  0.0000000  0.0000000 )
                  (  0.0000000  1.0000000  0.0000000 )
                  (  0.0000000  0.0000000  1.0000000 )


   Cartesian axes

     site n.     atom                  positions (alat units)
         1        Sb     tau(   1) = (   0.5829733   0.4189608   2.9724649  )
         2        Te     tau(   2) = (   0.5752175   0.4057666   1.6850437  )
         3        Sb     tau(   3) = (   0.0736071   0.1257310   2.0683360  )
         4        Te     tau(   4) = (   0.0811854   0.1390911   3.3558017  )
         5        Te     tau(   5) = (   0.0831178   0.6970014   2.5203330  )

     -------------------------------------------------
     Parameters for Dispersion (Grimme-D2) Correction:
     -------------------------------------------------
       atom      VdW radius       C_6     

        Sb         3.555       1333.532
        Te         3.575       1101.101

   Crystallographic axes

     site n.     atom                  positions (cryst. coord.)
         1        Sb     tau(   1) = (  0.8248627  0.4934545  0.5896776  )
         2        Te     tau(   2) = (  0.8094892  0.4779143  0.3342790  )
         3        Sb     tau(   3) = (  0.1461986  0.1480867  0.4103165  )
         4        Te     tau(   4) = (  0.1614904  0.1638223  0.6657240  )
         5        Te     tau(   5) = (  0.4855356  0.8209324  0.4999837  )

     number of k points=   211
                       cart. coord. in units 2pi/alat
        k(    1) = (   0.0000000   0.0000000   0.0000000), wk =   0.0047393
        k(    2) = (   0.0071429   0.0041240   0.0000000), wk =   0.0047393
        k(    3) = (   0.0142857   0.0082479   0.0000000), wk =   0.0047393
        k(    4) = (   0.0214286   0.0123719   0.0000000), wk =   0.0047393
        k(    5) = (   0.0285714   0.0164959   0.0000000), wk =   0.0047393
        k(    6) = (   0.0357143   0.0206199   0.0000000), wk =   0.0047393
        k(    7) = (   0.0428571   0.0247438   0.0000000), wk =   0.0047393
        k(    8) = (   0.0500000   0.0288678   0.0000000), wk =   0.0047393
        k(    9) = (   0.0571429   0.0329918   0.0000000), wk =   0.0047393
        k(   10) = (   0.0642857   0.0371157   0.0000000), wk =   0.0047393
        k(   11) = (   0.0714286   0.0412397   0.0000000), wk =   0.0047393
        k(   12) = (   0.0785714   0.0453637   0.0000000), wk =   0.0047393
        k(   13) = (   0.0857143   0.0494876   0.0000000), wk =   0.0047393
        k(   14) = (   0.0928571   0.0536116   0.0000000), wk =   0.0047393
        k(   15) = (   0.1000000   0.0577356   0.0000000), wk =   0.0047393
        k(   16) = (   0.1071429   0.0618596   0.0000000), wk =   0.0047393
        k(   17) = (   0.1142857   0.0659835   0.0000000), wk =   0.0047393
        k(   18) = (   0.1214286   0.0701075   0.0000000), wk =   0.0047393
        k(   19) = (   0.1285714   0.0742315   0.0000000), wk =   0.0047393
        k(   20) = (   0.1357143   0.0783554   0.0000000), wk =   0.0047393
        k(   21) = (   0.1428571   0.0824794   0.0000000), wk =   0.0047393
        k(   22) = (   0.1500000   0.0866034   0.0000000), wk =   0.0047393
        k(   23) = (   0.1571429   0.0907273   0.0000000), wk =   0.0047393
        k(   24) = (   0.1642857   0.0948513   0.0000000), wk =   0.0047393
        k(   25) = (   0.1714286   0.0989753   0.0000000), wk =   0.0047393
        k(   26) = (   0.1785714   0.1030993   0.0000000), wk =   0.0047393
        k(   27) = (   0.1857143   0.1072232   0.0000000), wk =   0.0047393
        k(   28) = (   0.1928571   0.1113472   0.0000000), wk =   0.0047393
        k(   29) = (   0.2000000   0.1154712   0.0000000), wk =   0.0047393
        k(   30) = (   0.2071429   0.1195951   0.0000000), wk =   0.0047393
        k(   31) = (   0.2142857   0.1237191   0.0000000), wk =   0.0047393
        k(   32) = (   0.2214286   0.1278431   0.0000000), wk =   0.0047393
        k(   33) = (   0.2285714   0.1319671   0.0000000), wk =   0.0047393
        k(   34) = (   0.2357143   0.1360910   0.0000000), wk =   0.0047393
        k(   35) = (   0.2428571   0.1402150   0.0000000), wk =   0.0047393
        k(   36) = (   0.2500000   0.1443390   0.0000000), wk =   0.0047393
        k(   37) = (   0.2571429   0.1484629   0.0000000), wk =   0.0047393
        k(   38) = (   0.2642857   0.1525869   0.0000000), wk =   0.0047393
        k(   39) = (   0.2714286   0.1567109   0.0000000), wk =   0.0047393
        k(   40) = (   0.2785714   0.1608348   0.0000000), wk =   0.0047393
        k(   41) = (   0.2857143   0.1649588   0.0000000), wk =   0.0047393
        k(   42) = (   0.2928571   0.1690828   0.0000000), wk =   0.0047393
        k(   43) = (   0.3000000   0.1732068   0.0000000), wk =   0.0047393
        k(   44) = (   0.3071429   0.1773307   0.0000000), wk =   0.0047393
        k(   45) = (   0.3142857   0.1814547   0.0000000), wk =   0.0047393
        k(   46) = (   0.3214286   0.1855787   0.0000000), wk =   0.0047393
        k(   47) = (   0.3285714   0.1897026   0.0000000), wk =   0.0047393
        k(   48) = (   0.3357143   0.1938266   0.0000000), wk =   0.0047393
        k(   49) = (   0.3428571   0.1979506   0.0000000), wk =   0.0047393
        k(   50) = (   0.3500000   0.2020745   0.0000000), wk =   0.0047393
        k(   51) = (   0.3571429   0.2061985   0.0000000), wk =   0.0047393
        k(   52) = (   0.3642857   0.2103225   0.0000000), wk =   0.0047393
        k(   53) = (   0.3714286   0.2144465   0.0000000), wk =   0.0047393
        k(   54) = (   0.3785714   0.2185704   0.0000000), wk =   0.0047393
        k(   55) = (   0.3857143   0.2226944   0.0000000), wk =   0.0047393
        k(   56) = (   0.3928571   0.2268184   0.0000000), wk =   0.0047393
        k(   57) = (   0.4000000   0.2309423   0.0000000), wk =   0.0047393
        k(   58) = (   0.4071429   0.2350663   0.0000000), wk =   0.0047393
        k(   59) = (   0.4142857   0.2391903   0.0000000), wk =   0.0047393
        k(   60) = (   0.4214286   0.2433143   0.0000000), wk =   0.0047393
        k(   61) = (   0.4285714   0.2474382   0.0000000), wk =   0.0047393
        k(   62) = (   0.4357143   0.2515622   0.0000000), wk =   0.0047393
        k(   63) = (   0.4428571   0.2556862   0.0000000), wk =   0.0047393
        k(   64) = (   0.4500000   0.2598101   0.0000000), wk =   0.0047393
        k(   65) = (   0.4571429   0.2639341   0.0000000), wk =   0.0047393
        k(   66) = (   0.4642857   0.2680581   0.0000000), wk =   0.0047393
        k(   67) = (   0.4714286   0.2721820   0.0000000), wk =   0.0047393
        k(   68) = (   0.4785714   0.2763060   0.0000000), wk =   0.0047393
        k(   69) = (   0.4857143   0.2804300   0.0000000), wk =   0.0047393
        k(   70) = (   0.4928571   0.2845540   0.0000000), wk =   0.0047393
        k(   71) = (   0.5000000   0.2886779   0.0000000), wk =   0.0047393
        k(   72) = (   0.4976190   0.2929119   0.0000000), wk =   0.0047393
        k(   73) = (   0.4952381   0.2971458   0.0000000), wk =   0.0047393
        k(   74) = (   0.4928571   0.3013798   0.0000000), wk =   0.0047393
        k(   75) = (   0.4904762   0.3056137   0.0000000), wk =   0.0047393
        k(   76) = (   0.4880952   0.3098476   0.0000000), wk =   0.0047393
        k(   77) = (   0.4857143   0.3140816   0.0000000), wk =   0.0047393
        k(   78) = (   0.4833333   0.3183155   0.0000000), wk =   0.0047393
        k(   79) = (   0.4809524   0.3225495   0.0000000), wk =   0.0047393
        k(   80) = (   0.4785714   0.3267834   0.0000000), wk =   0.0047393
        k(   81) = (   0.4761905   0.3310174   0.0000000), wk =   0.0047393
        k(   82) = (   0.4738095   0.3352513   0.0000000), wk =   0.0047393
        k(   83) = (   0.4714286   0.3394852   0.0000000), wk =   0.0047393
        k(   84) = (   0.4690476   0.3437192   0.0000000), wk =   0.0047393
        k(   85) = (   0.4666667   0.3479531   0.0000000), wk =   0.0047393
        k(   86) = (   0.4642857   0.3521871   0.0000000), wk =   0.0047393
        k(   87) = (   0.4619048   0.3564210   0.0000000), wk =   0.0047393
        k(   88) = (   0.4595238   0.3606550   0.0000000), wk =   0.0047393
        k(   89) = (   0.4571429   0.3648889   0.0000000), wk =   0.0047393
        k(   90) = (   0.4547619   0.3691228   0.0000000), wk =   0.0047393
        k(   91) = (   0.4523810   0.3733568   0.0000000), wk =   0.0047393
        k(   92) = (   0.4500000   0.3775907   0.0000000), wk =   0.0047393
        k(   93) = (   0.4476190   0.3818247   0.0000000), wk =   0.0047393
        k(   94) = (   0.4452381   0.3860586   0.0000000), wk =   0.0047393
        k(   95) = (   0.4428571   0.3902926   0.0000000), wk =   0.0047393
        k(   96) = (   0.4404762   0.3945265   0.0000000), wk =   0.0047393
        k(   97) = (   0.4380952   0.3987604   0.0000000), wk =   0.0047393
        k(   98) = (   0.4357143   0.4029944   0.0000000), wk =   0.0047393
        k(   99) = (   0.4333333   0.4072283   0.0000000), wk =   0.0047393
        k(  100) = (   0.4309524   0.4114623   0.0000000), wk =   0.0047393
        k(  101) = (   0.4285714   0.4156962   0.0000000), wk =   0.0047393
        k(  102) = (   0.4261905   0.4199302   0.0000000), wk =   0.0047393
        k(  103) = (   0.4238095   0.4241641   0.0000000), wk =   0.0047393
        k(  104) = (   0.4214286   0.4283980   0.0000000), wk =   0.0047393
        k(  105) = (   0.4190476   0.4326320   0.0000000), wk =   0.0047393
        k(  106) = (   0.4166667   0.4368659   0.0000000), wk =   0.0047393
        k(  107) = (   0.4142857   0.4410999   0.0000000), wk =   0.0047393
        k(  108) = (   0.4119048   0.4453338   0.0000000), wk =   0.0047393
        k(  109) = (   0.4095238   0.4495678   0.0000000), wk =   0.0047393
        k(  110) = (   0.4071429   0.4538017   0.0000000), wk =   0.0047393
        k(  111) = (   0.4047619   0.4580356   0.0000000), wk =   0.0047393
        k(  112) = (   0.4023810   0.4622696   0.0000000), wk =   0.0047393
        k(  113) = (   0.4000000   0.4665035   0.0000000), wk =   0.0047393
        k(  114) = (   0.3976190   0.4707375   0.0000000), wk =   0.0047393
        k(  115) = (   0.3952381   0.4749714   0.0000000), wk =   0.0047393
        k(  116) = (   0.3928571   0.4792054   0.0000000), wk =   0.0047393
        k(  117) = (   0.3904762   0.4834393   0.0000000), wk =   0.0047393
        k(  118) = (   0.3880952   0.4876732   0.0000000), wk =   0.0047393
        k(  119) = (   0.3857143   0.4919072   0.0000000), wk =   0.0047393
        k(  120) = (   0.3833333   0.4961411   0.0000000), wk =   0.0047393
        k(  121) = (   0.3809524   0.5003751   0.0000000), wk =   0.0047393
        k(  122) = (   0.3785714   0.5046090   0.0000000), wk =   0.0047393
        k(  123) = (   0.3761905   0.5088430   0.0000000), wk =   0.0047393
        k(  124) = (   0.3738095   0.5130769   0.0000000), wk =   0.0047393
        k(  125) = (   0.3714286   0.5173108   0.0000000), wk =   0.0047393
        k(  126) = (   0.3690476   0.5215448   0.0000000), wk =   0.0047393
        k(  127) = (   0.3666667   0.5257787   0.0000000), wk =   0.0047393
        k(  128) = (   0.3642857   0.5300127   0.0000000), wk =   0.0047393
        k(  129) = (   0.3619048   0.5342466   0.0000000), wk =   0.0047393
        k(  130) = (   0.3595238   0.5384806   0.0000000), wk =   0.0047393
        k(  131) = (   0.3571429   0.5427145   0.0000000), wk =   0.0047393
        k(  132) = (   0.3547619   0.5469484   0.0000000), wk =   0.0047393
        k(  133) = (   0.3523810   0.5511824   0.0000000), wk =   0.0047393
        k(  134) = (   0.3500000   0.5554163   0.0000000), wk =   0.0047393
        k(  135) = (   0.3476190   0.5596503   0.0000000), wk =   0.0047393
        k(  136) = (   0.3452381   0.5638842   0.0000000), wk =   0.0047393
        k(  137) = (   0.3428571   0.5681182   0.0000000), wk =   0.0047393
        k(  138) = (   0.3404762   0.5723521   0.0000000), wk =   0.0047393
        k(  139) = (   0.3380952   0.5765860   0.0000000), wk =   0.0047393
        k(  140) = (   0.3357143   0.5808200   0.0000000), wk =   0.0047393
        k(  141) = (   0.3333333   0.5850539   0.0000000), wk =   0.0047393
        k(  142) = (   0.3285714   0.5766960   0.0000000), wk =   0.0047393
        k(  143) = (   0.3238095   0.5683381   0.0000000), wk =   0.0047393
        k(  144) = (   0.3190476   0.5599802   0.0000000), wk =   0.0047393
        k(  145) = (   0.3142857   0.5516223   0.0000000), wk =   0.0047393
        k(  146) = (   0.3095238   0.5432644   0.0000000), wk =   0.0047393
        k(  147) = (   0.3047619   0.5349065   0.0000000), wk =   0.0047393
        k(  148) = (   0.3000000   0.5265485   0.0000000), wk =   0.0047393
        k(  149) = (   0.2952381   0.5181906   0.0000000), wk =   0.0047393
        k(  150) = (   0.2904762   0.5098327   0.0000000), wk =   0.0047393
        k(  151) = (   0.2857143   0.5014748   0.0000000), wk =   0.0047393
        k(  152) = (   0.2809524   0.4931169   0.0000000), wk =   0.0047393
        k(  153) = (   0.2761905   0.4847590   0.0000000), wk =   0.0047393
        k(  154) = (   0.2714286   0.4764011   0.0000000), wk =   0.0047393
        k(  155) = (   0.2666667   0.4680431   0.0000000), wk =   0.0047393
        k(  156) = (   0.2619048   0.4596852   0.0000000), wk =   0.0047393
        k(  157) = (   0.2571429   0.4513273   0.0000000), wk =   0.0047393
        k(  158) = (   0.2523810   0.4429694   0.0000000), wk =   0.0047393
        k(  159) = (   0.2476190   0.4346115   0.0000000), wk =   0.0047393
        k(  160) = (   0.2428571   0.4262536   0.0000000), wk =   0.0047393
        k(  161) = (   0.2380952   0.4178957   0.0000000), wk =   0.0047393
        k(  162) = (   0.2333333   0.4095378   0.0000000), wk =   0.0047393
        k(  163) = (   0.2285714   0.4011798   0.0000000), wk =   0.0047393
        k(  164) = (   0.2238095   0.3928219   0.0000000), wk =   0.0047393
        k(  165) = (   0.2190476   0.3844640   0.0000000), wk =   0.0047393
        k(  166) = (   0.2142857   0.3761061   0.0000000), wk =   0.0047393
        k(  167) = (   0.2095238   0.3677482   0.0000000), wk =   0.0047393
        k(  168) = (   0.2047619   0.3593903   0.0000000), wk =   0.0047393
        k(  169) = (   0.2000000   0.3510324   0.0000000), wk =   0.0047393
        k(  170) = (   0.1952381   0.3426744   0.0000000), wk =   0.0047393
        k(  171) = (   0.1904762   0.3343165   0.0000000), wk =   0.0047393
        k(  172) = (   0.1857143   0.3259586   0.0000000), wk =   0.0047393
        k(  173) = (   0.1809524   0.3176007   0.0000000), wk =   0.0047393
        k(  174) = (   0.1761905   0.3092428   0.0000000), wk =   0.0047393
        k(  175) = (   0.1714286   0.3008849   0.0000000), wk =   0.0047393
        k(  176) = (   0.1666667   0.2925270   0.0000000), wk =   0.0047393
        k(  177) = (   0.1619048   0.2841691   0.0000000), wk =   0.0047393
        k(  178) = (   0.1571429   0.2758111   0.0000000), wk =   0.0047393
        k(  179) = (   0.1523810   0.2674532   0.0000000), wk =   0.0047393
        k(  180) = (   0.1476190   0.2590953   0.0000000), wk =   0.0047393
        k(  181) = (   0.1428571   0.2507374   0.0000000), wk =   0.0047393
        k(  182) = (   0.1380952   0.2423795   0.0000000), wk =   0.0047393
        k(  183) = (   0.1333333   0.2340216   0.0000000), wk =   0.0047393
        k(  184) = (   0.1285714   0.2256637   0.0000000), wk =   0.0047393
        k(  185) = (   0.1238095   0.2173057   0.0000000), wk =   0.0047393
        k(  186) = (   0.1190476   0.2089478   0.0000000), wk =   0.0047393
        k(  187) = (   0.1142857   0.2005899   0.0000000), wk =   0.0047393
        k(  188) = (   0.1095238   0.1922320   0.0000000), wk =   0.0047393
        k(  189) = (   0.1047619   0.1838741   0.0000000), wk =   0.0047393
        k(  190) = (   0.1000000   0.1755162   0.0000000), wk =   0.0047393
        k(  191) = (   0.0952381   0.1671583   0.0000000), wk =   0.0047393
        k(  192) = (   0.0904762   0.1588004   0.0000000), wk =   0.0047393
        k(  193) = (   0.0857143   0.1504424   0.0000000), wk =   0.0047393
        k(  194) = (   0.0809524   0.1420845   0.0000000), wk =   0.0047393
        k(  195) = (   0.0761905   0.1337266   0.0000000), wk =   0.0047393
        k(  196) = (   0.0714286   0.1253687   0.0000000), wk =   0.0047393
        k(  197) = (   0.0666667   0.1170108   0.0000000), wk =   0.0047393
        k(  198) = (   0.0619048   0.1086529   0.0000000), wk =   0.0047393
        k(  199) = (   0.0571429   0.1002950   0.0000000), wk =   0.0047393
        k(  200) = (   0.0523810   0.0919370   0.0000000), wk =   0.0047393
        k(  201) = (   0.0476190   0.0835791   0.0000000), wk =   0.0047393
        k(  202) = (   0.0428571   0.0752212   0.0000000), wk =   0.0047393
        k(  203) = (   0.0380952   0.0668633   0.0000000), wk =   0.0047393
        k(  204) = (   0.0333333   0.0585054   0.0000000), wk =   0.0047393
        k(  205) = (   0.0285714   0.0501475   0.0000000), wk =   0.0047393
        k(  206) = (   0.0238095   0.0417896   0.0000000), wk =   0.0047393
        k(  207) = (   0.0190476   0.0334317   0.0000000), wk =   0.0047393
        k(  208) = (   0.0142857   0.0250737   0.0000000), wk =   0.0047393
        k(  209) = (   0.0095238   0.0167158   0.0000000), wk =   0.0047393
        k(  210) = (   0.0047619   0.0083579   0.0000000), wk =   0.0047393
        k(  211) = (   0.0000000   0.0000000   0.0000000), wk =   0.0047393

                       cryst. coord.
        k(    1) = (   0.0000000   0.0000000   0.0000000), wk =   0.0047393
        k(    2) = (   0.0071429   0.0000000   0.0000000), wk =   0.0047393
        k(    3) = (   0.0142857   0.0000000   0.0000000), wk =   0.0047393
        k(    4) = (   0.0214286   0.0000000   0.0000000), wk =   0.0047393
        k(    5) = (   0.0285714   0.0000000   0.0000000), wk =   0.0047393
        k(    6) = (   0.0357143   0.0000000   0.0000000), wk =   0.0047393
        k(    7) = (   0.0428571   0.0000000   0.0000000), wk =   0.0047393
        k(    8) = (   0.0500000   0.0000000   0.0000000), wk =   0.0047393
        k(    9) = (   0.0571429   0.0000000   0.0000000), wk =   0.0047393
        k(   10) = (   0.0642857   0.0000000   0.0000000), wk =   0.0047393
        k(   11) = (   0.0714286   0.0000000   0.0000000), wk =   0.0047393
        k(   12) = (   0.0785714   0.0000000   0.0000000), wk =   0.0047393
        k(   13) = (   0.0857143   0.0000000   0.0000000), wk =   0.0047393
        k(   14) = (   0.0928571   0.0000000   0.0000000), wk =   0.0047393
        k(   15) = (   0.1000000   0.0000000   0.0000000), wk =   0.0047393
        k(   16) = (   0.1071429   0.0000000   0.0000000), wk =   0.0047393
        k(   17) = (   0.1142857   0.0000000   0.0000000), wk =   0.0047393
        k(   18) = (   0.1214286   0.0000000   0.0000000), wk =   0.0047393
        k(   19) = (   0.1285714   0.0000000   0.0000000), wk =   0.0047393
        k(   20) = (   0.1357143   0.0000000   0.0000000), wk =   0.0047393
        k(   21) = (   0.1428571   0.0000000   0.0000000), wk =   0.0047393
        k(   22) = (   0.1500000   0.0000000   0.0000000), wk =   0.0047393
        k(   23) = (   0.1571429   0.0000000   0.0000000), wk =   0.0047393
        k(   24) = (   0.1642857   0.0000000   0.0000000), wk =   0.0047393
        k(   25) = (   0.1714286   0.0000000   0.0000000), wk =   0.0047393
        k(   26) = (   0.1785714   0.0000000   0.0000000), wk =   0.0047393
        k(   27) = (   0.1857143   0.0000000   0.0000000), wk =   0.0047393
        k(   28) = (   0.1928571   0.0000000   0.0000000), wk =   0.0047393
        k(   29) = (   0.2000000   0.0000000   0.0000000), wk =   0.0047393
        k(   30) = (   0.2071429   0.0000000   0.0000000), wk =   0.0047393
        k(   31) = (   0.2142857   0.0000000   0.0000000), wk =   0.0047393
        k(   32) = (   0.2214286   0.0000000   0.0000000), wk =   0.0047393
        k(   33) = (   0.2285714   0.0000000   0.0000000), wk =   0.0047393
        k(   34) = (   0.2357143   0.0000000   0.0000000), wk =   0.0047393
        k(   35) = (   0.2428571   0.0000000   0.0000000), wk =   0.0047393
        k(   36) = (   0.2500000   0.0000000   0.0000000), wk =   0.0047393
        k(   37) = (   0.2571429   0.0000000   0.0000000), wk =   0.0047393
        k(   38) = (   0.2642857   0.0000000   0.0000000), wk =   0.0047393
        k(   39) = (   0.2714286   0.0000000   0.0000000), wk =   0.0047393
        k(   40) = (   0.2785714   0.0000000   0.0000000), wk =   0.0047393
        k(   41) = (   0.2857143   0.0000000   0.0000000), wk =   0.0047393
        k(   42) = (   0.2928571   0.0000000   0.0000000), wk =   0.0047393
        k(   43) = (   0.3000000   0.0000000   0.0000000), wk =   0.0047393
        k(   44) = (   0.3071429   0.0000000   0.0000000), wk =   0.0047393
        k(   45) = (   0.3142857   0.0000000   0.0000000), wk =   0.0047393
        k(   46) = (   0.3214286   0.0000000   0.0000000), wk =   0.0047393
        k(   47) = (   0.3285714   0.0000000   0.0000000), wk =   0.0047393
        k(   48) = (   0.3357143   0.0000000   0.0000000), wk =   0.0047393
        k(   49) = (   0.3428571   0.0000000   0.0000000), wk =   0.0047393
        k(   50) = (   0.3500000   0.0000000   0.0000000), wk =   0.0047393
        k(   51) = (   0.3571429   0.0000000   0.0000000), wk =   0.0047393
        k(   52) = (   0.3642857   0.0000000   0.0000000), wk =   0.0047393
        k(   53) = (   0.3714286   0.0000000   0.0000000), wk =   0.0047393
        k(   54) = (   0.3785714   0.0000000   0.0000000), wk =   0.0047393
        k(   55) = (   0.3857143   0.0000000   0.0000000), wk =   0.0047393
        k(   56) = (   0.3928571   0.0000000   0.0000000), wk =   0.0047393
        k(   57) = (   0.4000000   0.0000000   0.0000000), wk =   0.0047393
        k(   58) = (   0.4071429   0.0000000   0.0000000), wk =   0.0047393
        k(   59) = (   0.4142857   0.0000000   0.0000000), wk =   0.0047393
        k(   60) = (   0.4214286   0.0000000   0.0000000), wk =   0.0047393
        k(   61) = (   0.4285714   0.0000000   0.0000000), wk =   0.0047393
        k(   62) = (   0.4357143   0.0000000   0.0000000), wk =   0.0047393
        k(   63) = (   0.4428571   0.0000000   0.0000000), wk =   0.0047393
        k(   64) = (   0.4500000   0.0000000   0.0000000), wk =   0.0047393
        k(   65) = (   0.4571429   0.0000000   0.0000000), wk =   0.0047393
        k(   66) = (   0.4642857   0.0000000   0.0000000), wk =   0.0047393
        k(   67) = (   0.4714286   0.0000000   0.0000000), wk =   0.0047393
        k(   68) = (   0.4785714   0.0000000   0.0000000), wk =   0.0047393
        k(   69) = (   0.4857143   0.0000000   0.0000000), wk =   0.0047393
        k(   70) = (   0.4928571   0.0000000   0.0000000), wk =   0.0047393
        k(   71) = (   0.5000000   0.0000000   0.0000000), wk =   0.0047393
        k(   72) = (   0.4976190   0.0047619   0.0000000), wk =   0.0047393
        k(   73) = (   0.4952381   0.0095238   0.0000000), wk =   0.0047393
        k(   74) = (   0.4928571   0.0142857   0.0000000), wk =   0.0047393
        k(   75) = (   0.4904762   0.0190476   0.0000000), wk =   0.0047393
        k(   76) = (   0.4880952   0.0238095   0.0000000), wk =   0.0047393
        k(   77) = (   0.4857143   0.0285714   0.0000000), wk =   0.0047393
        k(   78) = (   0.4833333   0.0333333   0.0000000), wk =   0.0047393
        k(   79) = (   0.4809524   0.0380952   0.0000000), wk =   0.0047393
        k(   80) = (   0.4785714   0.0428571   0.0000000), wk =   0.0047393
        k(   81) = (   0.4761905   0.0476190   0.0000000), wk =   0.0047393
        k(   82) = (   0.4738095   0.0523810   0.0000000), wk =   0.0047393
        k(   83) = (   0.4714286   0.0571429   0.0000000), wk =   0.0047393
        k(   84) = (   0.4690476   0.0619048   0.0000000), wk =   0.0047393
        k(   85) = (   0.4666667   0.0666667   0.0000000), wk =   0.0047393
        k(   86) = (   0.4642857   0.0714286   0.0000000), wk =   0.0047393
        k(   87) = (   0.4619048   0.0761905   0.0000000), wk =   0.0047393
        k(   88) = (   0.4595238   0.0809524   0.0000000), wk =   0.0047393
        k(   89) = (   0.4571429   0.0857143   0.0000000), wk =   0.0047393
        k(   90) = (   0.4547619   0.0904762   0.0000000), wk =   0.0047393
        k(   91) = (   0.4523810   0.0952381   0.0000000), wk =   0.0047393
        k(   92) = (   0.4500000   0.1000000   0.0000000), wk =   0.0047393
        k(   93) = (   0.4476190   0.1047619   0.0000000), wk =   0.0047393
        k(   94) = (   0.4452381   0.1095238   0.0000000), wk =   0.0047393
        k(   95) = (   0.4428571   0.1142857   0.0000000), wk =   0.0047393
        k(   96) = (   0.4404762   0.1190476   0.0000000), wk =   0.0047393
        k(   97) = (   0.4380952   0.1238095   0.0000000), wk =   0.0047393
        k(   98) = (   0.4357143   0.1285714   0.0000000), wk =   0.0047393
        k(   99) = (   0.4333333   0.1333333   0.0000000), wk =   0.0047393
        k(  100) = (   0.4309524   0.1380952   0.0000000), wk =   0.0047393
        k(  101) = (   0.4285714   0.1428571   0.0000000), wk =   0.0047393
        k(  102) = (   0.4261905   0.1476190   0.0000000), wk =   0.0047393
        k(  103) = (   0.4238095   0.1523810   0.0000000), wk =   0.0047393
        k(  104) = (   0.4214286   0.1571429   0.0000000), wk =   0.0047393
        k(  105) = (   0.4190476   0.1619048   0.0000000), wk =   0.0047393
        k(  106) = (   0.4166667   0.1666667   0.0000000), wk =   0.0047393
        k(  107) = (   0.4142857   0.1714286   0.0000000), wk =   0.0047393
        k(  108) = (   0.4119048   0.1761905   0.0000000), wk =   0.0047393
        k(  109) = (   0.4095238   0.1809524   0.0000000), wk =   0.0047393
        k(  110) = (   0.4071429   0.1857143   0.0000000), wk =   0.0047393
        k(  111) = (   0.4047619   0.1904762   0.0000000), wk =   0.0047393
        k(  112) = (   0.4023810   0.1952381   0.0000000), wk =   0.0047393
        k(  113) = (   0.4000000   0.2000000   0.0000000), wk =   0.0047393
        k(  114) = (   0.3976190   0.2047619   0.0000000), wk =   0.0047393
        k(  115) = (   0.3952381   0.2095238   0.0000000), wk =   0.0047393
        k(  116) = (   0.3928571   0.2142857   0.0000000), wk =   0.0047393
        k(  117) = (   0.3904762   0.2190476   0.0000000), wk =   0.0047393
        k(  118) = (   0.3880952   0.2238095   0.0000000), wk =   0.0047393
        k(  119) = (   0.3857143   0.2285714   0.0000000), wk =   0.0047393
        k(  120) = (   0.3833333   0.2333333   0.0000000), wk =   0.0047393
        k(  121) = (   0.3809524   0.2380952   0.0000000), wk =   0.0047393
        k(  122) = (   0.3785714   0.2428571   0.0000000), wk =   0.0047393
        k(  123) = (   0.3761905   0.2476190   0.0000000), wk =   0.0047393
        k(  124) = (   0.3738095   0.2523810   0.0000000), wk =   0.0047393
        k(  125) = (   0.3714286   0.2571429   0.0000000), wk =   0.0047393
        k(  126) = (   0.3690476   0.2619048   0.0000000), wk =   0.0047393
        k(  127) = (   0.3666667   0.2666667   0.0000000), wk =   0.0047393
        k(  128) = (   0.3642857   0.2714286   0.0000000), wk =   0.0047393
        k(  129) = (   0.3619048   0.2761905   0.0000000), wk =   0.0047393
        k(  130) = (   0.3595238   0.2809524   0.0000000), wk =   0.0047393
        k(  131) = (   0.3571429   0.2857143   0.0000000), wk =   0.0047393
        k(  132) = (   0.3547619   0.2904762   0.0000000), wk =   0.0047393
        k(  133) = (   0.3523810   0.2952381   0.0000000), wk =   0.0047393
        k(  134) = (   0.3500000   0.3000000   0.0000000), wk =   0.0047393
        k(  135) = (   0.3476190   0.3047619   0.0000000), wk =   0.0047393
        k(  136) = (   0.3452381   0.3095238   0.0000000), wk =   0.0047393
        k(  137) = (   0.3428571   0.3142857   0.0000000), wk =   0.0047393
        k(  138) = (   0.3404762   0.3190476   0.0000000), wk =   0.0047393
        k(  139) = (   0.3380952   0.3238095   0.0000000), wk =   0.0047393
        k(  140) = (   0.3357143   0.3285714   0.0000000), wk =   0.0047393
        k(  141) = (   0.3333333   0.3333333   0.0000000), wk =   0.0047393
        k(  142) = (   0.3285714   0.3285714   0.0000000), wk =   0.0047393
        k(  143) = (   0.3238095   0.3238095   0.0000000), wk =   0.0047393
        k(  144) = (   0.3190476   0.3190476   0.0000000), wk =   0.0047393
        k(  145) = (   0.3142857   0.3142857   0.0000000), wk =   0.0047393
        k(  146) = (   0.3095238   0.3095238   0.0000000), wk =   0.0047393
        k(  147) = (   0.3047619   0.3047619   0.0000000), wk =   0.0047393
        k(  148) = (   0.3000000   0.3000000   0.0000000), wk =   0.0047393
        k(  149) = (   0.2952381   0.2952381   0.0000000), wk =   0.0047393
        k(  150) = (   0.2904762   0.2904762   0.0000000), wk =   0.0047393
        k(  151) = (   0.2857143   0.2857143   0.0000000), wk =   0.0047393
        k(  152) = (   0.2809524   0.2809524   0.0000000), wk =   0.0047393
        k(  153) = (   0.2761905   0.2761905   0.0000000), wk =   0.0047393
        k(  154) = (   0.2714286   0.2714286   0.0000000), wk =   0.0047393
        k(  155) = (   0.2666667   0.2666667   0.0000000), wk =   0.0047393
        k(  156) = (   0.2619048   0.2619048   0.0000000), wk =   0.0047393
        k(  157) = (   0.2571429   0.2571429   0.0000000), wk =   0.0047393
        k(  158) = (   0.2523810   0.2523810   0.0000000), wk =   0.0047393
        k(  159) = (   0.2476190   0.2476190   0.0000000), wk =   0.0047393
        k(  160) = (   0.2428571   0.2428571   0.0000000), wk =   0.0047393
        k(  161) = (   0.2380952   0.2380952   0.0000000), wk =   0.0047393
        k(  162) = (   0.2333333   0.2333333   0.0000000), wk =   0.0047393
        k(  163) = (   0.2285714   0.2285714   0.0000000), wk =   0.0047393
        k(  164) = (   0.2238095   0.2238095   0.0000000), wk =   0.0047393
        k(  165) = (   0.2190476   0.2190476   0.0000000), wk =   0.0047393
        k(  166) = (   0.2142857   0.2142857   0.0000000), wk =   0.0047393
        k(  167) = (   0.2095238   0.2095238   0.0000000), wk =   0.0047393
        k(  168) = (   0.2047619   0.2047619   0.0000000), wk =   0.0047393
        k(  169) = (   0.2000000   0.2000000   0.0000000), wk =   0.0047393
        k(  170) = (   0.1952381   0.1952381   0.0000000), wk =   0.0047393
        k(  171) = (   0.1904762   0.1904762   0.0000000), wk =   0.0047393
        k(  172) = (   0.1857143   0.1857143   0.0000000), wk =   0.0047393
        k(  173) = (   0.1809524   0.1809524   0.0000000), wk =   0.0047393
        k(  174) = (   0.1761905   0.1761905   0.0000000), wk =   0.0047393
        k(  175) = (   0.1714286   0.1714286   0.0000000), wk =   0.0047393
        k(  176) = (   0.1666667   0.1666667   0.0000000), wk =   0.0047393
        k(  177) = (   0.1619048   0.1619048   0.0000000), wk =   0.0047393
        k(  178) = (   0.1571429   0.1571429   0.0000000), wk =   0.0047393
        k(  179) = (   0.1523810   0.1523810   0.0000000), wk =   0.0047393
        k(  180) = (   0.1476190   0.1476190   0.0000000), wk =   0.0047393
        k(  181) = (   0.1428571   0.1428571   0.0000000), wk =   0.0047393
        k(  182) = (   0.1380952   0.1380952   0.0000000), wk =   0.0047393
        k(  183) = (   0.1333333   0.1333333   0.0000000), wk =   0.0047393
        k(  184) = (   0.1285714   0.1285714   0.0000000), wk =   0.0047393
        k(  185) = (   0.1238095   0.1238095   0.0000000), wk =   0.0047393
        k(  186) = (   0.1190476   0.1190476   0.0000000), wk =   0.0047393
        k(  187) = (   0.1142857   0.1142857   0.0000000), wk =   0.0047393
        k(  188) = (   0.1095238   0.1095238   0.0000000), wk =   0.0047393
        k(  189) = (   0.1047619   0.1047619   0.0000000), wk =   0.0047393
        k(  190) = (   0.1000000   0.1000000   0.0000000), wk =   0.0047393
        k(  191) = (   0.0952381   0.0952381   0.0000000), wk =   0.0047393
        k(  192) = (   0.0904762   0.0904762   0.0000000), wk =   0.0047393
        k(  193) = (   0.0857143   0.0857143   0.0000000), wk =   0.0047393
        k(  194) = (   0.0809524   0.0809524   0.0000000), wk =   0.0047393
        k(  195) = (   0.0761905   0.0761905   0.0000000), wk =   0.0047393
        k(  196) = (   0.0714286   0.0714286   0.0000000), wk =   0.0047393
        k(  197) = (   0.0666667   0.0666667   0.0000000), wk =   0.0047393
        k(  198) = (   0.0619048   0.0619048   0.0000000), wk =   0.0047393
        k(  199) = (   0.0571429   0.0571429   0.0000000), wk =   0.0047393
        k(  200) = (   0.0523810   0.0523810   0.0000000), wk =   0.0047393
        k(  201) = (   0.0476190   0.0476190   0.0000000), wk =   0.0047393
        k(  202) = (   0.0428571   0.0428571   0.0000000), wk =   0.0047393
        k(  203) = (   0.0380952   0.0380952   0.0000000), wk =   0.0047393
        k(  204) = (   0.0333333   0.0333333   0.0000000), wk =   0.0047393
        k(  205) = (   0.0285714   0.0285714   0.0000000), wk =   0.0047393
        k(  206) = (   0.0238095   0.0238095   0.0000000), wk =   0.0047393
        k(  207) = (   0.0190476   0.0190476   0.0000000), wk =   0.0047393
        k(  208) = (   0.0142857   0.0142857   0.0000000), wk =   0.0047393
        k(  209) = (   0.0095238   0.0095238   0.0000000), wk =   0.0047393
        k(  210) = (   0.0047619   0.0047619   0.0000000), wk =   0.0047393
        k(  211) = (   0.0000000   0.0000000   0.0000000), wk =   0.0047393

     Dense  grid:   463351 G-vectors     FFT dimensions: (  60,  60, 300)

     Smooth grid:   117389 G-vectors     FFT dimensions: (  40,  40, 192)

     Dynamical RAM for                 wfc:       1.86 MB

     Dynamical RAM for     wfc (w. buffer):       1.86 MB

     Dynamical RAM for           str. fact:       0.59 MB

     Dynamical RAM for           local pot:       0.00 MB

     Dynamical RAM for          nlocal pot:       1.58 MB

     Dynamical RAM for                qrad:       9.40 MB

     Dynamical RAM for          rho,v,vnew:       7.82 MB

     Dynamical RAM for           G-vectors:       1.14 MB

     Dynamical RAM for          h,s,v(r/c):       1.83 MB

     Dynamical RAM for          <psi|beta>:       0.52 MB

     Dynamical RAM for                 psi:       3.72 MB

     Dynamical RAM for                hpsi:       3.72 MB

     Dynamical RAM for                spsi:       3.72 MB

     Dynamical RAM for      wfcinit/wfcrot:       3.02 MB

     Dynamical RAM for           addusdens:     180.59 MB

     Estimated static dynamical RAM per process >      26.13 MB

     Estimated max dynamical RAM per process >     206.73 MB

     Estimated total dynamical RAM >       4.85 GB

     The potential is recalculated from file :
     tmp/Sb2Te3-uatsx-c6-soc-2.0.save/charge-density


     negative rho (up, down):  3.987E-06 0.000E+00
     Starting wfcs are   40 randomized atomic wfcs +   60 random wfcs

     Band Structure Calculation
     Davidson diagonalization with overlap

     Computing kpt #:     1  of   211
     total cpu time spent up to now is        7.1 secs

     Computing kpt #:     2  of   211
     total cpu time spent up to now is       12.0 secs

     Computing kpt #:     3  of   211
     total cpu time spent up to now is       16.9 secs

     Computing kpt #:     4  of   211
     total cpu time spent up to now is       21.8 secs

     Computing kpt #:     5  of   211
     total cpu time spent up to now is       26.5 secs

     Computing kpt #:     6  of   211
     total cpu time spent up to now is       31.1 secs

     Computing kpt #:     7  of   211
     total cpu time spent up to now is       36.0 secs

     Computing kpt #:     8  of   211
     total cpu time spent up to now is       41.1 secs

     Computing kpt #:     9  of   211
     total cpu time spent up to now is       46.1 secs

     Computing kpt #:    10  of   211
     total cpu time spent up to now is       51.3 secs

     Computing kpt #:    11  of   211
     total cpu time spent up to now is       56.7 secs

     Computing kpt #:    12  of   211
     total cpu time spent up to now is       61.6 secs

     Computing kpt #:    13  of   211
     total cpu time spent up to now is       66.6 secs

     Computing kpt #:    14  of   211
     total cpu time spent up to now is       71.7 secs

     Computing kpt #:    15  of   211
     total cpu time spent up to now is       76.7 secs

     Computing kpt #:    16  of   211
     total cpu time spent up to now is       81.7 secs

     Computing kpt #:    17  of   211
     total cpu time spent up to now is       86.5 secs

     Computing kpt #:    18  of   211
     total cpu time spent up to now is       91.2 secs

     Computing kpt #:    19  of   211
     total cpu time spent up to now is       95.9 secs

     Computing kpt #:    20  of   211
     total cpu time spent up to now is      100.7 secs

     Computing kpt #:    21  of   211
     total cpu time spent up to now is      105.3 secs

     Computing kpt #:    22  of   211
     total cpu time spent up to now is      110.1 secs

     Computing kpt #:    23  of   211
     total cpu time spent up to now is      114.7 secs

     Computing kpt #:    24  of   211
     total cpu time spent up to now is      119.5 secs

     Computing kpt #:    25  of   211
     total cpu time spent up to now is      124.6 secs

     Computing kpt #:    26  of   211
     total cpu time spent up to now is      129.7 secs

     Computing kpt #:    27  of   211
     total cpu time spent up to now is      134.6 secs

     Computing kpt #:    28  of   211
     total cpu time spent up to now is      139.6 secs

     Computing kpt #:    29  of   211
     total cpu time spent up to now is      144.6 secs

     Computing kpt #:    30  of   211
     total cpu time spent up to now is      149.5 secs

     Computing kpt #:    31  of   211
     total cpu time spent up to now is      154.3 secs

     Computing kpt #:    32  of   211
     total cpu time spent up to now is      159.2 secs

     Computing kpt #:    33  of   211
     total cpu time spent up to now is      164.1 secs

     Computing kpt #:    34  of   211
     total cpu time spent up to now is      169.0 secs

     Computing kpt #:    35  of   211
     total cpu time spent up to now is      173.9 secs

     Computing kpt #:    36  of   211
     total cpu time spent up to now is      178.8 secs

     Computing kpt #:    37  of   211
     total cpu time spent up to now is      183.8 secs

     Computing kpt #:    38  of   211
     total cpu time spent up to now is      188.7 secs

     Computing kpt #:    39  of   211
     total cpu time spent up to now is      194.0 secs

     Computing kpt #:    40  of   211
     total cpu time spent up to now is      199.2 secs

     Computing kpt #:    41  of   211
     total cpu time spent up to now is      204.5 secs

     Computing kpt #:    42  of   211
     total cpu time spent up to now is      209.9 secs

     Computing kpt #:    43  of   211
     total cpu time spent up to now is      215.2 secs

     Computing kpt #:    44  of   211
     total cpu time spent up to now is      220.6 secs

     Computing kpt #:    45  of   211
     total cpu time spent up to now is      226.5 secs

     Computing kpt #:    46  of   211
     total cpu time spent up to now is      233.0 secs

     Computing kpt #:    47  of   211
     total cpu time spent up to now is      238.9 secs

     Computing kpt #:    48  of   211
     total cpu time spent up to now is      245.1 secs

     Computing kpt #:    49  of   211
     c_bands:  1 eigenvalues not converged
     total cpu time spent up to now is      251.9 secs

     Computing kpt #:    50  of   211
     c_bands:  2 eigenvalues not converged
     total cpu time spent up to now is      258.8 secs

     Computing kpt #:    51  of   211
     total cpu time spent up to now is      265.0 secs

     Computing kpt #:    52  of   211
     total cpu time spent up to now is      270.6 secs

     Computing kpt #:    53  of   211
     total cpu time spent up to now is      276.1 secs

     Computing kpt #:    54  of   211
     total cpu time spent up to now is      281.8 secs

     Computing kpt #:    55  of   211
     total cpu time spent up to now is      287.7 secs

     Computing kpt #:    56  of   211
     total cpu time spent up to now is      293.7 secs

     Computing kpt #:    57  of   211
     total cpu time spent up to now is      299.7 secs

     Computing kpt #:    58  of   211
     total cpu time spent up to now is      306.2 secs

     Computing kpt #:    59  of   211
     total cpu time spent up to now is      312.4 secs

     Computing kpt #:    60  of   211
     total cpu time spent up to now is      319.0 secs

     Computing kpt #:    61  of   211
     total cpu time spent up to now is      325.7 secs

     Computing kpt #:    62  of   211
     total cpu time spent up to now is      332.1 secs

     Computing kpt #:    63  of   211
     total cpu time spent up to now is      338.8 secs

     Computing kpt #:    64  of   211
     total cpu time spent up to now is      345.1 secs

     Computing kpt #:    65  of   211
     total cpu time spent up to now is      351.6 secs

     Computing kpt #:    66  of   211
     total cpu time spent up to now is      358.0 secs

     Computing kpt #:    67  of   211
     total cpu time spent up to now is      364.7 secs

     Computing kpt #:    68  of   211
     total cpu time spent up to now is      371.2 secs

     Computing kpt #:    69  of   211
     total cpu time spent up to now is      377.7 secs

     Computing kpt #:    70  of   211
     total cpu time spent up to now is      384.4 secs

     Computing kpt #:    71  of   211
     total cpu time spent up to now is      390.9 secs

     Computing kpt #:    72  of   211
     total cpu time spent up to now is      397.6 secs

     Computing kpt #:    73  of   211
     total cpu time spent up to now is      404.3 secs

     Computing kpt #:    74  of   211
     total cpu time spent up to now is      411.6 secs

     Computing kpt #:    75  of   211
     c_bands:  2 eigenvalues not converged
     total cpu time spent up to now is      419.1 secs

     Computing kpt #:    76  of   211
     c_bands:  2 eigenvalues not converged
     total cpu time spent up to now is      426.5 secs

     Computing kpt #:    77  of   211
     c_bands:  2 eigenvalues not converged
     total cpu time spent up to now is      433.9 secs

     Computing kpt #:    78  of   211
     total cpu time spent up to now is      441.2 secs

     Computing kpt #:    79  of   211
     total cpu time spent up to now is      447.7 secs

     Computing kpt #:    80  of   211
     total cpu time spent up to now is      454.5 secs

     Computing kpt #:    81  of   211
     total cpu time spent up to now is      461.3 secs

     Computing kpt #:    82  of   211
     total cpu time spent up to now is      467.9 secs

     Computing kpt #:    83  of   211
     total cpu time spent up to now is      474.4 secs

     Computing kpt #:    84  of   211
     total cpu time spent up to now is      481.1 secs

     Computing kpt #:    85  of   211
     total cpu time spent up to now is      487.8 secs

     Computing kpt #:    86  of   211
     total cpu time spent up to now is      494.4 secs

     Computing kpt #:    87  of   211
     total cpu time spent up to now is      501.2 secs

     Computing kpt #:    88  of   211
     total cpu time spent up to now is      508.1 secs

     Computing kpt #:    89  of   211
     total cpu time spent up to now is      514.8 secs

     Computing kpt #:    90  of   211
     total cpu time spent up to now is      521.6 secs

     Computing kpt #:    91  of   211
     total cpu time spent up to now is      528.6 secs

     Computing kpt #:    92  of   211
     total cpu time spent up to now is      535.5 secs

     Computing kpt #:    93  of   211
     total cpu time spent up to now is      542.2 secs

     Computing kpt #:    94  of   211
     total cpu time spent up to now is      549.0 secs

     Computing kpt #:    95  of   211
     total cpu time spent up to now is      555.5 secs

     Computing kpt #:    96  of   211
     total cpu time spent up to now is      562.2 secs

     Computing kpt #:    97  of   211
     total cpu time spent up to now is      568.6 secs

     Computing kpt #:    98  of   211
     total cpu time spent up to now is      575.3 secs

     Computing kpt #:    99  of   211
     total cpu time spent up to now is      582.0 secs

     Computing kpt #:   100  of   211
     total cpu time spent up to now is      588.3 secs

     Computing kpt #:   101  of   211
     total cpu time spent up to now is      595.0 secs

     Computing kpt #:   102  of   211
     total cpu time spent up to now is      601.1 secs

     Computing kpt #:   103  of   211
     total cpu time spent up to now is      607.6 secs

     Computing kpt #:   104  of   211
     total cpu time spent up to now is      614.1 secs

     Computing kpt #:   105  of   211
     total cpu time spent up to now is      620.8 secs

     Computing kpt #:   106  of   211
     total cpu time spent up to now is      627.4 secs

     Computing kpt #:   107  of   211
     total cpu time spent up to now is      634.2 secs

     Computing kpt #:   108  of   211
     total cpu time spent up to now is      640.7 secs

     Computing kpt #:   109  of   211
     c_bands:  2 eigenvalues not converged
     total cpu time spent up to now is      647.9 secs

     Computing kpt #:   110  of   211
     total cpu time spent up to now is      654.8 secs

     Computing kpt #:   111  of   211
     total cpu time spent up to now is      661.3 secs

     Computing kpt #:   112  of   211
     total cpu time spent up to now is      667.7 secs

     Computing kpt #:   113  of   211
     total cpu time spent up to now is      674.0 secs

     Computing kpt #:   114  of   211
     total cpu time spent up to now is      680.2 secs

     Computing kpt #:   115  of   211
     total cpu time spent up to now is      686.0 secs

     Computing kpt #:   116  of   211
     total cpu time spent up to now is      691.5 secs

     Computing kpt #:   117  of   211
     total cpu time spent up to now is      697.1 secs

     Computing kpt #:   118  of   211
     total cpu time spent up to now is      702.8 secs

     Computing kpt #:   119  of   211
     total cpu time spent up to now is      708.3 secs

     Computing kpt #:   120  of   211
     total cpu time spent up to now is      713.8 secs

     Computing kpt #:   121  of   211
     total cpu time spent up to now is      719.3 secs

     Computing kpt #:   122  of   211
     total cpu time spent up to now is      724.7 secs

     Computing kpt #:   123  of   211
     total cpu time spent up to now is      730.2 secs

     Computing kpt #:   124  of   211
     total cpu time spent up to now is      735.6 secs

     Computing kpt #:   125  of   211
     total cpu time spent up to now is      741.1 secs

     Computing kpt #:   126  of   211
     total cpu time spent up to now is      746.8 secs

     Computing kpt #:   127  of   211
     total cpu time spent up to now is      752.4 secs

     Computing kpt #:   128  of   211
     total cpu time spent up to now is      757.8 secs

     Computing kpt #:   129  of   211
     total cpu time spent up to now is      763.2 secs

     Computing kpt #:   130  of   211
     total cpu time spent up to now is      768.6 secs

     Computing kpt #:   131  of   211
     total cpu time spent up to now is      774.1 secs

     Computing kpt #:   132  of   211
     total cpu time spent up to now is      779.5 secs

     Computing kpt #:   133  of   211
     total cpu time spent up to now is      785.1 secs

     Computing kpt #:   134  of   211
     total cpu time spent up to now is      790.5 secs

     Computing kpt #:   135  of   211
     total cpu time spent up to now is      795.9 secs

     Computing kpt #:   136  of   211
     total cpu time spent up to now is      801.3 secs

     Computing kpt #:   137  of   211
     total cpu time spent up to now is      806.7 secs

     Computing kpt #:   138  of   211
     total cpu time spent up to now is      812.2 secs

     Computing kpt #:   139  of   211
     total cpu time spent up to now is      817.8 secs

     Computing kpt #:   140  of   211
     total cpu time spent up to now is      824.1 secs

     Computing kpt #:   141  of   211
     c_bands:  2 eigenvalues not converged
     total cpu time spent up to now is      830.8 secs

     Computing kpt #:   142  of   211
     total cpu time spent up to now is      837.3 secs

     Computing kpt #:   143  of   211
     total cpu time spent up to now is      843.7 secs

     Computing kpt #:   144  of   211
     total cpu time spent up to now is      849.6 secs

     Computing kpt #:   145  of   211
     total cpu time spent up to now is      855.4 secs

     Computing kpt #:   146  of   211
     total cpu time spent up to now is      860.8 secs

     Computing kpt #:   147  of   211
     total cpu time spent up to now is      866.6 secs

     Computing kpt #:   148  of   211
     total cpu time spent up to now is      872.0 secs

     Computing kpt #:   149  of   211
     total cpu time spent up to now is      877.4 secs

     Computing kpt #:   150  of   211
     total cpu time spent up to now is      882.7 secs

     Computing kpt #:   151  of   211
     total cpu time spent up to now is      887.8 secs

     Computing kpt #:   152  of   211
     total cpu time spent up to now is      892.9 secs

     Computing kpt #:   153  of   211
     total cpu time spent up to now is      898.0 secs

     Computing kpt #:   154  of   211
     total cpu time spent up to now is      903.0 secs

     Computing kpt #:   155  of   211
     total cpu time spent up to now is      908.0 secs

     Computing kpt #:   156  of   211
     total cpu time spent up to now is      913.2 secs

     Computing kpt #:   157  of   211
     total cpu time spent up to now is      918.5 secs

     Computing kpt #:   158  of   211
     total cpu time spent up to now is      924.5 secs

     Computing kpt #:   159  of   211
     total cpu time spent up to now is      929.8 secs

     Computing kpt #:   160  of   211
     total cpu time spent up to now is      935.1 secs

     Computing kpt #:   161  of   211
     total cpu time spent up to now is      940.1 secs

     Computing kpt #:   162  of   211
     total cpu time spent up to now is      945.1 secs

     Computing kpt #:   163  of   211
     total cpu time spent up to now is      950.9 secs

     Computing kpt #:   164  of   211
     total cpu time spent up to now is      956.8 secs

     Computing kpt #:   165  of   211
     total cpu time spent up to now is      962.0 secs

     Computing kpt #:   166  of   211
     total cpu time spent up to now is      967.0 secs

     Computing kpt #:   167  of   211
     total cpu time spent up to now is      971.9 secs

     Computing kpt #:   168  of   211
     total cpu time spent up to now is      977.1 secs

     Computing kpt #:   169  of   211
     total cpu time spent up to now is      982.5 secs

     Computing kpt #:   170  of   211
     total cpu time spent up to now is      988.3 secs

     Computing kpt #:   171  of   211
     total cpu time spent up to now is      993.6 secs

     Computing kpt #:   172  of   211
     total cpu time spent up to now is      998.9 secs

     Computing kpt #:   173  of   211
     total cpu time spent up to now is     1004.2 secs

     Computing kpt #:   174  of   211
     total cpu time spent up to now is     1009.5 secs

     Computing kpt #:   175  of   211
     total cpu time spent up to now is     1014.8 secs

     Computing kpt #:   176  of   211
     total cpu time spent up to now is     1020.2 secs

     Computing kpt #:   177  of   211
     total cpu time spent up to now is     1025.6 secs

     Computing kpt #:   178  of   211
     total cpu time spent up to now is     1031.0 secs

     Computing kpt #:   179  of   211
     total cpu time spent up to now is     1036.3 secs

     Computing kpt #:   180  of   211
     total cpu time spent up to now is     1041.3 secs

     Computing kpt #:   181  of   211
     total cpu time spent up to now is     1046.5 secs

     Computing kpt #:   182  of   211
     total cpu time spent up to now is     1051.8 secs

     Computing kpt #:   183  of   211
     total cpu time spent up to now is     1057.2 secs

     Computing kpt #:   184  of   211
     total cpu time spent up to now is     1062.4 secs

     Computing kpt #:   185  of   211
     total cpu time spent up to now is     1067.5 secs

     Computing kpt #:   186  of   211
     total cpu time spent up to now is     1072.4 secs

     Computing kpt #:   187  of   211
     total cpu time spent up to now is     1077.3 secs

     Computing kpt #:   188  of   211
     total cpu time spent up to now is     1082.3 secs

     Computing kpt #:   189  of   211
     total cpu time spent up to now is     1087.1 secs

     Computing kpt #:   190  of   211
     total cpu time spent up to now is     1091.9 secs

     Computing kpt #:   191  of   211
     total cpu time spent up to now is     1096.7 secs

     Computing kpt #:   192  of   211
     total cpu time spent up to now is     1101.8 secs

     Computing kpt #:   193  of   211
     total cpu time spent up to now is     1107.1 secs

     Computing kpt #:   194  of   211
     total cpu time spent up to now is     1112.2 secs

     Computing kpt #:   195  of   211
     total cpu time spent up to now is     1117.2 secs

     Computing kpt #:   196  of   211
     total cpu time spent up to now is     1122.1 secs

     Computing kpt #:   197  of   211
     total cpu time spent up to now is     1127.2 secs

     Computing kpt #:   198  of   211
     c_bands:  2 eigenvalues not converged
     total cpu time spent up to now is     1133.5 secs

     Computing kpt #:   199  of   211
     total cpu time spent up to now is     1138.6 secs

     Computing kpt #:   200  of   211
     total cpu time spent up to now is     1143.7 secs

     Computing kpt #:   201  of   211
     total cpu time spent up to now is     1148.2 secs

     Computing kpt #:   202  of   211
     total cpu time spent up to now is     1152.8 secs

     Computing kpt #:   203  of   211
     total cpu time spent up to now is     1157.5 secs

     Computing kpt #:   204  of   211
     total cpu time spent up to now is     1162.5 secs

     Computing kpt #:   205  of   211
     total cpu time spent up to now is     1167.4 secs

     Computing kpt #:   206  of   211
     total cpu time spent up to now is     1172.4 secs

     Computing kpt #:   207  of   211
     total cpu time spent up to now is     1177.0 secs

     Computing kpt #:   208  of   211
     total cpu time spent up to now is     1181.9 secs

     Computing kpt #:   209  of   211
     total cpu time spent up to now is     1186.8 secs

     Computing kpt #:   210  of   211
     total cpu time spent up to now is     1191.7 secs

     Computing kpt #:   211  of   211
     total cpu time spent up to now is     1196.4 secs

     ethr =  3.57E-10,  avg # of iterations = 73.1

     total cpu time spent up to now is     1196.4 secs

     End of band structure calculation

          k = 0.0000 0.0000 0.0000 ( 14667 PWs)   bands (ev):

   -12.5882 -12.5882 -12.0611 -12.0611 -10.9731 -10.9731  -8.2298  -8.2298
    -6.8361  -6.8361  -2.4610  -2.4610  -1.9913  -1.9913  -1.7188  -1.7188
    -1.4601  -1.4601  -1.3884  -1.3884  -1.2823  -1.2823  -1.0309  -1.0309
    -0.6892  -0.6892  -0.5417  -0.5417   0.1460   0.1460   0.7750   0.7750
     1.1169   1.1169   1.3408   1.3408   2.0837   2.0837   2.2322   2.2322
     4.2248   4.2248   4.4218   4.4218   5.0132   5.0132   5.5765   5.5765
     5.6218   5.6218   5.8773   5.8773   6.4360   6.4360   6.6628   6.6628
     6.7946   6.7946   6.9201   6.9201   7.2040   7.2040   7.6516   7.6516
     7.7570   7.7570   8.0713   8.0713   8.1501   8.1501   8.5899   8.5899
     9.1049   9.1049   9.3821   9.3821   9.5387   9.5387   9.5930   9.5930
     9.7488   9.7488  10.8684  10.8684  10.8892  10.8892  11.9462  11.9462
    12.1891  12.1891  12.2150  12.2150  12.3207  12.3207  12.4537  12.4537
    13.1130  13.1130  13.7930  13.7930

          k = 0.0071 0.0041 0.0000 ( 14665 PWs)   bands (ev):

   -12.5877 -12.5877 -12.0607 -12.0607 -10.9728 -10.9728  -8.2298  -8.2298
    -6.8368  -6.8368  -2.4617  -2.4617  -1.9976  -1.9972  -1.7181  -1.7177
    -1.4632  -1.4629  -1.4030  -1.4020  -1.2725  -1.2713  -1.0279  -1.0276
    -0.6925  -0.6923  -0.5386  -0.5385   0.1521   0.1523   0.7746   0.7748
     1.1109   1.1112   1.3472   1.3476   2.0860   2.0861   2.2318   2.2318
     4.2256   4.2256   4.4220   4.4220   5.0134   5.0134   5.5742   5.5742
     5.6209   5.6210   5.8777   5.8777   6.4389   6.4389   6.6616   6.6619
     6.7927   6.7932   6.9198   6.9200   7.2028   7.2028   7.6574   7.6574
     7.7593   7.7593   8.0699   8.0699   8.1526   8.1527   8.5922   8.5922
     9.1042   9.1042   9.3752   9.3755   9.5061   9.5066   9.6290   9.6293
     9.7565   9.7567  10.8672  10.8672  10.8911  10.8911  11.9321  11.9321
    12.1726  12.1729  12.2261  12.2265  12.3347  12.3349  12.4577  12.4578
    13.1162  13.1162  13.7716  13.7716

          k = 0.0143 0.0082 0.0000 ( 14659 PWs)   bands (ev):

   -12.5864 -12.5864 -12.0596 -12.0596 -10.9721 -10.9721  -8.2300  -8.2300
    -6.8392  -6.8392  -2.4639  -2.4638  -2.0153  -2.0146  -1.7163  -1.7155
    -1.4758  -1.4749  -1.4306  -1.4294  -1.2529  -1.2512  -1.0189  -1.0184
    -0.7021  -0.7017  -0.5290  -0.5288   0.1700   0.1703   0.7735   0.7738
     1.0957   1.0962   1.3648   1.3655   2.0928   2.0931   2.2307   2.2308
     4.2279   4.2279   4.4225   4.4225   5.0141   5.0142   5.5671   5.5671
     5.6190   5.6190   5.8788   5.8788   6.4473   6.4473   6.6581   6.6587
     6.7873   6.7883   6.9202   6.9206   7.1995   7.1995   7.6741   7.6741
     7.7661   7.7662   8.0661   8.0661   8.1603   8.1604   8.5990   8.5991
     9.1017   9.1018   9.3561   9.3567   9.4618   9.4624   9.6846   9.6850
     9.7788   9.7791  10.8641  10.8641  10.8961  10.8961  11.8958  11.8959
    12.1372  12.1373  12.2513  12.2517  12.3646  12.3649  12.4717  12.4718
    13.1243  13.1243  13.7185  13.7186

          k = 0.0214 0.0124 0.0000 ( 14651 PWs)   bands (ev):

   -12.5843 -12.5843 -12.0576 -12.0576 -10.9709 -10.9709  -8.2304  -8.2304
    -6.8431  -6.8430  -2.4676  -2.4675  -2.0429  -2.0420  -1.7147  -1.7137
    -1.5065  -1.5049  -1.4506  -1.4495  -1.2352  -1.2333  -1.0049  -1.0042
    -0.7167  -0.7161  -0.5121  -0.5118   0.1975   0.1980   0.7716   0.7720
     1.0765   1.0772   1.3889   1.3898   2.1039   2.1042   2.2293   2.2295
     4.2318   4.2319   4.4233   4.4233   5.0152   5.0153   5.5543   5.5543
     5.6171   5.6172   5.8811   5.8811   6.4605   6.4605   6.6518   6.6526
     6.7782   6.7795   6.9235   6.9240   7.1946   7.1946   7.6990   7.6991
     7.7773   7.7773   8.0608   8.0608   8.1731   8.1732   8.6107   8.6107
     9.0961   9.0963   9.3286   9.3293   9.4232   9.4238   9.7416   9.7422
     9.8135   9.8140  10.8602  10.8602  10.9032  10.9032  11.8474  11.8475
    12.0953  12.0954  12.2775  12.2779  12.3988  12.3991  12.4983  12.4985
    13.1323  13.1324  13.6547  13.6548

          k = 0.0286 0.0165 0.0000 ( 14645 PWs)   bands (ev):

   -12.5813 -12.5813 -12.0548 -12.0548 -10.9692 -10.9692  -8.2308  -8.2308
    -6.8485  -6.8485  -2.4728  -2.4727  -2.0785  -2.0774  -1.7153  -1.7141
    -1.5505  -1.5486  -1.4625  -1.4616  -1.2233  -1.2213  -0.9882  -0.9872
    -0.7331  -0.7324  -0.4883  -0.4879   0.2319   0.2325   0.7689   0.7693
     1.0581   1.0587   1.4160   1.4170   2.1184   2.1188   2.2284   2.2287
     4.2373   4.2374   4.4244   4.4245   5.0166   5.0166   5.5357   5.5357
     5.6161   5.6162   5.8848   5.8849   6.4775   6.4775   6.6414   6.6424
     6.7668   6.7682   6.9315   6.9319   7.1889   7.1889   7.7285   7.7286
     7.7923   7.7924   8.0557   8.0557   8.1909   8.1910   8.6274   8.6275
     9.0850   9.0852   9.2981   9.2988   9.3920   9.3925   9.7968   9.7975
     9.8586   9.8593  10.8558  10.8559  10.9121  10.9121  11.7936  11.7937
    12.0516  12.0516  12.2964  12.2967  12.4370  12.4372  12.5361  12.5363
    13.1315  13.1316  13.5986  13.5987

          k = 0.0357 0.0206 0.0000 ( 14656 PWs)   bands (ev):

   -12.5774 -12.5774 -12.0513 -12.0513 -10.9671 -10.9671  -8.2315  -8.2315
    -6.8555  -6.8555  -2.4797  -2.4796  -2.1206  -2.1194  -1.7193  -1.7180
    -1.5990  -1.5971  -1.4730  -1.4722  -1.2182  -1.2162  -0.9720  -0.9709
    -0.7464  -0.7456  -0.4590  -0.4585   0.2701   0.2708   0.7658   0.7662
     1.0436   1.0443   1.4437   1.4448   2.1346   2.1351   2.2295   2.2299
     4.2443   4.2443   4.4258   4.4259   5.0180   5.0181   5.5122   5.5122
     5.6159   5.6159   5.8904   5.8905   6.4969   6.4969   6.6259   6.6270
     6.7558   6.7573   6.9443   6.9447   7.1830   7.1831   7.7580   7.7581
     7.8106   7.8107   8.0536   8.0536   8.2138   8.2139   8.6494   8.6495
     9.0664   9.0666   9.2696   9.2701   9.3680   9.3684   9.8494   9.8502
     9.9116   9.9123  10.8510  10.8510  10.9226  10.9227  11.7379  11.7380
    12.0078  12.0079  12.3074  12.3076  12.4799  12.4801  12.5803  12.5804
    13.1112  13.1113  13.5647  13.5647

          k = 0.0429 0.0247 0.0000 ( 14656 PWs)   bands (ev):

   -12.5727 -12.5727 -12.0470 -12.0470 -10.9645 -10.9645  -8.2323  -8.2323
    -6.8640  -6.8640  -2.4884  -2.4882  -2.1678  -2.1665  -1.7278  -1.7266
    -1.6484  -1.6464  -1.4840  -1.4833  -1.2201  -1.2182  -0.9602  -0.9590
    -0.7515  -0.7506  -0.4259  -0.4254   0.3086   0.3094   0.7636   0.7640
     1.0353   1.0359   1.4707   1.4719   2.1497   2.1503   2.2354   2.2359
     4.2527   4.2527   4.4275   4.4276   5.0193   5.0193   5.4850   5.4850
     5.6163   5.6164   5.8980   5.8980   6.5168   6.5168   6.6055   6.6066
     6.7481   6.7495   6.9615   6.9618   7.1776   7.1776   7.7821   7.7822
     7.8316   7.8318   8.0582   8.0583   8.2416   8.2417   8.6769   8.6770
     9.0396   9.0398   9.2452   9.2456   9.3514   9.3517   9.9006   9.9014
     9.9688   9.9696  10.8457  10.8457  10.9349  10.9350  11.6828  11.6829
    11.9648  11.9648  12.3143  12.3145  12.5252  12.5253  12.6260  12.6262
    13.0672  13.0673  13.5584  13.5585

          k = 0.0500 0.0289 0.0000 ( 14654 PWs)   bands (ev):

   -12.5671 -12.5671 -12.0419 -12.0419 -10.9615 -10.9615  -8.2332  -8.2332
    -6.8741  -6.8741  -2.4990  -2.4989  -2.2190  -2.2176  -1.7431  -1.7421
    -1.6953  -1.6932  -1.4962  -1.4957  -1.2291  -1.2273  -0.9544  -0.9533
    -0.7449  -0.7440  -0.3912  -0.3907   0.3442   0.3452   0.7648   0.7650
     1.0342   1.0346   1.4964   1.4977   2.1601   2.1608   2.2497   2.2501
     4.2625   4.2626   4.4294   4.4295   5.0199   5.0200   5.4556   5.4557
     5.6172   5.6172   5.9076   5.9076   6.5321   6.5321   6.5856   6.5865
     6.7445   6.7456   6.9821   6.9824   7.1730   7.1730   7.7959   7.7959
     7.8552   7.8553   8.0735   8.0736   8.2741   8.2742   8.7100   8.7101
     9.0064   9.0067   9.2244   9.2247   9.3422   9.3424   9.9514   9.9522
    10.0273  10.0280  10.8400  10.8400  10.9489  10.9490  11.6299  11.6300
    11.9230  11.9231  12.3206  12.3207  12.5695  12.5696  12.6677  12.6679
    13.0082  13.0083  13.5723  13.5724

          k = 0.0571 0.0330 0.0000 ( 14649 PWs)   bands (ev):

   -12.5607 -12.5607 -12.0361 -12.0361 -10.9579 -10.9579  -8.2344  -8.2344
    -6.8857  -6.8857  -2.5120  -2.5119  -2.2732  -2.2716  -1.7721  -1.7713
    -1.7317  -1.7300  -1.5104  -1.5099  -1.2451  -1.2435  -0.9530  -0.9520
    -0.7273  -0.7265  -0.3570  -0.3565   0.3742   0.3752   0.7721   0.7724
     1.0403   1.0406   1.5205   1.5218   2.1647   2.1654   2.2731   2.2736
     4.2736   4.2737   4.4314   4.4315   5.0195   5.0195   5.4256   5.4256
     5.6182   5.6183   5.9192   5.9192   6.5260   6.5264   6.5841   6.5845
     6.7441   6.7451   7.0055   7.0057   7.1698   7.1698   7.7972   7.7973
     7.8809   7.8809   8.1009   8.1011   8.3105   8.3106   8.7486   8.7488
     8.9698   8.9701   9.2061   9.2063   9.3395   9.3396  10.0024  10.0030
    10.0850  10.0856  10.8339  10.8339  10.9645  10.9645  11.5807  11.5808
    11.8828  11.8829  12.3282  12.3283  12.6090  12.6091  12.6948  12.6950
    12.9543  12.9544  13.5909  13.5910

          k = 0.0643 0.0371 0.0000 ( 14648 PWs)   bands (ev):

   -12.5534 -12.5534 -12.0294 -12.0294 -10.9540 -10.9540  -8.2357  -8.2357
    -6.8989  -6.8989  -2.5281  -2.5280  -2.3290  -2.3272  -1.8163  -1.8150
    -1.7559  -1.7546  -1.5270  -1.5265  -1.2672  -1.2657  -0.9529  -0.9520
    -0.7017  -0.7010  -0.3257  -0.3252   0.3972   0.3983   0.7879   0.7883
     1.0532   1.0534   1.5431   1.5445   2.1657   2.1663   2.3035   2.3039
     4.2860   4.2862   4.4336   4.4337   5.0172   5.0173   5.3963   5.3963
     5.6195   5.6195   5.9328   5.9328   6.5004   6.5009   6.6006   6.6008
     6.7459   6.7467   7.0311   7.0313   7.1686   7.1686   7.7882   7.7883
     7.9079   7.9079   8.1389   8.1391   8.3500   8.3501   8.7923   8.7925
     8.9333   8.9337   9.1900   9.1902   9.3417   9.3418  10.0534  10.0540
    10.1403  10.1409  10.8277  10.8277  10.9813  10.9814  11.5368  11.5369
    11.8446  11.8447  12.3374  12.3375  12.6321  12.6324  12.6956  12.6958
    12.9340  12.9340  13.5938  13.5939

          k = 0.0714 0.0412 0.0000 ( 14642 PWs)   bands (ev):

   -12.5453 -12.5453 -12.0220 -12.0220 -10.9495 -10.9495  -8.2373  -8.2373
    -6.9136  -6.9136  -2.5485  -2.5482  -2.3847  -2.3827  -1.8653  -1.8638
    -1.7773  -1.7761  -1.5467  -1.5461  -1.2937  -1.2924  -0.9517  -0.9509
    -0.6714  -0.6707  -0.2995  -0.2990   0.4143   0.4155   0.8122   0.8129
     1.0723   1.0726   1.5644   1.5658   2.1653   2.1661   2.3381   2.3385
     4.2996   4.2998   4.4358   4.4360   5.0125   5.0125   5.3693   5.3693
     5.6208   5.6209   5.9483   5.9483   6.4707   6.4712   6.6210   6.6212
     6.7486   6.7493   7.0582   7.0584   7.1701   7.1702   7.7723   7.7724
     7.9356   7.9356   8.1844   8.1847   8.3911   8.3911   8.8370   8.8375
     8.9028   8.9034   9.1767   9.1769   9.3471   9.3473  10.1040  10.1046
    10.1922  10.1927  10.8217  10.8217  10.9989  10.9989  11.4997  11.4999
    11.8088  11.8088  12.3459  12.3460  12.6026  12.6028  12.7032  12.7033
    12.9556  12.9556  13.5630  13.5632

          k = 0.0786 0.0454 0.0000 ( 14641 PWs)   bands (ev):

   -12.5363 -12.5363 -12.0138 -12.0138 -10.9447 -10.9447  -8.2391  -8.2391
    -6.9298  -6.9298  -2.5755  -2.5750  -2.4374  -2.4351  -1.9155  -1.9139
    -1.7988  -1.7977  -1.5698  -1.5691  -1.3225  -1.3215  -0.9488  -0.9481
    -0.6384  -0.6377  -0.2806  -0.2801   0.4285   0.4296   0.8435   0.8444
     1.0970   1.0974   1.5849   1.5863   2.1654   2.1662   2.3752   2.3756
     4.3143   4.3145   4.4379   4.4381   5.0044   5.0044   5.3461   5.3462
     5.6223   5.6224   5.9655   5.9655   6.4415   6.4419   6.6417   6.6418
     6.7511   6.7516   7.0858   7.0860   7.1756   7.1757   7.7527   7.7528
     7.9634   7.9635   8.2350   8.2353   8.4321   8.4321   8.8497   8.8499
     8.9139   8.9143   9.1671   9.1672   9.3546   9.3547  10.1539  10.1544
    10.2396  10.2400  10.8165  10.8165  11.0165  11.0165  11.4711  11.4712
    11.7757  11.7757  12.3446  12.3447  12.5444  12.5446  12.7229  12.7230
    12.9998  12.9998  13.4986  13.4987

          k = 0.0857 0.0495 0.0000 ( 14641 PWs)   bands (ev):

   -12.5264 -12.5264 -12.0049 -12.0049 -10.9394 -10.9394  -8.2412  -8.2412
    -6.9476  -6.9475  -2.6123  -2.6117  -2.4834  -2.4809  -1.9662  -1.9646
    -1.8210  -1.8201  -1.5966  -1.5957  -1.3518  -1.3509  -0.9443  -0.9437
    -0.6043  -0.6036  -0.2706  -0.2700   0.4433   0.4444   0.8792   0.8802
     1.1263   1.1269   1.6052   1.6066   2.1669   2.1677   2.4137   2.4141
     4.3300   4.3302   4.4398   4.4400   4.9924   4.9924   5.3280   5.3281
     5.6240   5.6240   5.9845   5.9846   6.4143   6.4147   6.6618   6.6620
     6.7522   6.7527   7.1119   7.1120   7.1872   7.1873   7.7318   7.7318
     7.9908   7.9908   8.2887   8.2890   8.4707   8.4707   8.8299   8.8300
     8.9685   8.9687   9.1622   9.1624   9.3632   9.3633  10.2021  10.2027
    10.2816  10.2821  10.8126  10.8126  11.0335  11.0336  11.4522  11.4524
    11.7458  11.7459  12.3120  12.3121  12.5091  12.5092  12.7385  12.7385
    13.0525  13.0526  13.4124  13.4125

          k = 0.0929 0.0536 0.0000 ( 14631 PWs)   bands (ev):

   -12.5158 -12.5158 -11.9952 -11.9952 -10.9337 -10.9337  -8.2435  -8.2435
    -6.9668  -6.9668  -2.6604  -2.6599  -2.5205  -2.5181  -2.0173  -2.0157
    -1.8438  -1.8430  -1.6270  -1.6259  -1.3800  -1.3793  -0.9388  -0.9383
    -0.5701  -0.5694  -0.2701  -0.2694   0.4615   0.4625   0.9170   0.9181
     1.1592   1.1599   1.6261   1.6275   2.1707   2.1715   2.4527   2.4530
     4.3465   4.3468   4.4412   4.4415   4.9763   4.9764   5.3156   5.3157
     5.6258   5.6259   6.0052   6.0052   6.3901   6.3904   6.6810   6.6811
     6.7515   6.7520   7.1340   7.1341   7.2074   7.2076   7.7112   7.7112
     8.0173   8.0173   8.3440   8.3443   8.5041   8.5041   8.8151   8.8152
     9.0305   9.0306   9.1638   9.1639   9.3726   9.3727  10.2476  10.2481
    10.3180  10.3184  10.8107  10.8107  11.0495  11.0496  11.4441  11.4442
    11.7198  11.7199  12.2404  12.2405  12.5134  12.5135  12.7466  12.7466
    13.1057  13.1058  13.3172  13.3173

          k = 0.1000 0.0577 0.0000 ( 14634 PWs)   bands (ev):

   -12.5042 -12.5042 -11.9848 -11.9848 -10.9276 -10.9276  -8.2462  -8.2461
    -6.9876  -6.9875  -2.7178  -2.7174  -2.5504  -2.5482  -2.0688  -2.0672
    -1.8671  -1.8664  -1.6605  -1.6591  -1.4064  -1.4058  -0.9329  -0.9325
    -0.5369  -0.5361  -0.2786  -0.2778   0.4843   0.4852   0.9557   0.9568
     1.1939   1.1946   1.6487   1.6501   2.1773   2.1782   2.4914   2.4918
     4.3637   4.3639   4.4421   4.4424   4.9569   4.9570   5.3091   5.3091
     5.6281   5.6282   6.0275   6.0275   6.3694   6.3697   6.6983   6.6985
     6.7489   6.7493   7.1519   7.1520   7.2365   7.2366   7.6922   7.6922
     8.0424   8.0424   8.3987   8.3991   8.5296   8.5298   8.8131   8.8132
     9.0913   9.0915   9.1763   9.1764   9.3830   9.3831  10.2882  10.2887
    10.3493  10.3497  10.8113  10.8113  11.0649  11.0650  11.4463  11.4465
    11.6983  11.6984  12.1498  12.1499  12.5408  12.5409  12.7467  12.7467
    13.1371  13.1373  13.2380  13.2380

          k = 0.1071 0.0619 0.0000 ( 14644 PWs)   bands (ev):

   -12.4919 -12.4919 -11.9736 -11.9736 -10.9211 -10.9211  -8.2492  -8.2491
    -7.0098  -7.0098  -2.7808  -2.7806  -2.5764  -2.5743  -2.1208  -2.1192
    -1.8910  -1.8904  -1.6961  -1.6946  -1.4307  -1.4301  -0.9271  -0.9267
    -0.5062  -0.5053  -0.2942  -0.2932   0.5117   0.5125   0.9946   0.9956
     1.2283   1.2292   1.6740   1.6754   2.1874   2.1882   2.5294   2.5298
     4.3809   4.3812   4.4423   4.4427   4.9352   4.9352   5.3079   5.3080
     5.6310   5.6310   6.0513   6.0513   6.3525   6.3528   6.7112   6.7114
     6.7468   6.7473   7.1678   7.1679   7.2718   7.2719   7.6758   7.6759
     8.0657   8.0657   8.4490   8.4494   8.5479   8.5481   8.8273   8.8274
     9.1373   9.1376   9.2120   9.2121   9.3952   9.3953  10.3203  10.3206
    10.3783  10.3786  10.8147  10.8148  11.0809  11.0809  11.4571  11.4573
    11.6820  11.6821  12.0541  12.0542  12.5797  12.5797  12.7391  12.7392
    13.0735  13.0736  13.2381  13.2382

          k = 0.1143 0.0660 0.0000 ( 14640 PWs)   bands (ev):

   -12.4787 -12.4787 -11.9616 -11.9616 -10.9142 -10.9142  -8.2525  -8.2525
    -7.0335  -7.0335  -2.8472  -2.8471  -2.6004  -2.5985  -2.1734  -2.1719
    -1.9156  -1.9150  -1.7328  -1.7312  -1.4530  -1.4523  -0.9218  -0.9215
    -0.4806  -0.4795  -0.3130  -0.3118   0.5425   0.5432   1.0337   1.0347
     1.2608   1.2617   1.7030   1.7043   2.2011   2.2020   2.5663   2.5666
     4.3970   4.3974   4.4426   4.4430   4.9127   4.9128   5.3114   5.3114
     5.6346   5.6346   6.0766   6.0766   6.3397   6.3400   6.7122   6.7123
     6.7526   6.7529   7.1842   7.1842   7.3106   7.3107   7.6629   7.6629
     8.0870   8.0870   8.4860   8.4863   8.5680   8.5681   8.8569   8.8570
     9.1654   9.1657   9.2720   9.2721   9.4113   9.4113  10.3398  10.3400
    10.4082  10.4084  10.8210  10.8211  11.0990  11.0991  11.4729  11.4731
    11.6714  11.6715  11.9602  11.9603  12.6252  12.6253  12.7251  12.7252
    12.9709  12.9710  13.1801  13.1801

          k = 0.1214 0.0701 0.0000 ( 14633 PWs)   bands (ev):

   -12.4647 -12.4647 -11.9490 -11.9490 -10.9069 -10.9069  -8.2563  -8.2563
    -7.0586  -7.0586  -2.9154  -2.9153  -2.6236  -2.6218  -2.2267  -2.2252
    -1.9411  -1.9406  -1.7695  -1.7679  -1.4734  -1.4727  -0.9176  -0.9171
    -0.4658  -0.4646  -0.3280  -0.3266   0.5755   0.5761   1.0732   1.0742
     1.2898   1.2907   1.7362   1.7374   2.2191   2.2198   2.6017   2.6020
     4.4083   4.4088   4.4458   4.4463   4.8912   4.8913   5.3186   5.3186
     5.6392   5.6392   6.1034   6.1034   6.3312   6.3315   6.7011   6.7012
     6.7663   6.7665   7.2021   7.2021   7.3508   7.3509   7.6541   7.6541
     8.1061   8.1061   8.5004   8.5005   8.6016   8.6017   8.8985   8.8986
     9.1906   9.1908   9.3368   9.3369   9.4362   9.4363  10.3474  10.3475
    10.4386  10.4386  10.8296  10.8298  11.1211  11.1211  11.4873  11.4876
    11.6664  11.6666  11.8753  11.8754  12.6720  12.6722  12.7083  12.7085
    12.8645  12.8646  13.0744  13.0744

          k = 0.1286 0.0742 0.0000 ( 14635 PWs)   bands (ev):

   -12.4498 -12.4498 -11.9356 -11.9356 -10.8993 -10.8993  -8.2605  -8.2604
    -7.0852  -7.0851  -2.9845  -2.9844  -2.6465  -2.6448  -2.2807  -2.2792
    -1.9678  -1.9673  -1.8054  -1.8036  -1.4921  -1.4914  -0.9146  -0.9142
    -0.4699  -0.4687  -0.3296  -0.3282   0.6091   0.6096   1.1134   1.1142
     1.3149   1.3158   1.7735   1.7745   2.2414   2.2421   2.6353   2.6356
     4.4093   4.4096   4.4571   4.4573   4.8721   4.8722   5.3288   5.3289
     5.6450   5.6450   6.1316   6.1316   6.3270   6.3273   6.6839   6.6840
     6.7825   6.7826   7.2222   7.2222   7.3910   7.3911   7.6501   7.6501
     8.1229   8.1229   8.5006   8.5007   8.6431   8.6432   8.9482   8.9483
     9.2190   9.2192   9.3905   9.3906   9.4802   9.4803  10.3461  10.3462
    10.4666  10.4667  10.8404  10.8406  11.1480  11.1480  11.4900  11.4903
    11.6648  11.6649  11.8118  11.8120  12.6732  12.6733  12.7269  12.7270
    12.7677  12.7677  12.9645  12.9645

          k = 0.1357 0.0784 0.0000 ( 14640 PWs)   bands (ev):

   -12.4342 -12.4342 -11.9214 -11.9214 -10.8914 -10.8914  -8.2651  -8.2651
    -7.1131  -7.1131  -3.0541  -3.0539  -2.6692  -2.6675  -2.3353  -2.3339
[...]
     9.1520   9.1521   9.3661   9.3662   9.6590   9.6591  10.4929  10.4930
    10.5528  10.5528  10.9463  10.9465  11.1569  11.1570  11.4329  11.4331
    11.6282  11.6283  11.8625  11.8627  12.2247  12.2248  12.8914  12.8915
    12.9516  12.9517  13.1483  13.1484

          k = 0.0762 0.1337 0.0000 ( 14643 PWs)   bands (ev):

   -12.4397 -12.4396 -11.9259 -11.9259 -10.8929 -10.8929  -8.2585  -8.2585
    -7.0902  -7.0901  -2.9304  -2.9302  -2.6548  -2.6531  -2.4391  -2.4381
    -2.0210  -2.0197  -1.7059  -1.7051  -1.4878  -1.4865  -1.1122  -1.1116
    -0.4225  -0.4216  -0.3000  -0.2990   0.6661   0.6675   0.9921   0.9925
     1.2765   1.2774   1.9182   1.9195   2.2350   2.2357   2.6660   2.6663
     4.4539   4.4551   4.4723   4.4734   4.9231   4.9231   5.1933   5.1933
     5.6414   5.6414   6.1603   6.1603   6.4596   6.4607   6.5625   6.5636
     6.7747   6.7748   7.0395   7.0396   7.5013   7.5014   7.8406   7.8407
     8.0942   8.0945   8.4205   8.4206   8.7754   8.7755   8.9847   8.9847
     9.1716   9.1717   9.3017   9.3018   9.5788   9.5788  10.4725  10.4727
    10.5155  10.5155  10.9507  10.9510  11.1043  11.1045  11.3947  11.3948
    11.6435  11.6437  11.9412  11.9413  12.3054  12.3056  12.8668  12.8668
    13.0436  13.0437  13.1408  13.1408

          k = 0.0714 0.1254 0.0000 ( 14643 PWs)   bands (ev):

   -12.4575 -12.4575 -11.9421 -11.9421 -10.9022 -10.9022  -8.2540  -8.2540
    -7.0597  -7.0596  -2.8609  -2.8607  -2.6230  -2.6212  -2.3665  -2.3653
    -1.9789  -1.9777  -1.6828  -1.6819  -1.4657  -1.4644  -1.0897  -1.0891
    -0.4373  -0.4363  -0.3036  -0.3025   0.6521   0.6536   0.9386   0.9391
     1.2512   1.2522   1.8713   1.8725   2.2021   2.2026   2.6294   2.6297
     4.4326   4.4333   4.4659   4.4666   4.9449   4.9449   5.2142   5.2142
     5.6278   5.6278   6.1078   6.1079   6.4666   6.4679   6.5535   6.5547
     6.7977   6.7977   7.0214   7.0215   7.4624   7.4625   7.8184   7.8185
     8.0475   8.0477   8.4388   8.4388   8.7140   8.7142   8.9277   8.9278
     9.1843   9.1845   9.2535   9.2537   9.5025   9.5026  10.4397  10.4401
    10.4765  10.4767  10.9651  10.9654  11.0638  11.0639  11.3561  11.3562
    11.6526  11.6528  12.0272  12.0273  12.3906  12.3907  12.8270  12.8271
    13.0573  13.0573  13.1682  13.1682

          k = 0.0667 0.1170 0.0000 ( 14639 PWs)   bands (ev):

   -12.4743 -12.4743 -11.9573 -11.9573 -10.9110 -10.9110  -8.2500  -8.2500
    -7.0311  -7.0310  -2.7925  -2.7922  -2.5923  -2.5902  -2.2933  -2.2920
    -1.9362  -1.9351  -1.6624  -1.6615  -1.4431  -1.4418  -1.0673  -1.0667
    -0.4656  -0.4647  -0.2977  -0.2967   0.6310   0.6326   0.8922   0.8929
     1.2263   1.2274   1.8187   1.8197   2.1800   2.1804   2.5907   2.5910
     4.4094   4.4099   4.4616   4.4621   4.9643   4.9644   5.2390   5.2391
     5.6172   5.6173   6.0587   6.0587   6.4739   6.4754   6.5520   6.5534
     6.8048   6.8049   7.0156   7.0157   7.4208   7.4209   7.8008   7.8009
     8.0053   8.0055   8.4591   8.4592   8.6461   8.6463   8.8731   8.8731
     9.1720   9.1722   9.2318   9.2320   9.4362   9.4363  10.3935  10.3939
    10.4401  10.4404  10.9635  10.9637  11.0556  11.0556  11.3221  11.3222
    11.6585  11.6586  12.1162  12.1163  12.4736  12.4737  12.7927  12.7927
    12.9863  12.9863  13.2773  13.2774

          k = 0.0619 0.1087 0.0000 ( 14646 PWs)   bands (ev):

   -12.4899 -12.4899 -11.9714 -11.9714 -10.9193 -10.9193  -8.2466  -8.2466
    -7.0043  -7.0043  -2.7270  -2.7265  -2.5606  -2.5583  -2.2207  -2.2191
    -1.8930  -1.8919  -1.6444  -1.6434  -1.4199  -1.4185  -1.0454  -1.0448
    -0.5027  -0.5019  -0.2883  -0.2875   0.6012   0.6028   0.8563   0.8571
     1.2001   1.2011   1.7644   1.7654   2.1663   2.1666   2.5499   2.5503
     4.3866   4.3870   4.4574   4.4578   4.9810   4.9811   5.2674   5.2675
     5.6098   5.6098   6.0134   6.0134   6.4822   6.4837   6.5571   6.5585
     6.7969   6.7970   7.0194   7.0195   7.3781   7.3782   7.7885   7.7886
     7.9679   7.9681   8.4767   8.4768   8.5748   8.5750   8.8248   8.8248
     9.1370   9.1372   9.2223   9.2224   9.3899   9.3901  10.3377  10.3381
    10.4052  10.4055  10.9380  10.9381  11.0773  11.0774  11.3002  11.3004
    11.6641  11.6643  12.2038  12.2038  12.5433  12.5433  12.7747  12.7749
    12.9180  12.9181  13.3855  13.3857

          k = 0.0571 0.1003 0.0000 ( 14653 PWs)   bands (ev):

   -12.5043 -12.5043 -11.9846 -11.9846 -10.9270 -10.9270  -8.2435  -8.2435
    -6.9795  -6.9795  -2.6672  -2.6665  -2.5253  -2.5229  -2.1493  -2.1476
    -1.8499  -1.8488  -1.6281  -1.6271  -1.3958  -1.3944  -1.0242  -1.0237
    -0.5445  -0.5438  -0.2803  -0.2797   0.5639   0.5655   0.8315   0.8322
     1.1712   1.1722   1.7122   1.7132   2.1585   2.1589   2.5073   2.5076
     4.3648   4.3651   4.4531   4.4534   4.9947   4.9947   5.2989   5.2989
     5.6053   5.6053   5.9723   5.9723   6.4923   6.4937   6.5671   6.5684
     6.7790   6.7792   7.0258   7.0260   7.3367   7.3368   7.7821   7.7821
     7.9348   7.9350   8.4745   8.4746   8.5127   8.5128   8.7901   8.7901
     9.0922   9.0923   9.2040   9.2041   9.3704   9.3706  10.2768  10.2772
    10.3685  10.3688  10.9101  10.9101  11.0933  11.0935  11.3030  11.3031
    11.6719  11.6721  12.2841  12.2841  12.5815  12.5816  12.7865  12.7870
    12.8634  12.8636  13.3953  13.3953

          k = 0.0524 0.0919 0.0000 ( 14649 PWs)   bands (ev):

   -12.5177 -12.5177 -11.9967 -11.9967 -10.9342 -10.9342  -8.2409  -8.2409
    -6.9567  -6.9567  -2.6167  -2.6160  -2.4829  -2.4805  -2.0794  -2.0776
    -1.8078  -1.8068  -1.6128  -1.6117  -1.3709  -1.3694  -1.0039  -1.0034
    -0.5887  -0.5881  -0.2775  -0.2770   0.5228   0.5242   0.8156   0.8163
     1.1395   1.1405   1.6645   1.6655   2.1549   2.1554   2.4633   2.4636
     4.3441   4.3444   4.4488   4.4491   5.0052   5.0053   5.3327   5.3328
     5.6035   5.6035   5.9357   5.9357   6.5049   6.5063   6.5803   6.5815
     6.7563   6.7565   7.0285   7.0286   7.2988   7.2990   7.7817   7.7817
     7.9053   7.9054   8.4148   8.4151   8.4909   8.4909   8.7773   8.7774
     9.0380   9.0381   9.1838   9.1839   9.3697   9.3698  10.2131  10.2135
    10.3282  10.3285  10.8871  10.8872  11.0878  11.0880  11.3366  11.3367
    11.6841  11.6843  12.3489  12.3489  12.5851  12.5853  12.7998  12.8003
    12.8570  12.8574  13.3663  13.3663

          k = 0.0476 0.0836 0.0000 ( 14653 PWs)   bands (ev):

   -12.5299 -12.5299 -12.0079 -12.0079 -10.9408 -10.9408  -8.2387  -8.2387
    -6.9358  -6.9358  -2.5778  -2.5773  -2.4318  -2.4296  -2.0113  -2.0095
    -1.7683  -1.7672  -1.5975  -1.5965  -1.3452  -1.3437  -0.9845  -0.9841
    -0.6335  -0.6329  -0.2824  -0.2821   0.4813   0.4826   0.8060   0.8067
     1.1060   1.1070   1.6222   1.6233   2.1543   2.1548   2.4186   2.4190
     4.3248   4.3250   4.4447   4.4449   5.0127   5.0128   5.3683   5.3683
     5.6038   5.6039   5.9039   5.9040   6.5201   6.5214   6.5947   6.5957
     6.7327   6.7331   7.0237   7.0239   7.2666   7.2668   7.7867   7.7867
     7.8785   7.8786   8.3430   8.3432   8.4632   8.4633   8.7885   8.7886
     8.9786   8.9788   9.1698   9.1699   9.3764   9.3766  10.1479  10.1483
    10.2833  10.2836  10.8705  10.8705  11.0672  11.0673  11.3914  11.3915
    11.7028  11.7029  12.3887  12.3888  12.5690  12.5693  12.7951  12.7954
    12.9026  12.9028  13.3461  13.3462

          k = 0.0429 0.0752 0.0000 ( 14645 PWs)   bands (ev):

   -12.5409 -12.5409 -12.0179 -12.0179 -10.9469 -10.9469  -8.2368  -8.2367
    -6.9169  -6.9168  -2.5488  -2.5485  -2.3742  -2.3723  -1.9451  -1.9433
    -1.7329  -1.7319  -1.5814  -1.5804  -1.3191  -1.3176  -0.9664  -0.9661
    -0.6771  -0.6764  -0.2967  -0.2964   0.4417   0.4428   0.8005   0.8011
     1.0734   1.0742   1.5852   1.5864   2.1554   2.1559   2.3744   2.3748
     4.3068   4.3070   4.4407   4.4408   5.0175   5.0176   5.4045   5.4046
     5.6058   5.6058   5.8775   5.8775   6.5367   6.5379   6.6073   6.6080
     6.7124   6.7131   7.0112   7.0114   7.2411   7.2412   7.7952   7.7953
     7.8540   7.8541   8.2734   8.2736   8.4233   8.4234   8.8128   8.8129
     8.9236   8.9239   9.1632   9.1634   9.3854   9.3855  10.0820  10.0824
    10.2335  10.2338  10.8599  10.8600  11.0409  11.0410  11.4555  11.4556
    11.7297  11.7299  12.4015  12.4017  12.5410  12.5413  12.8096  12.8099
    12.9427  12.9428  13.3508  13.3509

          k = 0.0381 0.0669 0.0000 ( 14647 PWs)   bands (ev):

   -12.5508 -12.5508 -12.0270 -12.0270 -10.9523 -10.9523  -8.2351  -8.2351
    -6.8999  -6.8999  -2.5267  -2.5266  -2.3140  -2.3123  -1.8814  -1.8797
    -1.7027  -1.7018  -1.5635  -1.5626  -1.2935  -1.2920  -0.9505  -0.9503
    -0.7167  -0.7160  -0.3205  -0.3203   0.4038   0.4048   0.7973   0.7978
     1.0452   1.0459   1.5521   1.5534   2.1570   2.1576   2.3322   2.3325
     4.2904   4.2905   4.4369   4.4371   5.0200   5.0201   5.4403   5.4404
     5.6085   5.6086   5.8569   5.8570   6.5520   6.5530   6.6138   6.6139
     6.7019   6.7030   6.9929   6.9932   7.2219   7.2220   7.8028   7.8030
     7.8329   7.8331   8.2094   8.2095   8.3778   8.3779   8.8152   8.8155
     8.9035   8.9039   9.1638   9.1640   9.3946   9.3948  10.0162  10.0165
    10.1788  10.1791  10.8543  10.8543  11.0138  11.0139  11.5221  11.5223
    11.7668  11.7669  12.3955  12.3958  12.5062  12.5065  12.8189  12.8192
    12.9803  12.9805  13.3863  13.3864

          k = 0.0333 0.0585 0.0000 ( 14655 PWs)   bands (ev):

   -12.5596 -12.5596 -12.0350 -12.0350 -10.9571 -10.9571  -8.2338  -8.2337
    -6.8850  -6.8849  -2.5094  -2.5093  -2.2540  -2.2526  -1.8217  -1.8203
    -1.6768  -1.6762  -1.5440  -1.5430  -1.2699  -1.2684  -0.9398  -0.9394
    -0.7481  -0.7473  -0.3526  -0.3523   0.3664   0.3672   0.7950   0.7955
     1.0257   1.0261   1.5214   1.5227   2.1574   2.1580   2.2941   2.2944
     4.2755   4.2757   4.4335   4.4337   5.0208   5.0208   5.4744   5.4744
     5.6114   5.6114   5.8430   5.8430   6.5587   6.5591   6.6145   6.6155
     6.7060   6.7075   6.9723   6.9726   7.2082   7.2083   7.7955   7.7957
     7.8249   7.8252   8.1540   8.1542   8.3316   8.3317   8.7748   8.7750
     8.9357   8.9360   9.1720   9.1722   9.4038   9.4040   9.9511   9.9514
    10.1198  10.1201  10.8523  10.8524  10.9880  10.9881  11.5878  11.5880
    11.8148  11.8148  12.3796  12.3800  12.4701  12.4705  12.7954  12.7957
    13.0332  13.0333  13.4420  13.4420

          k = 0.0286 0.0501 0.0000 ( 14655 PWs)   bands (ev):

   -12.5671 -12.5671 -12.0419 -12.0419 -10.9613 -10.9613  -8.2326  -8.2326
    -6.8720  -6.8720  -2.4955  -2.4954  -2.1964  -2.1951  -1.7707  -1.7697
    -1.6504  -1.6499  -1.5236  -1.5225  -1.2504  -1.2488  -0.9392  -0.9386
    -0.7647  -0.7639  -0.3902  -0.3900   0.3278   0.3284   0.7922   0.7928
     1.0178   1.0180   1.4916   1.4930   2.1538   2.1545   2.2633   2.2637
     4.2624   4.2625   4.4305   4.4306   5.0203   5.0203   5.5050   5.5050
     5.6138   5.6139   5.8362   5.8362   6.5479   6.5479   6.6215   6.6230
     6.7205   6.7223   6.9526   6.9529   7.1992   7.1993   7.7737   7.7738
     7.8248   7.8251   8.1110   8.1111   8.2877   8.2878   8.7282   8.7283
     8.9795   8.9798   9.1890   9.1893   9.4133   9.4135   9.8875   9.8878
    10.0574  10.0577  10.8528  10.8529  10.9645  10.9646  11.6513  11.6514
    11.8728  11.8728  12.3588  12.3592  12.4358  12.4362  12.7460  12.7462
    13.0923  13.0924  13.4992  13.4992

          k = 0.0238 0.0418 0.0000 ( 14660 PWs)   bands (ev):

   -12.5736 -12.5736 -12.0478 -12.0478 -10.9649 -10.9649  -8.2317  -8.2317
    -6.8610  -6.8610  -2.4845  -2.4843  -2.1425  -2.1414  -1.7361  -1.7351
    -1.6156  -1.6143  -1.5036  -1.5025  -1.2372  -1.2356  -0.9517  -0.9510
    -0.7627  -0.7619  -0.4299  -0.4297   0.2874   0.2879   0.7886   0.7892
     1.0225   1.0228   1.4615   1.4629   2.1437   2.1444   2.2434   2.2437
     4.2511   4.2512   4.4279   4.4280   5.0190   5.0190   5.5308   5.5308
     5.6155   5.6156   5.8366   5.8367   6.5253   6.5253   6.6336   6.6351
     6.7391   6.7409   6.9363   6.9366   7.1946   7.1946   7.7484   7.7485
     7.8182   7.8184   8.0833   8.0833   8.2482   8.2483   8.6862   8.6863
     9.0203   9.0205   9.2167   9.2171   9.4239   9.4242   9.8263   9.8266
     9.9925   9.9928  10.8547  10.8548  10.9439  10.9439  11.7129  11.7130
    11.9381  11.9381  12.3346  12.3351  12.4050  12.4055  12.6847  12.6849
    13.1387  13.1388  13.5456  13.5457

          k = 0.0190 0.0334 0.0000 ( 14654 PWs)   bands (ev):

   -12.5788 -12.5788 -12.0526 -12.0526 -10.9678 -10.9678  -8.2310  -8.2310
    -6.8520  -6.8520  -2.4758  -2.4756  -2.0939  -2.0929  -1.7198  -1.7187
    -1.5692  -1.5674  -1.4849  -1.4838  -1.2324  -1.2307  -0.9729  -0.9722
    -0.7468  -0.7461  -0.4679  -0.4678   0.2465   0.2469   0.7844   0.7850
     1.0383   1.0388   1.4308   1.4321   2.1278   2.1284   2.2340   2.2343
     4.2418   4.2418   4.4257   4.4258   5.0174   5.0174   5.5505   5.5505
     5.6169   5.6170   5.8433   5.8434   6.4995   6.4995   6.6450   6.6463
     6.7578   6.7594   6.9250   6.9254   7.1937   7.1938   7.7217   7.7218
     7.8041   7.8043   8.0700   8.0700   8.2142   8.2144   8.6513   8.6514
     9.0529   9.0531   9.2550   9.2554   9.4370   9.4374   9.7684   9.7688
     9.9270   9.9273  10.8574  10.8575  10.9262  10.9262  11.7733  11.7734
    12.0068  12.0069  12.3069  12.3075  12.3788  12.3793  12.6205  12.6206
    13.1589  13.1590  13.5908  13.5909

          k = 0.0143 0.0251 0.0000 ( 14654 PWs)   bands (ev):

   -12.5829 -12.5829 -12.0563 -12.0563 -10.9701 -10.9701  -8.2304  -8.2304
    -6.8450  -6.8450  -2.4692  -2.4691  -2.0524  -2.0516  -1.7151  -1.7141
    -1.5193  -1.5174  -1.4668  -1.4657  -1.2372  -1.2355  -0.9956  -0.9950
    -0.7254  -0.7249  -0.5004  -0.5003   0.2079   0.2081   0.7805   0.7810
     1.0616   1.0621   1.3999   1.4012   2.1105   2.1110   2.2313   2.2315
     4.2344   4.2344   4.4240   4.4241   5.0157   5.0158   5.5639   5.5639
     5.6183   5.6183   5.8540   5.8541   6.4748   6.4748   6.6535   6.6545
     6.7739   6.7752   6.9193   6.9197   7.1959   7.1959   7.6955   7.6956
     7.7868   7.7869   8.0666   8.0666   8.1869   8.1870   8.6242   8.6242
     9.0765   9.0767   9.2996   9.3001   9.4544   9.4548   9.7148   9.7151
     9.8635   9.8637  10.8606  10.8606  10.9116  10.9116  11.8320  11.8321
    12.0747  12.0748  12.2753  12.2758  12.3576  12.3580  12.5593  12.5594
    13.1535  13.1536  13.6483  13.6484

          k = 0.0095 0.0167 0.0000 ( 14658 PWs)   bands (ev):

   -12.5858 -12.5858 -12.0590 -12.0590 -10.9717 -10.9717  -8.2301  -8.2301
    -6.8401  -6.8401  -2.4646  -2.4645  -2.0199  -2.0193  -1.7158  -1.7150
    -1.4803  -1.4792  -1.4419  -1.4410  -1.2515  -1.2499  -1.0145  -1.0141
    -0.7060  -0.7057  -0.5241  -0.5240   0.1755   0.1757   0.7775   0.7778
     1.0871   1.0876   1.3712   1.3722   2.0961   2.0964   2.2313   2.2314
     4.2291   4.2291   4.4228   4.4228   5.0144   5.0144   5.5717   5.5717
     5.6199   5.6199   5.8654   5.8655   6.4544   6.4544   6.6589   6.6595
     6.7855   6.7864   6.9182   6.9185   7.1995   7.1995   7.6728   7.6728
     7.7712   7.7713   8.0680   8.0680   8.1667   8.1668   8.6050   8.6050
     9.0925   9.0926   9.3419   9.3424   9.4791   9.4796   9.6657   9.6660
     9.8065   9.8067  10.8639  10.8639  10.9002  10.9002  11.8863  11.8863
    12.1364  12.1367  12.2415  12.2420  12.3408  12.3410  12.5064  12.5064
    13.1358  13.1358  13.7136  13.7137

          k = 0.0048 0.0084 0.0000 ( 14665 PWs)   bands (ev):

   -12.5876 -12.5876 -12.0606 -12.0606 -10.9727 -10.9727  -8.2298  -8.2298
    -6.8371  -6.8371  -2.4619  -2.4618  -1.9988  -1.9984  -1.7180  -1.7175
    -1.4642  -1.4638  -1.4071  -1.4062  -1.2712  -1.2700  -1.0268  -1.0265
    -0.6934  -0.6932  -0.5376  -0.5375   0.1537   0.1538   0.7756   0.7758
     1.1082   1.1086   1.3492   1.3498   2.0868   2.0870   2.2319   2.2319
     4.2258   4.2259   4.4221   4.4221   5.0135   5.0135   5.5754   5.5754
     5.6212   5.6213   5.8741   5.8741   6.4408   6.4408   6.6618   6.6621
     6.7922   6.7927   6.9193   6.9195   7.2027   7.2027   7.6571   7.6572
     7.7607   7.7607   8.0703   8.0703   8.1543   8.1543   8.5936   8.5937
     9.1018   9.1018   9.3716   9.3719   9.5127   9.5132   9.6210   9.6212
     9.7646   9.7647  10.8670  10.8670  10.8923  10.8923  11.9289  11.9289
    12.1817  12.1823  12.2144  12.2151  12.3273  12.3274  12.4682  12.4682
    13.1194  13.1194  13.7697  13.7697

          k = 0.0000 0.0000 0.0000 ( 14667 PWs)   bands (ev):

   -12.5882 -12.5882 -12.0611 -12.0611 -10.9731 -10.9731  -8.2298  -8.2298
    -6.8361  -6.8361  -2.4610  -2.4610  -1.9913  -1.9913  -1.7188  -1.7188
    -1.4601  -1.4601  -1.3884  -1.3884  -1.2823  -1.2823  -1.0309  -1.0309
    -0.6892  -0.6892  -0.5417  -0.5417   0.1460   0.1460   0.7750   0.7750
     1.1169   1.1169   1.3408   1.3408   2.0837   2.0837   2.2322   2.2322
     4.2248   4.2248   4.4218   4.4218   5.0132   5.0132   5.5765   5.5765
     5.6218   5.6218   5.8773   5.8773   6.4360   6.4360   6.6628   6.6628
     6.7946   6.7946   6.9201   6.9201   7.2040   7.2040   7.6516   7.6516
     7.7570   7.7570   8.0713   8.0713   8.1501   8.1501   8.5899   8.5899
     9.1049   9.1049   9.3821   9.3821   9.5387   9.5387   9.5930   9.5930
     9.7488   9.7488  10.8684  10.8684  10.8892  10.8892  11.9462  11.9462
    12.1891  12.1891  12.2150  12.2150  12.3207  12.3207  12.4537  12.4537
    13.1130  13.1130  13.7930  13.7930

     Writing all to output data dir tmp/Sb2Te3-uatsx-c6-soc-2.0.save/ :
     XML data file, pseudopotentials, collected wavefunctions

     init_run     :      1.81s CPU      1.82s WALL (       1 calls)
     electrons    :   2202.16s CPU   1193.97s WALL (       1 calls)

     Called by init_run:
     wfcinit      :      0.00s CPU      0.01s WALL (       1 calls)
     wfcinit:atom :      0.12s CPU      0.08s WALL (     211 calls)
     wfcinit:wfcr :     42.91s CPU     22.43s WALL (     211 calls)
     potinit      :      0.50s CPU      0.48s WALL (       1 calls)
     hinit0       :      0.68s CPU      0.70s WALL (       1 calls)

     Called by electrons:
     c_bands      :   2202.15s CPU   1193.95s WALL (       1 calls)
     v_of_rho     :      0.05s CPU      0.03s WALL (       1 calls)
     v_h          :      0.01s CPU      0.00s WALL (       1 calls)
     v_xc         :      0.04s CPU      0.03s WALL (       1 calls)
     newd         :      0.53s CPU      0.53s WALL (       1 calls)

     Called by c_bands:
     init_us_2    :      0.21s CPU      0.18s WALL (     211 calls)
     cegterg      :   2152.93s CPU   1166.43s WALL (     882 calls)

     Called by sum_band:

     Called by *egterg:
     cdiaghg      :    340.54s CPU    228.37s WALL (   15645 calls)
     cegterg:over :    126.97s CPU     66.63s WALL (   15434 calls)
     cegterg:upda :     68.65s CPU     32.26s WALL (   15434 calls)
     cegterg:last :    157.94s CPU     79.56s WALL (    7803 calls)
     h_psi        :   1334.44s CPU    687.13s WALL (   16527 calls)
     s_psi        :     91.44s CPU     52.49s WALL (   16527 calls)
     g_psi        :      6.92s CPU      4.93s WALL (   15434 calls)

     Called by h_psi:
     h_psi:calbec :     75.27s CPU     37.84s WALL (   16527 calls)
     vloc_psi     :   1180.90s CPU    600.84s WALL (   16527 calls)
     add_vuspsi   :     74.81s CPU     46.30s WALL (   16527 calls)

     General routines
     calbec       :     75.17s CPU     37.80s WALL (   16527 calls)
     fft          :      0.59s CPU      0.58s WALL (      19 calls)
     ffts         :      0.42s CPU      0.42s WALL (       4 calls)
     fftw         :    857.14s CPU    437.28s WALL ( 3106852 calls)
     interpolate  :      0.44s CPU      0.43s WALL (       4 calls)
     davcio       :      0.21s CPU      0.36s WALL (     422 calls)

     Parallel routines

     PWSCF        :  37m 0.68s CPU  21m39.79s WALL


   This run was terminated on:  21:54: 9  22Aug2025            

=------------------------------------------------------------------------------=
   JOB DONE.
=------------------------------------------------------------------------------=
