
     Program PWSCF v.7.4.1 starts on 14Aug2025 at 23:52:35 

     This program is part of the open-source Quantum ESPRESSO suite
     for quantum simulation of materials; please cite
         "P. Giannozzi et al., J. Phys.:Condens. Matter 21 395502 (2009);
         "P. Giannozzi et al., J. Phys.:Condens. Matter 29 465901 (2017);
         "P. Giannozzi et al., J. Chem. Phys. 152 154105 (2020);
          URL http://www.quantum-espresso.org", 
     in publications or presentations arising from this work. More details at
     http://www.quantum-espresso.org/quote

     Parallel version (MPI & OpenMP), running on      48 processor cores
     Number of MPI processes:                24
     Threads/MPI process:                     2

     MPI processes distributed on     2 nodes
     76915 MiB available memory on the printing compute node when the environment starts

     Waiting for input...
     Reading input from standard input

     Current dimensions of program PWSCF are:
     Max number of different atomic species (ntypx) = 10
     Max number of k-points (npk) =  40000
     Max angular momentum in pseudopotentials (lmaxx) =  4
Error reading attribute index: expected integer, found *
Error reading attribute index: expected integer, found *

     IMPORTANT: XC functional enforced from input :
     Exchange-correlation= PBE
                           (   1   4   3   4   0   0   0)
     Any further DFT definition will be discarded
     Please, verify this is what you really want


     Atomic positions and unit cell read from directory:
     tmp/Sb2Te3-uatsx-c4-soc-4.0.save/

     Message from routine setup:
     no reason to have ecutrho>4*ecutwfc

     R & G space division:  proc/nbgrp/npool/nimage =      24
     Subspace diagonalization in iterative solution of the eigenvalue problem:
     a serial algorithm will be used


     Parallelization info
     --------------------
     sticks:   dense  smooth     PW     G-vecs:    dense   smooth      PW
     Min          99      39     11                19681     4971     755
     Max         100      40     12                19687     4990     769
     Sum        2379     953    269               472441   119521   18333

     Using Slab Decomposition



     bravais-lattice index     =            0
     lattice parameter (alat)  =       8.4715  a.u.
     unit-cell volume          =    2502.8602 (a.u.)^3
     number of atoms/cell      =            5
     number of atomic types    =            2
     number of electrons       =        78.00
     number of Kohn-Sham states=          100
     kinetic-energy cutoff     =      50.0000  Ry
     charge density cutoff     =     500.0000  Ry
     Exchange-correlation= PBE
                           (   1   4   3   4   0   0   0)
     Non magnetic calculation with spin-orbit


     celldm(1)=   8.471459  celldm(2)=   0.000000  celldm(3)=   0.000000
     celldm(4)=   0.000000  celldm(5)=   0.000000  celldm(6)=   0.000000

     crystal axes: (cart. coord. in units of alat)
               a(1) = (   1.000000   0.000000   0.000000 )  
               a(2) = (  -0.480769   0.832709   0.000000 )  
               a(3) = (   0.000000   0.000000   4.943891 )  

     reciprocal axes: (cart. coord. in units 2 pi/alat)
               b(1) = (  1.000000  0.577356 -0.000000 )  
               b(2) = (  0.000000  1.200900  0.000000 )  
               b(3) = (  0.000000 -0.000000  0.202270 )  


     PseudoPot. # 1 for Sb read from file:
     /zfs-home/202401017n1/pseudos/Sb_ONCV_PBE_FR-1.1.upf
     MD5 check sum: 7dc1726f2158e3c51e4807d42b9c5c65
     Pseudo is Norm-conserving, Zval = 15.0
     Generated using ONCVPSP code by D. R. Hamann
     Using radial grid of  602 points, 10 beta functions with: 
                l(1) =   0
                l(2) =   0
                l(3) =   1
                l(4) =   1
                l(5) =   1
                l(6) =   1
                l(7) =   2
                l(8) =   2
                l(9) =   2
               l(10) =   2

     PseudoPot. # 2 for Te read from file:
     /zfs-home/202401017n1/pseudos/Te_ONCV_PBE_FR-1.1.upf
     MD5 check sum: c6e17480449037a9a9d16e6377b5c7c4
     Pseudo is Norm-conserving, Zval = 16.0
     Generated using ONCVPSP code by D. R. Hamann
     Using radial grid of  602 points, 10 beta functions with: 
                l(1) =   0
                l(2) =   0
                l(3) =   1
                l(4) =   1
                l(5) =   1
                l(6) =   1
                l(7) =   2
                l(8) =   2
                l(9) =   2
               l(10) =   2

     atomic species   valence    mass     pseudopotential
     Sb               15.00   121.76000     Sb( 1.00)
     Te               16.00   127.60000     Te( 1.00)

     No symmetry found


                                    s                        frac. trans.

      isym =  1     identity                                     

 cryst.   s( 1) = (     1          0          0      )
                  (     0          1          0      )
                  (     0          0          1      )

 cart.    s( 1) = (  1.0000000  0.0000000  0.0000000 )
                  (  0.0000000  1.0000000  0.0000000 )
                  (  0.0000000  0.0000000  1.0000000 )


   Cartesian axes

     site n.     atom                  positions (alat units)
         1        Sb     tau(   1) = (   0.5904646   0.4157527   2.9115514  )
         2        Te     tau(   2) = (   0.5755298   0.3904446   1.6605492  )
         3        Sb     tau(   3) = (   0.0721083   0.1184920   2.0322939  )
         4        Te     tau(   4) = (   0.0869606   0.1439524   3.2833161  )
         5        Te     tau(   5) = (   0.0908738   0.6835524   2.4719228  )

     -------------------------------------------------
     Parameters for Dispersion (Grimme-D2) Correction:
     -------------------------------------------------
       atom      VdW radius       C_6     

        Sb         3.555       1333.532
        Te         3.575       1101.101

   Crystallographic axes

     site n.     atom                  positions (cryst. coord.)
         1        Sb     tau(   1) = (  0.8305018  0.4992775  0.5889190  )
         2        Te     tau(   2) = (  0.8009552  0.4688850  0.3358790  )
         3        Sb     tau(   3) = (  0.1405204  0.1422971  0.4110717  )
         4        Te     tau(   4) = (  0.1700723  0.1728725  0.6641158  )
         5        Te     tau(   5) = (  0.4855268  0.8208782  0.4999954  )

     number of k points=   211
                       cart. coord. in units 2pi/alat
        k(    1) = (   0.0000000   0.0000000   0.0000000), wk =   0.0047393
        k(    2) = (   0.0071429   0.0041240   0.0000000), wk =   0.0047393
        k(    3) = (   0.0142857   0.0082479   0.0000000), wk =   0.0047393
        k(    4) = (   0.0214286   0.0123719   0.0000000), wk =   0.0047393
        k(    5) = (   0.0285714   0.0164959   0.0000000), wk =   0.0047393
        k(    6) = (   0.0357143   0.0206199   0.0000000), wk =   0.0047393
        k(    7) = (   0.0428571   0.0247438   0.0000000), wk =   0.0047393
        k(    8) = (   0.0500000   0.0288678   0.0000000), wk =   0.0047393
        k(    9) = (   0.0571429   0.0329918   0.0000000), wk =   0.0047393
        k(   10) = (   0.0642857   0.0371157   0.0000000), wk =   0.0047393
        k(   11) = (   0.0714286   0.0412397   0.0000000), wk =   0.0047393
        k(   12) = (   0.0785714   0.0453637   0.0000000), wk =   0.0047393
        k(   13) = (   0.0857143   0.0494876   0.0000000), wk =   0.0047393
        k(   14) = (   0.0928571   0.0536116   0.0000000), wk =   0.0047393
        k(   15) = (   0.1000000   0.0577356   0.0000000), wk =   0.0047393
        k(   16) = (   0.1071429   0.0618596   0.0000000), wk =   0.0047393
        k(   17) = (   0.1142857   0.0659835   0.0000000), wk =   0.0047393
        k(   18) = (   0.1214286   0.0701075   0.0000000), wk =   0.0047393
        k(   19) = (   0.1285714   0.0742315   0.0000000), wk =   0.0047393
        k(   20) = (   0.1357143   0.0783554   0.0000000), wk =   0.0047393
        k(   21) = (   0.1428571   0.0824794   0.0000000), wk =   0.0047393
        k(   22) = (   0.1500000   0.0866034   0.0000000), wk =   0.0047393
        k(   23) = (   0.1571429   0.0907273   0.0000000), wk =   0.0047393
        k(   24) = (   0.1642857   0.0948513   0.0000000), wk =   0.0047393
        k(   25) = (   0.1714286   0.0989753   0.0000000), wk =   0.0047393
        k(   26) = (   0.1785714   0.1030993   0.0000000), wk =   0.0047393
        k(   27) = (   0.1857143   0.1072232   0.0000000), wk =   0.0047393
        k(   28) = (   0.1928571   0.1113472   0.0000000), wk =   0.0047393
        k(   29) = (   0.2000000   0.1154712   0.0000000), wk =   0.0047393
        k(   30) = (   0.2071429   0.1195951   0.0000000), wk =   0.0047393
        k(   31) = (   0.2142857   0.1237191   0.0000000), wk =   0.0047393
        k(   32) = (   0.2214286   0.1278431   0.0000000), wk =   0.0047393
        k(   33) = (   0.2285714   0.1319671   0.0000000), wk =   0.0047393
        k(   34) = (   0.2357143   0.1360910   0.0000000), wk =   0.0047393
        k(   35) = (   0.2428571   0.1402150   0.0000000), wk =   0.0047393
        k(   36) = (   0.2500000   0.1443390   0.0000000), wk =   0.0047393
        k(   37) = (   0.2571429   0.1484629   0.0000000), wk =   0.0047393
        k(   38) = (   0.2642857   0.1525869   0.0000000), wk =   0.0047393
        k(   39) = (   0.2714286   0.1567109   0.0000000), wk =   0.0047393
        k(   40) = (   0.2785714   0.1608348   0.0000000), wk =   0.0047393
        k(   41) = (   0.2857143   0.1649588   0.0000000), wk =   0.0047393
        k(   42) = (   0.2928571   0.1690828   0.0000000), wk =   0.0047393
        k(   43) = (   0.3000000   0.1732068   0.0000000), wk =   0.0047393
        k(   44) = (   0.3071429   0.1773307   0.0000000), wk =   0.0047393
        k(   45) = (   0.3142857   0.1814547   0.0000000), wk =   0.0047393
        k(   46) = (   0.3214286   0.1855787   0.0000000), wk =   0.0047393
        k(   47) = (   0.3285714   0.1897026   0.0000000), wk =   0.0047393
        k(   48) = (   0.3357143   0.1938266   0.0000000), wk =   0.0047393
        k(   49) = (   0.3428571   0.1979506   0.0000000), wk =   0.0047393
        k(   50) = (   0.3500000   0.2020745   0.0000000), wk =   0.0047393
        k(   51) = (   0.3571429   0.2061985   0.0000000), wk =   0.0047393
        k(   52) = (   0.3642857   0.2103225   0.0000000), wk =   0.0047393
        k(   53) = (   0.3714286   0.2144465   0.0000000), wk =   0.0047393
        k(   54) = (   0.3785714   0.2185704   0.0000000), wk =   0.0047393
        k(   55) = (   0.3857143   0.2226944   0.0000000), wk =   0.0047393
        k(   56) = (   0.3928571   0.2268184   0.0000000), wk =   0.0047393
        k(   57) = (   0.4000000   0.2309423   0.0000000), wk =   0.0047393
        k(   58) = (   0.4071429   0.2350663   0.0000000), wk =   0.0047393
        k(   59) = (   0.4142857   0.2391903   0.0000000), wk =   0.0047393
        k(   60) = (   0.4214286   0.2433143   0.0000000), wk =   0.0047393
        k(   61) = (   0.4285714   0.2474382   0.0000000), wk =   0.0047393
        k(   62) = (   0.4357143   0.2515622   0.0000000), wk =   0.0047393
        k(   63) = (   0.4428571   0.2556862   0.0000000), wk =   0.0047393
        k(   64) = (   0.4500000   0.2598101   0.0000000), wk =   0.0047393
        k(   65) = (   0.4571429   0.2639341   0.0000000), wk =   0.0047393
        k(   66) = (   0.4642857   0.2680581   0.0000000), wk =   0.0047393
        k(   67) = (   0.4714286   0.2721820   0.0000000), wk =   0.0047393
        k(   68) = (   0.4785714   0.2763060   0.0000000), wk =   0.0047393
        k(   69) = (   0.4857143   0.2804300   0.0000000), wk =   0.0047393
        k(   70) = (   0.4928571   0.2845540   0.0000000), wk =   0.0047393
        k(   71) = (   0.5000000   0.2886779   0.0000000), wk =   0.0047393
        k(   72) = (   0.4976190   0.2930218   0.0000000), wk =   0.0047393
        k(   73) = (   0.4952381   0.2973658   0.0000000), wk =   0.0047393
        k(   74) = (   0.4928571   0.3017097   0.0000000), wk =   0.0047393
        k(   75) = (   0.4904762   0.3060536   0.0000000), wk =   0.0047393
        k(   76) = (   0.4880952   0.3103975   0.0000000), wk =   0.0047393
        k(   77) = (   0.4857143   0.3147414   0.0000000), wk =   0.0047393
        k(   78) = (   0.4833333   0.3190853   0.0000000), wk =   0.0047393
        k(   79) = (   0.4809524   0.3234293   0.0000000), wk =   0.0047393
        k(   80) = (   0.4785714   0.3277732   0.0000000), wk =   0.0047393
        k(   81) = (   0.4761905   0.3321171   0.0000000), wk =   0.0047393
        k(   82) = (   0.4738095   0.3364610   0.0000000), wk =   0.0047393
        k(   83) = (   0.4714286   0.3408049   0.0000000), wk =   0.0047393
        k(   84) = (   0.4690476   0.3451488   0.0000000), wk =   0.0047393
        k(   85) = (   0.4666667   0.3494927   0.0000000), wk =   0.0047393
        k(   86) = (   0.4642857   0.3538367   0.0000000), wk =   0.0047393
        k(   87) = (   0.4619048   0.3581806   0.0000000), wk =   0.0047393
        k(   88) = (   0.4595238   0.3625245   0.0000000), wk =   0.0047393
        k(   89) = (   0.4571429   0.3668684   0.0000000), wk =   0.0047393
        k(   90) = (   0.4547619   0.3712123   0.0000000), wk =   0.0047393
        k(   91) = (   0.4523810   0.3755562   0.0000000), wk =   0.0047393
        k(   92) = (   0.4500000   0.3799002   0.0000000), wk =   0.0047393
        k(   93) = (   0.4476190   0.3842441   0.0000000), wk =   0.0047393
        k(   94) = (   0.4452381   0.3885880   0.0000000), wk =   0.0047393
        k(   95) = (   0.4428571   0.3929319   0.0000000), wk =   0.0047393
        k(   96) = (   0.4404762   0.3972758   0.0000000), wk =   0.0047393
        k(   97) = (   0.4380952   0.4016197   0.0000000), wk =   0.0047393
        k(   98) = (   0.4357143   0.4059636   0.0000000), wk =   0.0047393
        k(   99) = (   0.4333333   0.4103076   0.0000000), wk =   0.0047393
        k(  100) = (   0.4309524   0.4146515   0.0000000), wk =   0.0047393
        k(  101) = (   0.4285714   0.4189954   0.0000000), wk =   0.0047393
        k(  102) = (   0.4261905   0.4233393   0.0000000), wk =   0.0047393
        k(  103) = (   0.4238095   0.4276832   0.0000000), wk =   0.0047393
        k(  104) = (   0.4214286   0.4320271   0.0000000), wk =   0.0047393
        k(  105) = (   0.4190476   0.4363711   0.0000000), wk =   0.0047393
        k(  106) = (   0.4166667   0.4407150   0.0000000), wk =   0.0047393
        k(  107) = (   0.4142857   0.4450589   0.0000000), wk =   0.0047393
        k(  108) = (   0.4119048   0.4494028   0.0000000), wk =   0.0047393
        k(  109) = (   0.4095238   0.4537467   0.0000000), wk =   0.0047393
        k(  110) = (   0.4071429   0.4580906   0.0000000), wk =   0.0047393
        k(  111) = (   0.4047619   0.4624345   0.0000000), wk =   0.0047393
        k(  112) = (   0.4023810   0.4667785   0.0000000), wk =   0.0047393
        k(  113) = (   0.4000000   0.4711224   0.0000000), wk =   0.0047393
        k(  114) = (   0.3976190   0.4754663   0.0000000), wk =   0.0047393
        k(  115) = (   0.3952381   0.4798102   0.0000000), wk =   0.0047393
        k(  116) = (   0.3928571   0.4841541   0.0000000), wk =   0.0047393
        k(  117) = (   0.3904762   0.4884980   0.0000000), wk =   0.0047393
        k(  118) = (   0.3880952   0.4928420   0.0000000), wk =   0.0047393
        k(  119) = (   0.3857143   0.4971859   0.0000000), wk =   0.0047393
        k(  120) = (   0.3833333   0.5015298   0.0000000), wk =   0.0047393
        k(  121) = (   0.3809524   0.5058737   0.0000000), wk =   0.0047393
        k(  122) = (   0.3785714   0.5102176   0.0000000), wk =   0.0047393
        k(  123) = (   0.3761905   0.5145615   0.0000000), wk =   0.0047393
        k(  124) = (   0.3738095   0.5189054   0.0000000), wk =   0.0047393
        k(  125) = (   0.3714286   0.5232494   0.0000000), wk =   0.0047393
        k(  126) = (   0.3690476   0.5275933   0.0000000), wk =   0.0047393
        k(  127) = (   0.3666667   0.5319372   0.0000000), wk =   0.0047393
        k(  128) = (   0.3642857   0.5362811   0.0000000), wk =   0.0047393
        k(  129) = (   0.3619048   0.5406250   0.0000000), wk =   0.0047393
        k(  130) = (   0.3595238   0.5449689   0.0000000), wk =   0.0047393
        k(  131) = (   0.3571429   0.5493129   0.0000000), wk =   0.0047393
        k(  132) = (   0.3547619   0.5536568   0.0000000), wk =   0.0047393
        k(  133) = (   0.3523810   0.5580007   0.0000000), wk =   0.0047393
        k(  134) = (   0.3500000   0.5623446   0.0000000), wk =   0.0047393
        k(  135) = (   0.3476190   0.5666885   0.0000000), wk =   0.0047393
        k(  136) = (   0.3452381   0.5710324   0.0000000), wk =   0.0047393
        k(  137) = (   0.3428571   0.5753763   0.0000000), wk =   0.0047393
        k(  138) = (   0.3404762   0.5797203   0.0000000), wk =   0.0047393
        k(  139) = (   0.3380952   0.5840642   0.0000000), wk =   0.0047393
        k(  140) = (   0.3357143   0.5884081   0.0000000), wk =   0.0047393
        k(  141) = (   0.3333333   0.5927520   0.0000000), wk =   0.0047393
        k(  142) = (   0.3285714   0.5842841   0.0000000), wk =   0.0047393
        k(  143) = (   0.3238095   0.5758162   0.0000000), wk =   0.0047393
        k(  144) = (   0.3190476   0.5673484   0.0000000), wk =   0.0047393
        k(  145) = (   0.3142857   0.5588805   0.0000000), wk =   0.0047393
        k(  146) = (   0.3095238   0.5504126   0.0000000), wk =   0.0047393
        k(  147) = (   0.3047619   0.5419447   0.0000000), wk =   0.0047393
        k(  148) = (   0.3000000   0.5334768   0.0000000), wk =   0.0047393
        k(  149) = (   0.2952381   0.5250089   0.0000000), wk =   0.0047393
        k(  150) = (   0.2904762   0.5165410   0.0000000), wk =   0.0047393
        k(  151) = (   0.2857143   0.5080732   0.0000000), wk =   0.0047393
        k(  152) = (   0.2809524   0.4996053   0.0000000), wk =   0.0047393
        k(  153) = (   0.2761905   0.4911374   0.0000000), wk =   0.0047393
        k(  154) = (   0.2714286   0.4826695   0.0000000), wk =   0.0047393
        k(  155) = (   0.2666667   0.4742016   0.0000000), wk =   0.0047393
        k(  156) = (   0.2619048   0.4657337   0.0000000), wk =   0.0047393
        k(  157) = (   0.2571429   0.4572658   0.0000000), wk =   0.0047393
        k(  158) = (   0.2523810   0.4487979   0.0000000), wk =   0.0047393
        k(  159) = (   0.2476190   0.4403301   0.0000000), wk =   0.0047393
        k(  160) = (   0.2428571   0.4318622   0.0000000), wk =   0.0047393
        k(  161) = (   0.2380952   0.4233943   0.0000000), wk =   0.0047393
        k(  162) = (   0.2333333   0.4149264   0.0000000), wk =   0.0047393
        k(  163) = (   0.2285714   0.4064585   0.0000000), wk =   0.0047393
        k(  164) = (   0.2238095   0.3979906   0.0000000), wk =   0.0047393
        k(  165) = (   0.2190476   0.3895227   0.0000000), wk =   0.0047393
        k(  166) = (   0.2142857   0.3810549   0.0000000), wk =   0.0047393
        k(  167) = (   0.2095238   0.3725870   0.0000000), wk =   0.0047393
        k(  168) = (   0.2047619   0.3641191   0.0000000), wk =   0.0047393
        k(  169) = (   0.2000000   0.3556512   0.0000000), wk =   0.0047393
        k(  170) = (   0.1952381   0.3471833   0.0000000), wk =   0.0047393
        k(  171) = (   0.1904762   0.3387154   0.0000000), wk =   0.0047393
        k(  172) = (   0.1857143   0.3302475   0.0000000), wk =   0.0047393
        k(  173) = (   0.1809524   0.3217797   0.0000000), wk =   0.0047393
        k(  174) = (   0.1761905   0.3133118   0.0000000), wk =   0.0047393
        k(  175) = (   0.1714286   0.3048439   0.0000000), wk =   0.0047393
        k(  176) = (   0.1666667   0.2963760   0.0000000), wk =   0.0047393
        k(  177) = (   0.1619048   0.2879081   0.0000000), wk =   0.0047393
        k(  178) = (   0.1571429   0.2794402   0.0000000), wk =   0.0047393
        k(  179) = (   0.1523810   0.2709723   0.0000000), wk =   0.0047393
        k(  180) = (   0.1476190   0.2625045   0.0000000), wk =   0.0047393
        k(  181) = (   0.1428571   0.2540366   0.0000000), wk =   0.0047393
        k(  182) = (   0.1380952   0.2455687   0.0000000), wk =   0.0047393
        k(  183) = (   0.1333333   0.2371008   0.0000000), wk =   0.0047393
        k(  184) = (   0.1285714   0.2286329   0.0000000), wk =   0.0047393
        k(  185) = (   0.1238095   0.2201650   0.0000000), wk =   0.0047393
        k(  186) = (   0.1190476   0.2116971   0.0000000), wk =   0.0047393
        k(  187) = (   0.1142857   0.2032293   0.0000000), wk =   0.0047393
        k(  188) = (   0.1095238   0.1947614   0.0000000), wk =   0.0047393
        k(  189) = (   0.1047619   0.1862935   0.0000000), wk =   0.0047393
        k(  190) = (   0.1000000   0.1778256   0.0000000), wk =   0.0047393
        k(  191) = (   0.0952381   0.1693577   0.0000000), wk =   0.0047393
        k(  192) = (   0.0904762   0.1608898   0.0000000), wk =   0.0047393
        k(  193) = (   0.0857143   0.1524219   0.0000000), wk =   0.0047393
        k(  194) = (   0.0809524   0.1439541   0.0000000), wk =   0.0047393
        k(  195) = (   0.0761905   0.1354862   0.0000000), wk =   0.0047393
        k(  196) = (   0.0714286   0.1270183   0.0000000), wk =   0.0047393
        k(  197) = (   0.0666667   0.1185504   0.0000000), wk =   0.0047393
        k(  198) = (   0.0619048   0.1100825   0.0000000), wk =   0.0047393
        k(  199) = (   0.0571429   0.1016146   0.0000000), wk =   0.0047393
        k(  200) = (   0.0523810   0.0931467   0.0000000), wk =   0.0047393
        k(  201) = (   0.0476190   0.0846789   0.0000000), wk =   0.0047393
        k(  202) = (   0.0428571   0.0762110   0.0000000), wk =   0.0047393
        k(  203) = (   0.0380952   0.0677431   0.0000000), wk =   0.0047393
        k(  204) = (   0.0333333   0.0592752   0.0000000), wk =   0.0047393
        k(  205) = (   0.0285714   0.0508073   0.0000000), wk =   0.0047393
        k(  206) = (   0.0238095   0.0423394   0.0000000), wk =   0.0047393
        k(  207) = (   0.0190476   0.0338715   0.0000000), wk =   0.0047393
        k(  208) = (   0.0142857   0.0254037   0.0000000), wk =   0.0047393
        k(  209) = (   0.0095238   0.0169358   0.0000000), wk =   0.0047393
        k(  210) = (   0.0047619   0.0084679   0.0000000), wk =   0.0047393
        k(  211) = (   0.0000000   0.0000000   0.0000000), wk =   0.0047393

                       cryst. coord.
        k(    1) = (   0.0000000   0.0000000   0.0000000), wk =   0.0047393
        k(    2) = (   0.0071429   0.0000000   0.0000000), wk =   0.0047393
        k(    3) = (   0.0142857   0.0000000   0.0000000), wk =   0.0047393
        k(    4) = (   0.0214286   0.0000000   0.0000000), wk =   0.0047393
        k(    5) = (   0.0285714   0.0000000   0.0000000), wk =   0.0047393
        k(    6) = (   0.0357143   0.0000000   0.0000000), wk =   0.0047393
        k(    7) = (   0.0428571   0.0000000   0.0000000), wk =   0.0047393
        k(    8) = (   0.0500000   0.0000000   0.0000000), wk =   0.0047393
        k(    9) = (   0.0571429   0.0000000   0.0000000), wk =   0.0047393
        k(   10) = (   0.0642857   0.0000000   0.0000000), wk =   0.0047393
        k(   11) = (   0.0714286   0.0000000   0.0000000), wk =   0.0047393
        k(   12) = (   0.0785714   0.0000000   0.0000000), wk =   0.0047393
        k(   13) = (   0.0857143   0.0000000   0.0000000), wk =   0.0047393
        k(   14) = (   0.0928571   0.0000000   0.0000000), wk =   0.0047393
        k(   15) = (   0.1000000   0.0000000   0.0000000), wk =   0.0047393
        k(   16) = (   0.1071429   0.0000000   0.0000000), wk =   0.0047393
        k(   17) = (   0.1142857   0.0000000   0.0000000), wk =   0.0047393
        k(   18) = (   0.1214286   0.0000000   0.0000000), wk =   0.0047393
        k(   19) = (   0.1285714   0.0000000   0.0000000), wk =   0.0047393
        k(   20) = (   0.1357143   0.0000000   0.0000000), wk =   0.0047393
        k(   21) = (   0.1428571   0.0000000   0.0000000), wk =   0.0047393
        k(   22) = (   0.1500000   0.0000000   0.0000000), wk =   0.0047393
        k(   23) = (   0.1571429   0.0000000   0.0000000), wk =   0.0047393
        k(   24) = (   0.1642857   0.0000000   0.0000000), wk =   0.0047393
        k(   25) = (   0.1714286   0.0000000   0.0000000), wk =   0.0047393
        k(   26) = (   0.1785714   0.0000000   0.0000000), wk =   0.0047393
        k(   27) = (   0.1857143   0.0000000   0.0000000), wk =   0.0047393
        k(   28) = (   0.1928571   0.0000000   0.0000000), wk =   0.0047393
        k(   29) = (   0.2000000   0.0000000   0.0000000), wk =   0.0047393
        k(   30) = (   0.2071429   0.0000000   0.0000000), wk =   0.0047393
        k(   31) = (   0.2142857   0.0000000   0.0000000), wk =   0.0047393
        k(   32) = (   0.2214286   0.0000000   0.0000000), wk =   0.0047393
        k(   33) = (   0.2285714   0.0000000   0.0000000), wk =   0.0047393
        k(   34) = (   0.2357143   0.0000000   0.0000000), wk =   0.0047393
        k(   35) = (   0.2428571   0.0000000   0.0000000), wk =   0.0047393
        k(   36) = (   0.2500000   0.0000000   0.0000000), wk =   0.0047393
        k(   37) = (   0.2571429   0.0000000   0.0000000), wk =   0.0047393
        k(   38) = (   0.2642857   0.0000000   0.0000000), wk =   0.0047393
        k(   39) = (   0.2714286   0.0000000   0.0000000), wk =   0.0047393
        k(   40) = (   0.2785714   0.0000000   0.0000000), wk =   0.0047393
        k(   41) = (   0.2857143   0.0000000   0.0000000), wk =   0.0047393
        k(   42) = (   0.2928571   0.0000000   0.0000000), wk =   0.0047393
        k(   43) = (   0.3000000   0.0000000   0.0000000), wk =   0.0047393
        k(   44) = (   0.3071429   0.0000000   0.0000000), wk =   0.0047393
        k(   45) = (   0.3142857   0.0000000   0.0000000), wk =   0.0047393
        k(   46) = (   0.3214286   0.0000000   0.0000000), wk =   0.0047393
        k(   47) = (   0.3285714   0.0000000   0.0000000), wk =   0.0047393
        k(   48) = (   0.3357143   0.0000000   0.0000000), wk =   0.0047393
        k(   49) = (   0.3428571   0.0000000   0.0000000), wk =   0.0047393
        k(   50) = (   0.3500000   0.0000000   0.0000000), wk =   0.0047393
        k(   51) = (   0.3571429   0.0000000   0.0000000), wk =   0.0047393
        k(   52) = (   0.3642857   0.0000000   0.0000000), wk =   0.0047393
        k(   53) = (   0.3714286   0.0000000   0.0000000), wk =   0.0047393
        k(   54) = (   0.3785714   0.0000000   0.0000000), wk =   0.0047393
        k(   55) = (   0.3857143   0.0000000   0.0000000), wk =   0.0047393
        k(   56) = (   0.3928571   0.0000000   0.0000000), wk =   0.0047393
        k(   57) = (   0.4000000   0.0000000   0.0000000), wk =   0.0047393
        k(   58) = (   0.4071429   0.0000000   0.0000000), wk =   0.0047393
        k(   59) = (   0.4142857   0.0000000   0.0000000), wk =   0.0047393
        k(   60) = (   0.4214286   0.0000000   0.0000000), wk =   0.0047393
        k(   61) = (   0.4285714   0.0000000   0.0000000), wk =   0.0047393
        k(   62) = (   0.4357143   0.0000000   0.0000000), wk =   0.0047393
        k(   63) = (   0.4428571   0.0000000   0.0000000), wk =   0.0047393
        k(   64) = (   0.4500000   0.0000000   0.0000000), wk =   0.0047393
        k(   65) = (   0.4571429   0.0000000   0.0000000), wk =   0.0047393
        k(   66) = (   0.4642857   0.0000000   0.0000000), wk =   0.0047393
        k(   67) = (   0.4714286   0.0000000   0.0000000), wk =   0.0047393
        k(   68) = (   0.4785714   0.0000000   0.0000000), wk =   0.0047393
        k(   69) = (   0.4857143   0.0000000   0.0000000), wk =   0.0047393
        k(   70) = (   0.4928571   0.0000000   0.0000000), wk =   0.0047393
        k(   71) = (   0.5000000   0.0000000   0.0000000), wk =   0.0047393
        k(   72) = (   0.4976190   0.0047619   0.0000000), wk =   0.0047393
        k(   73) = (   0.4952381   0.0095238   0.0000000), wk =   0.0047393
        k(   74) = (   0.4928571   0.0142857   0.0000000), wk =   0.0047393
        k(   75) = (   0.4904762   0.0190476   0.0000000), wk =   0.0047393
        k(   76) = (   0.4880952   0.0238095   0.0000000), wk =   0.0047393
        k(   77) = (   0.4857143   0.0285714   0.0000000), wk =   0.0047393
        k(   78) = (   0.4833333   0.0333333   0.0000000), wk =   0.0047393
        k(   79) = (   0.4809524   0.0380952   0.0000000), wk =   0.0047393
        k(   80) = (   0.4785714   0.0428571   0.0000000), wk =   0.0047393
        k(   81) = (   0.4761905   0.0476190   0.0000000), wk =   0.0047393
        k(   82) = (   0.4738095   0.0523810   0.0000000), wk =   0.0047393
        k(   83) = (   0.4714286   0.0571429   0.0000000), wk =   0.0047393
        k(   84) = (   0.4690476   0.0619048   0.0000000), wk =   0.0047393
        k(   85) = (   0.4666667   0.0666667   0.0000000), wk =   0.0047393
        k(   86) = (   0.4642857   0.0714286   0.0000000), wk =   0.0047393
        k(   87) = (   0.4619048   0.0761905   0.0000000), wk =   0.0047393
        k(   88) = (   0.4595238   0.0809524   0.0000000), wk =   0.0047393
        k(   89) = (   0.4571429   0.0857143   0.0000000), wk =   0.0047393
        k(   90) = (   0.4547619   0.0904762   0.0000000), wk =   0.0047393
        k(   91) = (   0.4523810   0.0952381   0.0000000), wk =   0.0047393
        k(   92) = (   0.4500000   0.1000000   0.0000000), wk =   0.0047393
        k(   93) = (   0.4476190   0.1047619   0.0000000), wk =   0.0047393
        k(   94) = (   0.4452381   0.1095238   0.0000000), wk =   0.0047393
        k(   95) = (   0.4428571   0.1142857   0.0000000), wk =   0.0047393
        k(   96) = (   0.4404762   0.1190476   0.0000000), wk =   0.0047393
        k(   97) = (   0.4380952   0.1238095   0.0000000), wk =   0.0047393
        k(   98) = (   0.4357143   0.1285714   0.0000000), wk =   0.0047393
        k(   99) = (   0.4333333   0.1333333   0.0000000), wk =   0.0047393
        k(  100) = (   0.4309524   0.1380952   0.0000000), wk =   0.0047393
        k(  101) = (   0.4285714   0.1428571   0.0000000), wk =   0.0047393
        k(  102) = (   0.4261905   0.1476190   0.0000000), wk =   0.0047393
        k(  103) = (   0.4238095   0.1523810   0.0000000), wk =   0.0047393
        k(  104) = (   0.4214286   0.1571429   0.0000000), wk =   0.0047393
        k(  105) = (   0.4190476   0.1619048   0.0000000), wk =   0.0047393
        k(  106) = (   0.4166667   0.1666667   0.0000000), wk =   0.0047393
        k(  107) = (   0.4142857   0.1714286   0.0000000), wk =   0.0047393
        k(  108) = (   0.4119048   0.1761905   0.0000000), wk =   0.0047393
        k(  109) = (   0.4095238   0.1809524   0.0000000), wk =   0.0047393
        k(  110) = (   0.4071429   0.1857143   0.0000000), wk =   0.0047393
        k(  111) = (   0.4047619   0.1904762   0.0000000), wk =   0.0047393
        k(  112) = (   0.4023810   0.1952381   0.0000000), wk =   0.0047393
        k(  113) = (   0.4000000   0.2000000   0.0000000), wk =   0.0047393
        k(  114) = (   0.3976190   0.2047619   0.0000000), wk =   0.0047393
        k(  115) = (   0.3952381   0.2095238   0.0000000), wk =   0.0047393
        k(  116) = (   0.3928571   0.2142857   0.0000000), wk =   0.0047393
        k(  117) = (   0.3904762   0.2190476   0.0000000), wk =   0.0047393
        k(  118) = (   0.3880952   0.2238095   0.0000000), wk =   0.0047393
        k(  119) = (   0.3857143   0.2285714   0.0000000), wk =   0.0047393
        k(  120) = (   0.3833333   0.2333333   0.0000000), wk =   0.0047393
        k(  121) = (   0.3809524   0.2380952   0.0000000), wk =   0.0047393
        k(  122) = (   0.3785714   0.2428571   0.0000000), wk =   0.0047393
        k(  123) = (   0.3761905   0.2476190   0.0000000), wk =   0.0047393
        k(  124) = (   0.3738095   0.2523810   0.0000000), wk =   0.0047393
        k(  125) = (   0.3714286   0.2571429   0.0000000), wk =   0.0047393
        k(  126) = (   0.3690476   0.2619048   0.0000000), wk =   0.0047393
        k(  127) = (   0.3666667   0.2666667   0.0000000), wk =   0.0047393
        k(  128) = (   0.3642857   0.2714286   0.0000000), wk =   0.0047393
        k(  129) = (   0.3619048   0.2761905   0.0000000), wk =   0.0047393
        k(  130) = (   0.3595238   0.2809524   0.0000000), wk =   0.0047393
        k(  131) = (   0.3571429   0.2857143   0.0000000), wk =   0.0047393
        k(  132) = (   0.3547619   0.2904762   0.0000000), wk =   0.0047393
        k(  133) = (   0.3523810   0.2952381   0.0000000), wk =   0.0047393
        k(  134) = (   0.3500000   0.3000000   0.0000000), wk =   0.0047393
        k(  135) = (   0.3476190   0.3047619   0.0000000), wk =   0.0047393
        k(  136) = (   0.3452381   0.3095238   0.0000000), wk =   0.0047393
        k(  137) = (   0.3428571   0.3142857   0.0000000), wk =   0.0047393
        k(  138) = (   0.3404762   0.3190476   0.0000000), wk =   0.0047393
        k(  139) = (   0.3380952   0.3238095   0.0000000), wk =   0.0047393
        k(  140) = (   0.3357143   0.3285714   0.0000000), wk =   0.0047393
        k(  141) = (   0.3333333   0.3333333   0.0000000), wk =   0.0047393
        k(  142) = (   0.3285714   0.3285714   0.0000000), wk =   0.0047393
        k(  143) = (   0.3238095   0.3238095   0.0000000), wk =   0.0047393
        k(  144) = (   0.3190476   0.3190476   0.0000000), wk =   0.0047393
        k(  145) = (   0.3142857   0.3142857   0.0000000), wk =   0.0047393
        k(  146) = (   0.3095238   0.3095238   0.0000000), wk =   0.0047393
        k(  147) = (   0.3047619   0.3047619   0.0000000), wk =   0.0047393
        k(  148) = (   0.3000000   0.3000000   0.0000000), wk =   0.0047393
        k(  149) = (   0.2952381   0.2952381   0.0000000), wk =   0.0047393
        k(  150) = (   0.2904762   0.2904762   0.0000000), wk =   0.0047393
        k(  151) = (   0.2857143   0.2857143   0.0000000), wk =   0.0047393
        k(  152) = (   0.2809524   0.2809524   0.0000000), wk =   0.0047393
        k(  153) = (   0.2761905   0.2761905   0.0000000), wk =   0.0047393
        k(  154) = (   0.2714286   0.2714286   0.0000000), wk =   0.0047393
        k(  155) = (   0.2666667   0.2666667   0.0000000), wk =   0.0047393
        k(  156) = (   0.2619048   0.2619048   0.0000000), wk =   0.0047393
        k(  157) = (   0.2571429   0.2571429   0.0000000), wk =   0.0047393
        k(  158) = (   0.2523810   0.2523810   0.0000000), wk =   0.0047393
        k(  159) = (   0.2476190   0.2476190   0.0000000), wk =   0.0047393
        k(  160) = (   0.2428571   0.2428571   0.0000000), wk =   0.0047393
        k(  161) = (   0.2380952   0.2380952   0.0000000), wk =   0.0047393
        k(  162) = (   0.2333333   0.2333333   0.0000000), wk =   0.0047393
        k(  163) = (   0.2285714   0.2285714   0.0000000), wk =   0.0047393
        k(  164) = (   0.2238095   0.2238095   0.0000000), wk =   0.0047393
        k(  165) = (   0.2190476   0.2190476   0.0000000), wk =   0.0047393
        k(  166) = (   0.2142857   0.2142857   0.0000000), wk =   0.0047393
        k(  167) = (   0.2095238   0.2095238   0.0000000), wk =   0.0047393
        k(  168) = (   0.2047619   0.2047619   0.0000000), wk =   0.0047393
        k(  169) = (   0.2000000   0.2000000   0.0000000), wk =   0.0047393
        k(  170) = (   0.1952381   0.1952381   0.0000000), wk =   0.0047393
        k(  171) = (   0.1904762   0.1904762   0.0000000), wk =   0.0047393
        k(  172) = (   0.1857143   0.1857143   0.0000000), wk =   0.0047393
        k(  173) = (   0.1809524   0.1809524   0.0000000), wk =   0.0047393
        k(  174) = (   0.1761905   0.1761905   0.0000000), wk =   0.0047393
        k(  175) = (   0.1714286   0.1714286   0.0000000), wk =   0.0047393
        k(  176) = (   0.1666667   0.1666667   0.0000000), wk =   0.0047393
        k(  177) = (   0.1619048   0.1619048   0.0000000), wk =   0.0047393
        k(  178) = (   0.1571429   0.1571429   0.0000000), wk =   0.0047393
        k(  179) = (   0.1523810   0.1523810   0.0000000), wk =   0.0047393
        k(  180) = (   0.1476190   0.1476190   0.0000000), wk =   0.0047393
        k(  181) = (   0.1428571   0.1428571   0.0000000), wk =   0.0047393
        k(  182) = (   0.1380952   0.1380952   0.0000000), wk =   0.0047393
        k(  183) = (   0.1333333   0.1333333   0.0000000), wk =   0.0047393
        k(  184) = (   0.1285714   0.1285714   0.0000000), wk =   0.0047393
        k(  185) = (   0.1238095   0.1238095   0.0000000), wk =   0.0047393
        k(  186) = (   0.1190476   0.1190476   0.0000000), wk =   0.0047393
        k(  187) = (   0.1142857   0.1142857   0.0000000), wk =   0.0047393
        k(  188) = (   0.1095238   0.1095238   0.0000000), wk =   0.0047393
        k(  189) = (   0.1047619   0.1047619   0.0000000), wk =   0.0047393
        k(  190) = (   0.1000000   0.1000000   0.0000000), wk =   0.0047393
        k(  191) = (   0.0952381   0.0952381   0.0000000), wk =   0.0047393
        k(  192) = (   0.0904762   0.0904762   0.0000000), wk =   0.0047393
        k(  193) = (   0.0857143   0.0857143   0.0000000), wk =   0.0047393
        k(  194) = (   0.0809524   0.0809524   0.0000000), wk =   0.0047393
        k(  195) = (   0.0761905   0.0761905   0.0000000), wk =   0.0047393
        k(  196) = (   0.0714286   0.0714286   0.0000000), wk =   0.0047393
        k(  197) = (   0.0666667   0.0666667   0.0000000), wk =   0.0047393
        k(  198) = (   0.0619048   0.0619048   0.0000000), wk =   0.0047393
        k(  199) = (   0.0571429   0.0571429   0.0000000), wk =   0.0047393
        k(  200) = (   0.0523810   0.0523810   0.0000000), wk =   0.0047393
        k(  201) = (   0.0476190   0.0476190   0.0000000), wk =   0.0047393
        k(  202) = (   0.0428571   0.0428571   0.0000000), wk =   0.0047393
        k(  203) = (   0.0380952   0.0380952   0.0000000), wk =   0.0047393
        k(  204) = (   0.0333333   0.0333333   0.0000000), wk =   0.0047393
        k(  205) = (   0.0285714   0.0285714   0.0000000), wk =   0.0047393
        k(  206) = (   0.0238095   0.0238095   0.0000000), wk =   0.0047393
        k(  207) = (   0.0190476   0.0190476   0.0000000), wk =   0.0047393
        k(  208) = (   0.0142857   0.0142857   0.0000000), wk =   0.0047393
        k(  209) = (   0.0095238   0.0095238   0.0000000), wk =   0.0047393
        k(  210) = (   0.0047619   0.0047619   0.0000000), wk =   0.0047393
        k(  211) = (   0.0000000   0.0000000   0.0000000), wk =   0.0047393

     Dense  grid:   472441 G-vectors     FFT dimensions: (  64,  60, 300)

     Smooth grid:   119521 G-vectors     FFT dimensions: (  40,  40, 192)

     Dynamical RAM for                 wfc:       1.90 MB

     Dynamical RAM for     wfc (w. buffer):       1.90 MB

     Dynamical RAM for           str. fact:       0.60 MB

     Dynamical RAM for           local pot:       0.00 MB

     Dynamical RAM for          nlocal pot:       1.61 MB

     Dynamical RAM for                qrad:       9.40 MB

     Dynamical RAM for          rho,v,vnew:       8.18 MB

     Dynamical RAM for           G-vectors:       1.16 MB

     Dynamical RAM for          h,s,v(r/c):       1.83 MB

     Dynamical RAM for          <psi|beta>:       0.52 MB

     Dynamical RAM for                 psi:       3.80 MB

     Dynamical RAM for                hpsi:       3.80 MB

     Dynamical RAM for      wfcinit/wfcrot:       3.08 MB

     Estimated static dynamical RAM per process >      26.80 MB

     Estimated max dynamical RAM per process >      36.74 MB

     Estimated total dynamical RAM >     881.81 MB

     The potential is recalculated from file :
     tmp/Sb2Te3-uatsx-c4-soc-4.0.save/charge-density

     Starting wfcs are random

     Band Structure Calculation
     Davidson diagonalization with overlap

     Computing kpt #:     1  of   211
     total cpu time spent up to now is        5.8 secs

     Computing kpt #:     2  of   211
     total cpu time spent up to now is        9.9 secs

     Computing kpt #:     3  of   211
     total cpu time spent up to now is       14.0 secs

     Computing kpt #:     4  of   211
     total cpu time spent up to now is       18.0 secs

     Computing kpt #:     5  of   211
     total cpu time spent up to now is       22.1 secs

     Computing kpt #:     6  of   211
     total cpu time spent up to now is       26.2 secs

     Computing kpt #:     7  of   211
     total cpu time spent up to now is       30.2 secs

     Computing kpt #:     8  of   211
     total cpu time spent up to now is       34.2 secs

     Computing kpt #:     9  of   211
     total cpu time spent up to now is       38.3 secs

     Computing kpt #:    10  of   211
     total cpu time spent up to now is       42.3 secs

     Computing kpt #:    11  of   211
     total cpu time spent up to now is       46.3 secs

     Computing kpt #:    12  of   211
     total cpu time spent up to now is       50.3 secs

     Computing kpt #:    13  of   211
     total cpu time spent up to now is       54.3 secs

     Computing kpt #:    14  of   211
     total cpu time spent up to now is       58.6 secs

     Computing kpt #:    15  of   211
     total cpu time spent up to now is       63.3 secs

     Computing kpt #:    16  of   211
     total cpu time spent up to now is       67.2 secs

     Computing kpt #:    17  of   211
     total cpu time spent up to now is       71.2 secs

     Computing kpt #:    18  of   211
     total cpu time spent up to now is       75.2 secs

     Computing kpt #:    19  of   211
     total cpu time spent up to now is       79.1 secs

     Computing kpt #:    20  of   211
     total cpu time spent up to now is       83.0 secs

     Computing kpt #:    21  of   211
     total cpu time spent up to now is       87.0 secs

     Computing kpt #:    22  of   211
     total cpu time spent up to now is       91.1 secs

     Computing kpt #:    23  of   211
     total cpu time spent up to now is       95.1 secs

     Computing kpt #:    24  of   211
     total cpu time spent up to now is       99.0 secs

     Computing kpt #:    25  of   211
     total cpu time spent up to now is      103.0 secs

     Computing kpt #:    26  of   211
     total cpu time spent up to now is      106.7 secs

     Computing kpt #:    27  of   211
     total cpu time spent up to now is      110.7 secs

     Computing kpt #:    28  of   211
     total cpu time spent up to now is      114.7 secs

     Computing kpt #:    29  of   211
     total cpu time spent up to now is      118.7 secs

     Computing kpt #:    30  of   211
     total cpu time spent up to now is      122.8 secs

     Computing kpt #:    31  of   211
     total cpu time spent up to now is      126.8 secs

     Computing kpt #:    32  of   211
     total cpu time spent up to now is      130.8 secs

     Computing kpt #:    33  of   211
     total cpu time spent up to now is      134.9 secs

     Computing kpt #:    34  of   211
     total cpu time spent up to now is      139.0 secs

     Computing kpt #:    35  of   211
     total cpu time spent up to now is      143.3 secs

     Computing kpt #:    36  of   211
     total cpu time spent up to now is      147.7 secs

     Computing kpt #:    37  of   211
     total cpu time spent up to now is      151.8 secs

     Computing kpt #:    38  of   211
     total cpu time spent up to now is      156.1 secs

     Computing kpt #:    39  of   211
     total cpu time spent up to now is      160.1 secs

     Computing kpt #:    40  of   211
     total cpu time spent up to now is      164.7 secs

     Computing kpt #:    41  of   211
     total cpu time spent up to now is      168.8 secs

     Computing kpt #:    42  of   211
     total cpu time spent up to now is      172.9 secs

     Computing kpt #:    43  of   211
     total cpu time spent up to now is      177.0 secs

     Computing kpt #:    44  of   211
     total cpu time spent up to now is      181.0 secs

     Computing kpt #:    45  of   211
     total cpu time spent up to now is      185.1 secs

     Computing kpt #:    46  of   211
     total cpu time spent up to now is      189.2 secs

     Computing kpt #:    47  of   211
     total cpu time spent up to now is      193.3 secs

     Computing kpt #:    48  of   211
     total cpu time spent up to now is      197.4 secs

     Computing kpt #:    49  of   211
     total cpu time spent up to now is      201.4 secs

     Computing kpt #:    50  of   211
     total cpu time spent up to now is      205.5 secs

     Computing kpt #:    51  of   211
     total cpu time spent up to now is      209.6 secs

     Computing kpt #:    52  of   211
     total cpu time spent up to now is      213.7 secs

     Computing kpt #:    53  of   211
     total cpu time spent up to now is      217.7 secs

     Computing kpt #:    54  of   211
     total cpu time spent up to now is      221.8 secs

     Computing kpt #:    55  of   211
     total cpu time spent up to now is      225.9 secs

     Computing kpt #:    56  of   211
     total cpu time spent up to now is      230.0 secs

     Computing kpt #:    57  of   211
     total cpu time spent up to now is      234.0 secs

     Computing kpt #:    58  of   211
     total cpu time spent up to now is      238.2 secs

     Computing kpt #:    59  of   211
     total cpu time spent up to now is      242.3 secs

     Computing kpt #:    60  of   211
     total cpu time spent up to now is      246.4 secs

     Computing kpt #:    61  of   211
     total cpu time spent up to now is      250.6 secs

     Computing kpt #:    62  of   211
     total cpu time spent up to now is      254.7 secs

     Computing kpt #:    63  of   211
     total cpu time spent up to now is      258.8 secs

     Computing kpt #:    64  of   211
     total cpu time spent up to now is      262.9 secs

     Computing kpt #:    65  of   211
     total cpu time spent up to now is      267.0 secs

     Computing kpt #:    66  of   211
     total cpu time spent up to now is      271.1 secs

     Computing kpt #:    67  of   211
     total cpu time spent up to now is      275.2 secs

     Computing kpt #:    68  of   211
     total cpu time spent up to now is      279.3 secs

     Computing kpt #:    69  of   211
     total cpu time spent up to now is      283.3 secs

     Computing kpt #:    70  of   211
     total cpu time spent up to now is      287.4 secs

     Computing kpt #:    71  of   211
     total cpu time spent up to now is      291.7 secs

     Computing kpt #:    72  of   211
     total cpu time spent up to now is      295.7 secs

     Computing kpt #:    73  of   211
     total cpu time spent up to now is      299.8 secs

     Computing kpt #:    74  of   211
     total cpu time spent up to now is      303.9 secs

     Computing kpt #:    75  of   211
     total cpu time spent up to now is      308.0 secs

     Computing kpt #:    76  of   211
     total cpu time spent up to now is      312.1 secs

     Computing kpt #:    77  of   211
     total cpu time spent up to now is      316.3 secs

     Computing kpt #:    78  of   211
     total cpu time spent up to now is      320.4 secs

     Computing kpt #:    79  of   211
     total cpu time spent up to now is      324.5 secs

     Computing kpt #:    80  of   211
     total cpu time spent up to now is      328.6 secs

     Computing kpt #:    81  of   211
     total cpu time spent up to now is      332.6 secs

     Computing kpt #:    82  of   211
     total cpu time spent up to now is      336.7 secs

     Computing kpt #:    83  of   211
     total cpu time spent up to now is      340.9 secs

     Computing kpt #:    84  of   211
     total cpu time spent up to now is      345.0 secs

     Computing kpt #:    85  of   211
     total cpu time spent up to now is      349.3 secs

     Computing kpt #:    86  of   211
     total cpu time spent up to now is      353.4 secs

     Computing kpt #:    87  of   211
     total cpu time spent up to now is      357.9 secs

     Computing kpt #:    88  of   211
     total cpu time spent up to now is      362.0 secs

     Computing kpt #:    89  of   211
     total cpu time spent up to now is      366.6 secs

     Computing kpt #:    90  of   211
     total cpu time spent up to now is      370.8 secs

     Computing kpt #:    91  of   211
     total cpu time spent up to now is      374.9 secs

     Computing kpt #:    92  of   211
     total cpu time spent up to now is      379.1 secs

     Computing kpt #:    93  of   211
     total cpu time spent up to now is      383.4 secs

     Computing kpt #:    94  of   211
     total cpu time spent up to now is      387.9 secs

     Computing kpt #:    95  of   211
     total cpu time spent up to now is      392.4 secs

     Computing kpt #:    96  of   211
     total cpu time spent up to now is      396.6 secs

     Computing kpt #:    97  of   211
     total cpu time spent up to now is      400.7 secs

     Computing kpt #:    98  of   211
     total cpu time spent up to now is      405.0 secs

     Computing kpt #:    99  of   211
     total cpu time spent up to now is      409.5 secs

     Computing kpt #:   100  of   211
     total cpu time spent up to now is      413.7 secs

     Computing kpt #:   101  of   211
     total cpu time spent up to now is      417.9 secs

     Computing kpt #:   102  of   211
     total cpu time spent up to now is      422.5 secs

     Computing kpt #:   103  of   211
     total cpu time spent up to now is      426.6 secs

     Computing kpt #:   104  of   211
     total cpu time spent up to now is      430.9 secs

     Computing kpt #:   105  of   211
     total cpu time spent up to now is      435.2 secs

     Computing kpt #:   106  of   211
     total cpu time spent up to now is      439.7 secs

     Computing kpt #:   107  of   211
     total cpu time spent up to now is      444.2 secs

     Computing kpt #:   108  of   211
     total cpu time spent up to now is      448.9 secs

     Computing kpt #:   109  of   211
     total cpu time spent up to now is      453.4 secs

     Computing kpt #:   110  of   211
     total cpu time spent up to now is      458.0 secs

     Computing kpt #:   111  of   211
     total cpu time spent up to now is      462.5 secs

     Computing kpt #:   112  of   211
     total cpu time spent up to now is      467.0 secs

     Computing kpt #:   113  of   211
     total cpu time spent up to now is      471.3 secs

     Computing kpt #:   114  of   211
     total cpu time spent up to now is      476.0 secs

     Computing kpt #:   115  of   211
     total cpu time spent up to now is      480.5 secs

     Computing kpt #:   116  of   211
     total cpu time spent up to now is      484.8 secs

     Computing kpt #:   117  of   211
     total cpu time spent up to now is      489.1 secs

     Computing kpt #:   118  of   211
     total cpu time spent up to now is      493.9 secs

     Computing kpt #:   119  of   211
     total cpu time spent up to now is      498.2 secs

     Computing kpt #:   120  of   211
     total cpu time spent up to now is      502.4 secs

     Computing kpt #:   121  of   211
     total cpu time spent up to now is      506.7 secs

     Computing kpt #:   122  of   211
     total cpu time spent up to now is      510.9 secs

     Computing kpt #:   123  of   211
     total cpu time spent up to now is      515.1 secs

     Computing kpt #:   124  of   211
     total cpu time spent up to now is      519.3 secs

     Computing kpt #:   125  of   211
     total cpu time spent up to now is      523.8 secs

     Computing kpt #:   126  of   211
     total cpu time spent up to now is      528.0 secs

     Computing kpt #:   127  of   211
     total cpu time spent up to now is      532.1 secs

     Computing kpt #:   128  of   211
     total cpu time spent up to now is      536.3 secs

     Computing kpt #:   129  of   211
     total cpu time spent up to now is      540.4 secs

     Computing kpt #:   130  of   211
     total cpu time spent up to now is      545.2 secs

     Computing kpt #:   131  of   211
     total cpu time spent up to now is      549.5 secs

     Computing kpt #:   132  of   211
     total cpu time spent up to now is      553.6 secs

     Computing kpt #:   133  of   211
     total cpu time spent up to now is      557.7 secs

     Computing kpt #:   134  of   211
     total cpu time spent up to now is      561.8 secs

     Computing kpt #:   135  of   211
     total cpu time spent up to now is      565.9 secs

     Computing kpt #:   136  of   211
     total cpu time spent up to now is      570.8 secs

     Computing kpt #:   137  of   211
     total cpu time spent up to now is      575.2 secs

     Computing kpt #:   138  of   211
     total cpu time spent up to now is      579.3 secs

     Computing kpt #:   139  of   211
     total cpu time spent up to now is      583.4 secs

     Computing kpt #:   140  of   211
     total cpu time spent up to now is      587.6 secs

     Computing kpt #:   141  of   211
     total cpu time spent up to now is      591.7 secs

     Computing kpt #:   142  of   211
     total cpu time spent up to now is      595.9 secs

     Computing kpt #:   143  of   211
     total cpu time spent up to now is      600.5 secs

     Computing kpt #:   144  of   211
     total cpu time spent up to now is      604.7 secs

     Computing kpt #:   145  of   211
     total cpu time spent up to now is      608.9 secs

     Computing kpt #:   146  of   211
     total cpu time spent up to now is      612.9 secs

     Computing kpt #:   147  of   211
     total cpu time spent up to now is      617.1 secs

     Computing kpt #:   148  of   211
     total cpu time spent up to now is      621.2 secs

     Computing kpt #:   149  of   211
     total cpu time spent up to now is      625.8 secs

     Computing kpt #:   150  of   211
     total cpu time spent up to now is      629.9 secs

     Computing kpt #:   151  of   211
     total cpu time spent up to now is      634.2 secs

     Computing kpt #:   152  of   211
     total cpu time spent up to now is      638.4 secs

     Computing kpt #:   153  of   211
     total cpu time spent up to now is      642.6 secs

     Computing kpt #:   154  of   211
     total cpu time spent up to now is      646.9 secs

     Computing kpt #:   155  of   211
     total cpu time spent up to now is      651.3 secs

     Computing kpt #:   156  of   211
     total cpu time spent up to now is      655.5 secs

     Computing kpt #:   157  of   211
     total cpu time spent up to now is      659.8 secs

     Computing kpt #:   158  of   211
     total cpu time spent up to now is      664.3 secs

     Computing kpt #:   159  of   211
     total cpu time spent up to now is      668.6 secs

     Computing kpt #:   160  of   211
     total cpu time spent up to now is      672.9 secs

     Computing kpt #:   161  of   211
     total cpu time spent up to now is      677.0 secs

     Computing kpt #:   162  of   211
     total cpu time spent up to now is      681.0 secs

     Computing kpt #:   163  of   211
     total cpu time spent up to now is      685.1 secs

     Computing kpt #:   164  of   211
     total cpu time spent up to now is      689.0 secs

     Computing kpt #:   165  of   211
     total cpu time spent up to now is      693.1 secs

     Computing kpt #:   166  of   211
     total cpu time spent up to now is      697.2 secs

     Computing kpt #:   167  of   211
     total cpu time spent up to now is      701.1 secs

     Computing kpt #:   168  of   211
     total cpu time spent up to now is      705.2 secs

     Computing kpt #:   169  of   211
     total cpu time spent up to now is      709.1 secs

     Computing kpt #:   170  of   211
     total cpu time spent up to now is      713.1 secs

     Computing kpt #:   171  of   211
     total cpu time spent up to now is      717.2 secs

     Computing kpt #:   172  of   211
     total cpu time spent up to now is      721.2 secs

     Computing kpt #:   173  of   211
     total cpu time spent up to now is      725.2 secs

     Computing kpt #:   174  of   211
     total cpu time spent up to now is      729.3 secs

     Computing kpt #:   175  of   211
     total cpu time spent up to now is      733.3 secs

     Computing kpt #:   176  of   211
     total cpu time spent up to now is      737.4 secs

     Computing kpt #:   177  of   211
     total cpu time spent up to now is      741.5 secs

     Computing kpt #:   178  of   211
     total cpu time spent up to now is      745.7 secs

     Computing kpt #:   179  of   211
     total cpu time spent up to now is      749.8 secs

     Computing kpt #:   180  of   211
     total cpu time spent up to now is      754.0 secs

     Computing kpt #:   181  of   211
     total cpu time spent up to now is      758.7 secs

     Computing kpt #:   182  of   211
     total cpu time spent up to now is      763.2 secs

     Computing kpt #:   183  of   211
     total cpu time spent up to now is      767.7 secs

     Computing kpt #:   184  of   211
     total cpu time spent up to now is      771.9 secs

     Computing kpt #:   185  of   211
     total cpu time spent up to now is      775.9 secs

     Computing kpt #:   186  of   211
     total cpu time spent up to now is      780.0 secs

     Computing kpt #:   187  of   211
     total cpu time spent up to now is      784.0 secs

     Computing kpt #:   188  of   211
     total cpu time spent up to now is      788.0 secs

     Computing kpt #:   189  of   211
     total cpu time spent up to now is      792.0 secs

     Computing kpt #:   190  of   211
     total cpu time spent up to now is      795.9 secs

     Computing kpt #:   191  of   211
     total cpu time spent up to now is      799.9 secs

     Computing kpt #:   192  of   211
     total cpu time spent up to now is      803.8 secs

     Computing kpt #:   193  of   211
     total cpu time spent up to now is      807.9 secs

     Computing kpt #:   194  of   211
     total cpu time spent up to now is      811.9 secs

     Computing kpt #:   195  of   211
     total cpu time spent up to now is      816.0 secs

     Computing kpt #:   196  of   211
     total cpu time spent up to now is      820.0 secs

     Computing kpt #:   197  of   211
     total cpu time spent up to now is      824.0 secs

     Computing kpt #:   198  of   211
     total cpu time spent up to now is      828.1 secs

     Computing kpt #:   199  of   211
     total cpu time spent up to now is      832.1 secs

     Computing kpt #:   200  of   211
     total cpu time spent up to now is      836.1 secs

     Computing kpt #:   201  of   211
     total cpu time spent up to now is      840.1 secs

     Computing kpt #:   202  of   211
     total cpu time spent up to now is      844.3 secs

     Computing kpt #:   203  of   211
     total cpu time spent up to now is      848.3 secs

     Computing kpt #:   204  of   211
     total cpu time spent up to now is      852.4 secs

     Computing kpt #:   205  of   211
     total cpu time spent up to now is      856.5 secs

     Computing kpt #:   206  of   211
     total cpu time spent up to now is      860.7 secs

     Computing kpt #:   207  of   211
     total cpu time spent up to now is      864.8 secs

     Computing kpt #:   208  of   211
     total cpu time spent up to now is      868.9 secs

     Computing kpt #:   209  of   211
     total cpu time spent up to now is      873.0 secs

     Computing kpt #:   210  of   211
     total cpu time spent up to now is      877.2 secs

     Computing kpt #:   211  of   211
     total cpu time spent up to now is      881.1 secs

     ethr =  1.28E-10,  avg # of iterations = 50.9

     total cpu time spent up to now is      881.1 secs

     End of band structure calculation

          k = 0.0000 0.0000 0.0000 ( 14963 PWs)   bands (ev):

   -35.6389 -35.6389 -35.6342 -35.6342 -35.6051 -35.6051 -35.6005 -35.6005
   -35.5354 -35.5354 -35.5045 -35.5045 -34.1805 -34.1805 -34.1759 -34.1759
   -34.1521 -34.1521 -34.1476 -34.1476 -34.1366 -34.1366 -34.1320 -34.1320
   -34.0739 -34.0739 -34.0566 -34.0566 -34.0333 -34.0333 -28.2891 -28.2891
   -28.2860 -28.2860 -28.2806 -28.2806 -28.2775 -28.2775 -27.0496 -27.0496
   -27.0465 -27.0465 -27.0412 -27.0412 -27.0381 -27.0381 -27.0379 -27.0379
   -27.0348 -27.0348 -10.7104 -10.7104 -10.1706 -10.1706  -9.0992  -9.0992
    -6.3632  -6.3632  -5.0193  -5.0193  -0.6478  -0.6478  -0.2278  -0.2278
     0.0677   0.0677   0.3165   0.3165   0.3944   0.3944   0.4836   0.4836
     0.7818   0.7818   1.0401   1.0401   1.2390   1.2390   1.8447   1.8447
     2.5275   2.5275   2.9095   2.9095   3.0831   3.0831   3.8071   3.8071
     4.0428   4.0428   6.0997   6.0997   6.2833   6.2833   6.9229   6.9229
     7.2233   7.2233   7.4611   7.4611

          k = 0.0071 0.0041 0.0000 ( 14959 PWs)   bands (ev):

   -35.6389 -35.6389 -35.6342 -35.6342 -35.6051 -35.6051 -35.6005 -35.6005
   -35.5354 -35.5354 -35.5045 -35.5045 -34.1805 -34.1805 -34.1759 -34.1759
   -34.1521 -34.1521 -34.1476 -34.1476 -34.1366 -34.1366 -34.1320 -34.1320
   -34.0739 -34.0739 -34.0566 -34.0566 -34.0333 -34.0333 -28.2891 -28.2891
   -28.2860 -28.2860 -28.2806 -28.2806 -28.2775 -28.2775 -27.0496 -27.0496
   -27.0465 -27.0465 -27.0412 -27.0412 -27.0381 -27.0381 -27.0379 -27.0379
   -27.0348 -27.0348 -10.7100 -10.7100 -10.1702 -10.1702  -9.0990  -9.0990
    -6.3633  -6.3633  -5.0201  -5.0201  -0.6487  -0.6486  -0.2344  -0.2341
     0.0688   0.0690   0.3087   0.3094   0.3869   0.3873   0.4935   0.4940
     0.7838   0.7840   1.0379   1.0380   1.2405   1.2405   1.8514   1.8515
     2.5262   2.5263   2.9028   2.9030   3.0913   3.0916   3.8089   3.8090
     4.0425   4.0425   6.1005   6.1005   6.2833   6.2833   6.9230   6.9230
     7.2212   7.2212   7.4609   7.4609

          k = 0.0143 0.0082 0.0000 ( 14969 PWs)   bands (ev):

   -35.6389 -35.6389 -35.6342 -35.6342 -35.6051 -35.6051 -35.6005 -35.6005
   -35.5354 -35.5354 -35.5045 -35.5045 -34.1805 -34.1805 -34.1759 -34.1759
   -34.1521 -34.1521 -34.1476 -34.1476 -34.1366 -34.1366 -34.1320 -34.1320
   -34.0739 -34.0739 -34.0566 -34.0566 -34.0333 -34.0333 -28.2891 -28.2891
   -28.2860 -28.2860 -28.2806 -28.2806 -28.2775 -28.2775 -27.0496 -27.0496
   -27.0465 -27.0465 -27.0412 -27.0412 -27.0381 -27.0381 -27.0379 -27.0379
   -27.0348 -27.0348 -10.7088 -10.7088 -10.1691 -10.1691  -9.0984  -9.0984
    -6.3637  -6.3637  -5.0227  -5.0227  -0.6512  -0.6511  -0.2530  -0.2524
     0.0716   0.0720   0.2860   0.2872   0.3747   0.3754   0.5142   0.5150
     0.7899   0.7902   1.0316   1.0318   1.2457   1.2459   1.8707   1.8709
     2.5222   2.5224   2.8868   2.8871   3.1125   3.1130   3.8143   3.8145
     4.0417   4.0418   6.1027   6.1027   6.2836   6.2836   6.9234   6.9235
     7.2150   7.2150   7.4602   7.4602

          k = 0.0214 0.0124 0.0000 ( 14972 PWs)   bands (ev):

   -35.6389 -35.6389 -35.6342 -35.6342 -35.6051 -35.6051 -35.6005 -35.6005
   -35.5354 -35.5354 -35.5045 -35.5045 -34.1805 -34.1805 -34.1759 -34.1759
   -34.1521 -34.1521 -34.1476 -34.1476 -34.1366 -34.1366 -34.1320 -34.1320
   -34.0739 -34.0739 -34.0566 -34.0566 -34.0333 -34.0333 -28.2891 -28.2891
   -28.2860 -28.2860 -28.2806 -28.2806 -28.2775 -28.2775 -27.0496 -27.0496
   -27.0465 -27.0464 -27.0412 -27.0412 -27.0381 -27.0381 -27.0379 -27.0379
   -27.0348 -27.0348 -10.7067 -10.7067 -10.1672 -10.1672  -9.0973  -9.0973
    -6.3642  -6.3642  -5.0269  -5.0269  -0.6554  -0.6553  -0.2820  -0.2811
     0.0746   0.0751   0.2517   0.2531   0.3656   0.3664   0.5347   0.5355
     0.7993   0.7998   1.0219   1.0222   1.2564   1.2567   1.9007   1.9010
     2.5155   2.5158   2.8679   2.8683   3.1407   3.1413   3.8231   3.8234
     4.0408   4.0408   6.1063   6.1064   6.2839   6.2840   6.9240   6.9241
     7.2048   7.2049   7.4593   7.4593

          k = 0.0286 0.0165 0.0000 ( 14964 PWs)   bands (ev):

   -35.6389 -35.6389 -35.6342 -35.6342 -35.6051 -35.6051 -35.6005 -35.6005
   -35.5354 -35.5354 -35.5045 -35.5045 -34.1805 -34.1805 -34.1759 -34.1758
   -34.1521 -34.1521 -34.1476 -34.1476 -34.1366 -34.1366 -34.1320 -34.1320
   -34.0739 -34.0739 -34.0566 -34.0566 -34.0333 -34.0333 -28.2891 -28.2891
   -28.2860 -28.2859 -28.2806 -28.2806 -28.2775 -28.2775 -27.0496 -27.0496
   -27.0465 -27.0464 -27.0412 -27.0412 -27.0381 -27.0381 -27.0379 -27.0379
   -27.0348 -27.0348 -10.7038 -10.7038 -10.1646 -10.1646  -9.0958  -9.0958
    -6.3650  -6.3650  -5.0328  -5.0328  -0.6613  -0.6612  -0.3193  -0.3182
     0.0758   0.0763   0.2111   0.2126   0.3585   0.3594   0.5504   0.5513
     0.8104   0.8110   1.0114   1.0118   1.2734   1.2738   1.9388   1.9391
     2.5061   2.5064   2.8509   2.8513   3.1717   3.1724   3.8350   3.8354
     4.0400   4.0400   6.1115   6.1115   6.2845   6.2845   6.9246   6.9246
     7.1910   7.1911   7.4583   7.4584

          k = 0.0357 0.0206 0.0000 ( 14963 PWs)   bands (ev):

   -35.6389 -35.6388 -35.6342 -35.6342 -35.6051 -35.6051 -35.6005 -35.6005
   -35.5354 -35.5354 -35.5045 -35.5045 -34.1805 -34.1805 -34.1759 -34.1758
   -34.1521 -34.1521 -34.1476 -34.1476 -34.1366 -34.1366 -34.1320 -34.1320
   -34.0739 -34.0739 -34.0566 -34.0566 -34.0333 -34.0333 -28.2891 -28.2891
   -28.2860 -28.2859 -28.2806 -28.2806 -28.2775 -28.2775 -27.0496 -27.0496
   -27.0464 -27.0464 -27.0412 -27.0412 -27.0381 -27.0381 -27.0379 -27.0379
   -27.0348 -27.0348 -10.7001 -10.7001 -10.1612 -10.1612  -9.0938  -9.0938
    -6.3660  -6.3660  -5.0404  -5.0403  -0.6690  -0.6689  -0.3632  -0.3619
     0.0735   0.0739   0.1683   0.1697   0.3517   0.3525   0.5597   0.5605
     0.8203   0.8210   1.0046   1.0051   1.2964   1.2969   1.9819   1.9824
     2.4945   2.4948   2.8384   2.8389   3.2032   3.2040   3.8493   3.8498
     4.0400   4.0401   6.1180   6.1181   6.2851   6.2851   6.9247   6.9248
     7.1741   7.1742   7.4574   7.4575

          k = 0.0429 0.0247 0.0000 ( 14963 PWs)   bands (ev):

   -35.6389 -35.6388 -35.6342 -35.6342 -35.6051 -35.6051 -35.6005 -35.6005
   -35.5354 -35.5354 -35.5045 -35.5045 -34.1805 -34.1805 -34.1758 -34.1758
   -34.1521 -34.1521 -34.1476 -34.1476 -34.1366 -34.1366 -34.1320 -34.1320
   -34.0739 -34.0739 -34.0566 -34.0566 -34.0333 -34.0333 -28.2891 -28.2891
   -28.2860 -28.2859 -28.2806 -28.2806 -28.2775 -28.2775 -27.0496 -27.0496
   -27.0464 -27.0464 -27.0412 -27.0412 -27.0382 -27.0381 -27.0379 -27.0379
   -27.0348 -27.0348 -10.6956 -10.6956 -10.1571 -10.1571  -9.0914  -9.0914
    -6.3672  -6.3672  -5.0496  -5.0496  -0.6786  -0.6784  -0.4122  -0.4108
     0.0657   0.0660   0.1264   0.1275   0.3439   0.3448   0.5618   0.5626
     0.8262   0.8268   1.0063   1.0068   1.3243   1.3248   2.0274   2.0279
     2.4823   2.4826   2.8319   2.8323   3.2339   3.2348   3.8650   3.8657
     4.0419   4.0420   6.1259   6.1260   6.2857   6.2858   6.9240   6.9240
     7.1551   7.1552   7.4568   7.4569

          k = 0.0500 0.0289 0.0000 ( 14959 PWs)   bands (ev):

   -35.6388 -35.6388 -35.6342 -35.6342 -35.6051 -35.6051 -35.6005 -35.6005
   -35.5354 -35.5354 -35.5045 -35.5045 -34.1805 -34.1805 -34.1758 -34.1758
   -34.1521 -34.1521 -34.1476 -34.1476 -34.1366 -34.1366 -34.1320 -34.1320
   -34.0739 -34.0739 -34.0566 -34.0566 -34.0333 -34.0333 -28.2891 -28.2891
   -28.2860 -28.2859 -28.2806 -28.2806 -28.2775 -28.2775 -27.0496 -27.0496
   -27.0464 -27.0464 -27.0412 -27.0412 -27.0382 -27.0381 -27.0379 -27.0379
   -27.0348 -27.0348 -10.6903 -10.6903 -10.1523 -10.1523  -9.0886  -9.0886
    -6.3687  -6.3687  -5.0605  -5.0605  -0.6902  -0.6899  -0.4651  -0.4635
     0.0465   0.0477   0.0913   0.0922   0.3342   0.3352   0.5569   0.5576
     0.8275   0.8281   1.0185   1.0189   1.3551   1.3557   2.0720   2.0726
     2.4722   2.4724   2.8316   2.8319   3.2632   3.2641   3.8810   3.8817
     4.0469   4.0471   6.1351   6.1352   6.2864   6.2865   6.9215   6.9216
     7.1353   7.1354   7.4566   7.4566

          k = 0.0571 0.0330 0.0000 ( 14959 PWs)   bands (ev):

   -35.6388 -35.6388 -35.6342 -35.6342 -35.6051 -35.6051 -35.6005 -35.6005
   -35.5354 -35.5354 -35.5045 -35.5045 -34.1805 -34.1805 -34.1758 -34.1758
   -34.1521 -34.1521 -34.1476 -34.1476 -34.1366 -34.1366 -34.1320 -34.1320
   -34.0739 -34.0739 -34.0566 -34.0566 -34.0333 -34.0333 -28.2891 -28.2891
   -28.2860 -28.2859 -28.2806 -28.2806 -28.2775 -28.2775 -27.0496 -27.0496
   -27.0464 -27.0464 -27.0413 -27.0412 -27.0382 -27.0381 -27.0379 -27.0379
   -27.0348 -27.0348 -10.6841 -10.6841 -10.1467 -10.1467  -9.0854  -9.0854
    -6.3704  -6.3704  -5.0731  -5.0730  -0.7042  -0.7038  -0.5206  -0.5188
     0.0117   0.0134   0.0686   0.0696   0.3219   0.3230   0.5453   0.5460
     0.8270   0.8274   1.0396   1.0398   1.3870   1.3876   2.1125   2.1132
     2.4678   2.4679   2.8372   2.8375   3.2907   3.2917   3.8955   3.8963
     4.0566   4.0569   6.1456   6.1457   6.2869   6.2871   6.9163   6.9164
     7.1162   7.1163   7.4567   7.4568

          k = 0.0643 0.0371 0.0000 ( 14961 PWs)   bands (ev):

   -35.6388 -35.6388 -35.6342 -35.6342 -35.6051 -35.6051 -35.6005 -35.6005
   -35.5354 -35.5354 -35.5045 -35.5045 -34.1805 -34.1805 -34.1758 -34.1758
   -34.1521 -34.1521 -34.1476 -34.1476 -34.1366 -34.1366 -34.1320 -34.1320
   -34.0739 -34.0739 -34.0566 -34.0566 -34.0333 -34.0333 -28.2891 -28.2891
   -28.2860 -28.2859 -28.2806 -28.2806 -28.2775 -28.2775 -27.0496 -27.0496
   -27.0464 -27.0464 -27.0413 -27.0412 -27.0382 -27.0381 -27.0379 -27.0379
   -27.0348 -27.0348 -10.6771 -10.6771 -10.1404 -10.1404  -9.0818  -9.0818
    -6.3724  -6.3724  -5.0873  -5.0872  -0.7215  -0.7209  -0.5772  -0.5751
    -0.0313  -0.0295   0.0514   0.0524   0.3060   0.3074   0.5285   0.5292
     0.8273   0.8277   1.0665   1.0668   1.4178   1.4185   2.1457   2.1466
     2.4730   2.4732   2.8484   2.8486   3.3164   3.3174   3.9073   3.9083
     4.0722   4.0725   6.1573   6.1575   6.2873   6.2875   6.9071   6.9072
     7.0998   7.0999   7.4574   7.4574

          k = 0.0714 0.0412 0.0000 ( 14957 PWs)   bands (ev):

   -35.6388 -35.6388 -35.6342 -35.6342 -35.6051 -35.6051 -35.6005 -35.6005
   -35.5354 -35.5354 -35.5045 -35.5045 -34.1805 -34.1805 -34.1758 -34.1758
   -34.1521 -34.1521 -34.1476 -34.1476 -34.1366 -34.1366 -34.1320 -34.1320
   -34.0739 -34.0739 -34.0566 -34.0566 -34.0333 -34.0333 -28.2891 -28.2891
   -28.2860 -28.2859 -28.2806 -28.2806 -28.2775 -28.2775 -27.0496 -27.0495
   -27.0464 -27.0464 -27.0413 -27.0412 -27.0382 -27.0381 -27.0379 -27.0379
   -27.0348 -27.0348 -10.6693 -10.6693 -10.1334 -10.1334  -9.0778  -9.0778
    -6.3747  -6.3747  -5.1030  -5.1030  -0.7441  -0.7431  -0.6322  -0.6297
    -0.0768  -0.0751   0.0346   0.0354   0.2861   0.2877   0.5083   0.5091
     0.8300   0.8303   1.0970   1.0972   1.4454   1.4461   2.1704   2.1713
     2.4905   2.4908   2.8645   2.8646   3.3403   3.3413   3.9163   3.9173
     4.0937   4.0941   6.1702   6.1704   6.2874   6.2876   6.8930   6.8931
     7.0876   7.0878   7.4585   7.4585

          k = 0.0786 0.0454 0.0000 ( 14963 PWs)   bands (ev):

   -35.6388 -35.6388 -35.6342 -35.6342 -35.6051 -35.6051 -35.6005 -35.6005
   -35.5354 -35.5354 -35.5045 -35.5045 -34.1805 -34.1804 -34.1758 -34.1758
   -34.1521 -34.1521 -34.1476 -34.1476 -34.1366 -34.1366 -34.1320 -34.1320
   -34.0739 -34.0739 -34.0566 -34.0566 -34.0333 -34.0333 -28.2891 -28.2891
   -28.2860 -28.2859 -28.2806 -28.2806 -28.2775 -28.2775 -27.0495 -27.0495
   -27.0464 -27.0464 -27.0413 -27.0412 -27.0382 -27.0381 -27.0379 -27.0379
   -27.0348 -27.0348 -10.6608 -10.6608 -10.1256 -10.1256  -9.0734  -9.0734
    -6.3774  -6.3774  -5.1205  -5.1204  -0.7761  -0.7749  -0.6806  -0.6778
    -0.1234  -0.1217   0.0168   0.0176   0.2619   0.2637   0.4869   0.4877
     0.8351   0.8354   1.1292   1.1296   1.4677   1.4684   2.1881   2.1891
     2.5199   2.5203   2.8850   2.8850   3.3627   3.3638   3.9230   3.9241
     4.1205   4.1209   6.1842   6.1844   6.2870   6.2872   6.8737   6.8738
     7.0806   7.0807   7.4601   7.4602

          k = 0.0857 0.0495 0.0000 ( 14959 PWs)   bands (ev):

   -35.6388 -35.6388 -35.6342 -35.6342 -35.6051 -35.6051 -35.6005 -35.6005
   -35.5354 -35.5354 -35.5045 -35.5045 -34.1805 -34.1804 -34.1758 -34.1758
   -34.1521 -34.1521 -34.1476 -34.1476 -34.1366 -34.1366 -34.1320 -34.1320
   -34.0739 -34.0739 -34.0566 -34.0566 -34.0333 -34.0333 -28.2891 -28.2890
   -28.2859 -28.2859 -28.2806 -28.2806 -28.2775 -28.2775 -27.0495 -27.0495
   -27.0464 -27.0464 -27.0413 -27.0412 -27.0382 -27.0381 -27.0379 -27.0379
   -27.0348 -27.0348 -10.6513 -10.6513 -10.1172 -10.1172  -9.0686  -9.0686
    -6.3803  -6.3803  -5.1395  -5.1394  -0.8216  -0.8205  -0.7176  -0.7150
    -0.1708  -0.1692  -0.0021  -0.0014   0.2336   0.2355   0.4658   0.4667
     0.8422   0.8424   1.1621   1.1625   1.4829   1.4836   2.2030   2.2039
     2.5582   2.5587   2.9092   2.9093   3.3841   3.3852   3.9288   3.9299
     4.1512   4.1515   6.1992   6.1994   6.2859   6.2862   6.8501   6.8502
     7.0785   7.0786   7.4624   7.4624

          k = 0.0929 0.0536 0.0000 ( 14959 PWs)   bands (ev):

   -35.6388 -35.6388 -35.6342 -35.6342 -35.6051 -35.6051 -35.6005 -35.6005
   -35.5354 -35.5354 -35.5045 -35.5045 -34.1804 -34.1804 -34.1758 -34.1758
   -34.1521 -34.1521 -34.1476 -34.1476 -34.1366 -34.1366 -34.1320 -34.1320
   -34.0739 -34.0739 -34.0566 -34.0566 -34.0333 -34.0333 -28.2891 -28.2890
   -28.2859 -28.2859 -28.2806 -28.2806 -28.2775 -28.2775 -27.0495 -27.0495
   -27.0464 -27.0464 -27.0413 -27.0412 -27.0382 -27.0381 -27.0379 -27.0379
   -27.0348 -27.0348 -10.6411 -10.6411 -10.1080 -10.1080  -9.0634  -9.0634
    -6.3836  -6.3836  -5.1600  -5.1600  -0.8781  -0.8774  -0.7454  -0.7431
    -0.2189  -0.2174  -0.0220  -0.0214   0.2018   0.2039   0.4460   0.4469
     0.8504   0.8507   1.1948   1.1953   1.4900   1.4908   2.2192   2.2200
     2.6018   2.6024   2.9367   2.9368   3.4050   3.4061   3.9349   3.9360
     4.1844   4.1847   6.2150   6.2154   6.2839   6.2842   6.8239   6.8239
     7.0804   7.0805   7.4653   7.4653

          k = 0.1000 0.0577 0.0000 ( 14954 PWs)   bands (ev):

   -35.6388 -35.6388 -35.6342 -35.6342 -35.6051 -35.6051 -35.6005 -35.6005
   -35.5354 -35.5354 -35.5045 -35.5045 -34.1804 -34.1804 -34.1758 -34.1758
   -34.1521 -34.1521 -34.1476 -34.1476 -34.1366 -34.1366 -34.1320 -34.1320
   -34.0739 -34.0739 -34.0566 -34.0566 -34.0333 -34.0333 -28.2891 -28.2890
   -28.2859 -28.2859 -28.2806 -28.2806 -28.2775 -28.2775 -27.0495 -27.0495
   -27.0464 -27.0463 -27.0413 -27.0412 -27.0382 -27.0381 -27.0379 -27.0379
   -27.0348 -27.0348 -10.6301 -10.6301 -10.0980 -10.0980  -9.0578  -9.0578
    -6.3873  -6.3873  -5.1821  -5.1821  -0.9406  -0.9403  -0.7686  -0.7667
    -0.2678  -0.2664  -0.0430  -0.0424   0.1677   0.1699   0.4277   0.4286
     0.8592   0.8594   1.2262   1.2268   1.4891   1.4899   2.2394   2.2401
     2.6480   2.6486   2.9665   2.9667   3.4262   3.4273   3.9424   3.9435
     4.2190   4.2194   6.2316   6.2320   6.2807   6.2811   6.7965   6.7966
     7.0854   7.0855   7.4690   7.4690

          k = 0.1071 0.0619 0.0000 ( 14960 PWs)   bands (ev):

   -35.6388 -35.6388 -35.6342 -35.6342 -35.6051 -35.6050 -35.6005 -35.6005
   -35.5354 -35.5354 -35.5045 -35.5045 -34.1804 -34.1804 -34.1758 -34.1758
   -34.1521 -34.1521 -34.1476 -34.1476 -34.1366 -34.1366 -34.1320 -34.1320
   -34.0739 -34.0739 -34.0566 -34.0566 -34.0333 -34.0333 -28.2891 -28.2890
   -28.2859 -28.2859 -28.2806 -28.2806 -28.2775 -28.2775 -27.0495 -27.0495
   -27.0463 -27.0463 -27.0413 -27.0412 -27.0383 -27.0381 -27.0379 -27.0379
   -27.0348 -27.0348 -10.6183 -10.6183 -10.0874 -10.0874  -9.0520  -9.0520
    -6.3914  -6.3914  -5.2058  -5.2057  -1.0061  -1.0059  -0.7902  -0.7885
    -0.3176  -0.3163  -0.0652  -0.0646   0.1325   0.1347   0.4109   0.4118
     0.8679   0.8681   1.2551   1.2558   1.4814   1.4823   2.2645   2.2652
     2.6949   2.6955   2.9977   2.9979   3.4484   3.4496   3.9521   3.9531
     4.2542   4.2545   6.2482   6.2489   6.2763   6.2770   6.7695   6.7696
     7.0928   7.0929   7.4736   7.4736

          k = 0.1143 0.0660 0.0000 ( 14963 PWs)   bands (ev):

   -35.6388 -35.6388 -35.6342 -35.6342 -35.6051 -35.6050 -35.6005 -35.6005
   -35.5354 -35.5354 -35.5045 -35.5045 -34.1804 -34.1804 -34.1758 -34.1758
   -34.1521 -34.1521 -34.1476 -34.1476 -34.1366 -34.1366 -34.1320 -34.1320
   -34.0739 -34.0739 -34.0566 -34.0566 -34.0333 -34.0333 -28.2891 -28.2890
   -28.2859 -28.2859 -28.2806 -28.2806 -28.2775 -28.2775 -27.0495 -27.0495
   -27.0463 -27.0463 -27.0413 -27.0412 -27.0383 -27.0381 -27.0379 -27.0378
   -27.0348 -27.0348 -10.6057 -10.6057 -10.0761 -10.0761  -9.0457  -9.0457
    -6.3960  -6.3960  -5.2309  -5.2309  -1.0731  -1.0729  -0.8110  -0.8095
    -0.3681  -0.3669  -0.0887  -0.0882   0.0972   0.0995   0.3953   0.3962
     0.8761   0.8763   1.2790   1.2798   1.4703   1.4713   2.2943   2.2949
     2.7416   2.7422   3.0290   3.0293   3.4727   3.4738   3.9645   3.9656
     4.2893   4.2896   6.2596   6.2608   6.2755   6.2766   6.7442   6.7443
     7.1021   7.1022   7.4793   7.4793

          k = 0.1214 0.0701 0.0000 ( 14951 PWs)   bands (ev):

   -35.6388 -35.6388 -35.6342 -35.6342 -35.6051 -35.6050 -35.6005 -35.6005
   -35.5354 -35.5354 -35.5045 -35.5045 -34.1804 -34.1804 -34.1758 -34.1758
   -34.1521 -34.1521 -34.1476 -34.1476 -34.1366 -34.1365 -34.1320 -34.1320
   -34.0739 -34.0739 -34.0566 -34.0566 -34.0333 -34.0333 -28.2891 -28.2890
   -28.2859 -28.2859 -28.2806 -28.2806 -28.2775 -28.2775 -27.0495 -27.0494
   -27.0463 -27.0463 -27.0413 -27.0412 -27.0383 -27.0381 -27.0379 -27.0378
   -27.0348 -27.0348 -10.5923 -10.5923 -10.0641 -10.0641  -9.0391  -9.0391
    -6.4009  -6.4009  -5.2574  -5.2574  -1.1407  -1.1406  -0.8315  -0.8301
    -0.4196  -0.4185  -0.1137  -0.1133   0.0628   0.0651   0.3809   0.3817
     0.8833   0.8835   1.2941   1.2949   1.4609   1.4620   2.3276   2.3282
     2.7877   2.7884   3.0591   3.0595   3.4999   3.5010   3.9803   3.9813
     4.3238   4.3241   6.2545   6.2550   6.2903   6.2907   6.7218   6.7218
     7.1128   7.1129   7.4862   7.4862

          k = 0.1286 0.0742 0.0000 ( 14946 PWs)   bands (ev):

   -35.6388 -35.6388 -35.6342 -35.6342 -35.6051 -35.6050 -35.6005 -35.6005
   -35.5354 -35.5354 -35.5045 -35.5045 -34.1804 -34.1804 -34.1758 -34.1758
   -34.1521 -34.1521 -34.1476 -34.1476 -34.1366 -34.1365 -34.1320 -34.1320
   -34.0739 -34.0739 -34.0566 -34.0566 -34.0333 -34.0333 -28.2891 -28.2890
   -28.2859 -28.2859 -28.2806 -28.2806 -28.2775 -28.2775 -27.0494 -27.0494
   -27.0463 -27.0463 -27.0413 -27.0412 -27.0383 -27.0381 -27.0379 -27.0378
   -27.0348 -27.0348 -10.5781 -10.5780 -10.0513 -10.0513  -9.0322  -9.0322
    -6.4064  -6.4064  -5.2853  -5.2853  -1.2086  -1.2084  -0.8519  -0.8505
    -0.4718  -0.4708  -0.1405  -0.1401   0.0301   0.0323   0.3674   0.3683
     0.8890   0.8893   1.2952   1.2960   1.4598   1.4608   2.3631   2.3636
     2.8333   2.8339   3.0871   3.0874   3.5306   3.5316   3.9998   4.0007
     4.3573   4.3575   6.2422   6.2424   6.3093   6.3095   6.7031   6.7032
     7.1248   7.1249   7.4945   7.4945

          k = 0.1357 0.0784 0.0000 ( 14953 PWs)   bands (ev):

   -35.6388 -35.6388 -35.6342 -35.6342 -35.6051 -35.6050 -35.6005 -35.6005
   -35.5354 -35.5354 -35.5045 -35.5045 -34.1804 -34.1804 -34.1758 -34.1757
   -34.1521 -34.1521 -34.1476 -34.1476 -34.1366 -34.1365 -34.1320 -34.1320
   -34.0739 -34.0739 -34.0566 -34.0566 -34.0332 -34.0332 -28.2891 -28.2890
   -28.2859 -28.2859 -28.2806 -28.2806 -28.2775 -28.2775 -27.0494 -27.0494
   -27.0463 -27.0462 -27.0414 -27.0412 -27.0383 -27.0381 -27.0379 -27.0378
   -27.0348 -27.0348 -10.5631 -10.5631 -10.0380 -10.0380  -9.0250  -9.0250
    -6.4125  -6.4125  -5.3147  -5.3146  -1.2763  -1.2761  -0.8720  -0.8708
    -0.5247  -0.5238  -0.1691  -0.1687  -0.0005   0.0016   0.3548   0.3556
     0.8930   0.8933   1.2811   1.2817   1.4696   1.4704   2.3994   2.3998
     2.8784   2.8789   3.1123   3.1127   3.5649   3.5657   4.0233   4.0241
     4.3895   4.3897   6.2258   6.2259   6.3293   6.3294   6.6889   6.6889
[...]
    -6.4083  -6.4083  -5.3178  -5.3178  -1.2031  -1.2027  -0.8936  -0.8924
    -0.6979  -0.6974  -0.2241  -0.2224   0.1168   0.1176   0.2782   0.2788
     0.6602   0.6606   1.3144   1.3154   1.5000   1.5010   2.4311   2.4321
     2.7307   2.7310   3.1076   3.1079   3.7075   3.7088   4.0207   4.0217
     4.4661   4.4663   6.2991   6.2994   6.3570   6.3572   6.7395   6.7396
     6.9895   6.9896   7.5261   7.5261

          k = 0.0762 0.1355 0.0000 ( 14960 PWs)   bands (ev):

   -35.6388 -35.6388 -35.6342 -35.6342 -35.6051 -35.6050 -35.6005 -35.6005
   -35.5354 -35.5354 -35.5045 -35.5045 -34.1804 -34.1804 -34.1758 -34.1757
   -34.1521 -34.1521 -34.1476 -34.1476 -34.1366 -34.1365 -34.1320 -34.1319
   -34.0739 -34.0739 -34.0566 -34.0566 -34.0332 -34.0332 -28.2890 -28.2890
   -28.2859 -28.2858 -28.2807 -28.2806 -28.2776 -28.2775 -27.0494 -27.0494
   -27.0462 -27.0462 -27.0413 -27.0411 -27.0383 -27.0381 -27.0379 -27.0378
   -27.0349 -27.0348 -10.5655 -10.5655 -10.0393 -10.0393  -9.0238  -9.0238
    -6.4021  -6.4020  -5.2846  -5.2845  -1.1354  -1.1351  -0.8609  -0.8595
    -0.6302  -0.6297  -0.1838  -0.1820   0.1422   0.1432   0.2968   0.2974
     0.6785   0.6788   1.3130   1.3141   1.4854   1.4867   2.4155   2.4166
     2.6807   2.6810   3.0773   3.0776   3.6612   3.6626   3.9880   3.9890
     4.4281   4.4283   6.2969   6.2973   6.3347   6.3351   6.7665   6.7666
     7.0004   7.0005   7.5078   7.5079

          k = 0.0714 0.1270 0.0000 ( 14963 PWs)   bands (ev):

   -35.6388 -35.6388 -35.6342 -35.6342 -35.6051 -35.6050 -35.6005 -35.6005
   -35.5354 -35.5354 -35.5045 -35.5045 -34.1804 -34.1804 -34.1758 -34.1758
   -34.1521 -34.1521 -34.1476 -34.1476 -34.1366 -34.1365 -34.1320 -34.1319
   -34.0739 -34.0739 -34.0566 -34.0566 -34.0332 -34.0332 -28.2890 -28.2890
   -28.2859 -28.2858 -28.2807 -28.2806 -28.2776 -28.2775 -27.0494 -27.0494
   -27.0463 -27.0462 -27.0413 -27.0411 -27.0383 -27.0381 -27.0379 -27.0378
   -27.0349 -27.0348 -10.5830 -10.5830 -10.0550 -10.0550  -9.0326  -9.0326
    -6.3964  -6.3964  -5.2531  -5.2530  -1.0673  -1.0670  -0.8316  -0.8300
    -0.5596  -0.5591  -0.1437  -0.1419   0.1640   0.1649   0.3162   0.3168
     0.6974   0.6978   1.3009   1.3020   1.4779   1.4793   2.3928   2.3939
     2.6372   2.6374   3.0481   3.0484   3.6095   3.6109   3.9646   3.9657
     4.3888   4.3890   6.2888   6.2895   6.3181   6.3187   6.7929   6.7930
     7.0141   7.0143   7.4923   7.4924

          k = 0.0667 0.1186 0.0000 ( 14965 PWs)   bands (ev):

   -35.6388 -35.6388 -35.6342 -35.6342 -35.6051 -35.6050 -35.6005 -35.6005
   -35.5354 -35.5354 -35.5045 -35.5045 -34.1804 -34.1804 -34.1758 -34.1758
   -34.1521 -34.1521 -34.1476 -34.1476 -34.1366 -34.1365 -34.1320 -34.1320
   -34.0739 -34.0739 -34.0566 -34.0566 -34.0333 -34.0333 -28.2890 -28.2890
   -28.2859 -28.2859 -28.2807 -28.2806 -28.2776 -28.2775 -27.0494 -27.0494
   -27.0463 -27.0463 -27.0413 -27.0411 -27.0382 -27.0381 -27.0379 -27.0378
   -27.0349 -27.0348 -10.5993 -10.5993 -10.0697 -10.0697  -9.0408  -9.0408
    -6.3914  -6.3914  -5.2235  -5.2234  -0.9994  -0.9991  -0.8038  -0.8019
    -0.4881  -0.4875  -0.1039  -0.1020   0.1823   0.1833   0.3367   0.3373
     0.7165   0.7169   1.2776   1.2787   1.4774   1.4788   2.3612   2.3623
     2.6029   2.6031   3.0186   3.0189   3.5560   3.5575   3.9485   3.9496
     4.3482   4.3483   6.2728   6.2734   6.3101   6.3107   6.8181   6.8182
     7.0302   7.0304   7.4797   7.4798

          k = 0.0619 0.1101 0.0000 ( 14977 PWs)   bands (ev):

   -35.6388 -35.6388 -35.6342 -35.6342 -35.6051 -35.6050 -35.6005 -35.6005
   -35.5354 -35.5354 -35.5045 -35.5045 -34.1804 -34.1804 -34.1758 -34.1758
   -34.1521 -34.1521 -34.1476 -34.1476 -34.1366 -34.1365 -34.1320 -34.1320
   -34.0739 -34.0739 -34.0566 -34.0566 -34.0333 -34.0333 -28.2891 -28.2890
   -28.2859 -28.2859 -28.2807 -28.2806 -28.2776 -28.2775 -27.0495 -27.0494
   -27.0463 -27.0463 -27.0413 -27.0411 -27.0382 -27.0381 -27.0379 -27.0378
   -27.0349 -27.0348 -10.6145 -10.6145 -10.0835 -10.0835  -9.0486  -9.0486
    -6.3869  -6.3869  -5.1958  -5.1957  -0.9331  -0.9325  -0.7761  -0.7739
    -0.4169  -0.4163  -0.0645  -0.0626   0.1979   0.1989   0.3583   0.3589
     0.7355   0.7359   1.2456   1.2466   1.4806   1.4819   2.3217   2.3228
     2.5784   2.5787   2.9875   2.9879   3.5041   3.5055   3.9377   3.9387
     4.3063   4.3065   6.2531   6.2536   6.3062   6.3066   6.8416   6.8418
     7.0480   7.0481   7.4703   7.4703

          k = 0.0571 0.1016 0.0000 ( 14969 PWs)   bands (ev):

   -35.6388 -35.6388 -35.6342 -35.6342 -35.6051 -35.6050 -35.6005 -35.6005
   -35.5354 -35.5354 -35.5045 -35.5045 -34.1804 -34.1804 -34.1758 -34.1758
   -34.1521 -34.1521 -34.1476 -34.1476 -34.1366 -34.1365 -34.1320 -34.1320
   -34.0739 -34.0739 -34.0566 -34.0566 -34.0333 -34.0333 -28.2891 -28.2890
   -28.2859 -28.2859 -28.2807 -28.2806 -28.2776 -28.2775 -27.0495 -27.0495
   -27.0463 -27.0463 -27.0413 -27.0411 -27.0382 -27.0381 -27.0379 -27.0379
   -27.0349 -27.0348 -10.6287 -10.6287 -10.0963 -10.0963  -9.0559  -9.0559
    -6.3828  -6.3828  -5.1699  -5.1699  -0.8703  -0.8694  -0.7465  -0.7439
    -0.3467  -0.3461  -0.0262  -0.0243   0.2117   0.2126   0.3811   0.3818
     0.7540   0.7545   1.2080   1.2088   1.4832   1.4843   2.2777   2.2788
     2.5618   2.5622   2.9543   2.9547   3.4561   3.4575   3.9306   3.9315
     4.2637   4.2639   6.2331   6.2334   6.3033   6.3036   6.8629   6.8630
     7.0670   7.0672   7.4638   7.4639

          k = 0.0524 0.0931 0.0000 ( 14962 PWs)   bands (ev):

   -35.6388 -35.6388 -35.6342 -35.6342 -35.6051 -35.6050 -35.6005 -35.6005
   -35.5354 -35.5354 -35.5045 -35.5045 -34.1804 -34.1804 -34.1758 -34.1758
   -34.1521 -34.1521 -34.1476 -34.1476 -34.1366 -34.1366 -34.1320 -34.1320
   -34.0739 -34.0739 -34.0566 -34.0566 -34.0333 -34.0333 -28.2891 -28.2890
   -28.2859 -28.2859 -28.2807 -28.2806 -28.2775 -28.2775 -27.0495 -27.0495
   -27.0464 -27.0463 -27.0413 -27.0412 -27.0382 -27.0381 -27.0379 -27.0379
   -27.0349 -27.0348 -10.6417 -10.6417 -10.1080 -10.1080  -9.0626  -9.0626
    -6.3793  -6.3793  -5.1461  -5.1460  -0.8151  -0.8138  -0.7111  -0.7082
    -0.2780  -0.2774   0.0100   0.0118   0.2245   0.2254   0.4051   0.4059
     0.7721   0.7726   1.1672   1.1680   1.4814   1.4825   2.2330   2.2341
     2.5506   2.5510   2.9194   2.9199   3.4132   3.4145   3.9257   3.9266
     4.2211   4.2212   6.2137   6.2140   6.3007   6.3010   6.8813   6.8814
     7.0869   7.0871   7.4602   7.4602

          k = 0.0476 0.0847 0.0000 ( 14968 PWs)   bands (ev):

   -35.6388 -35.6388 -35.6342 -35.6342 -35.6051 -35.6051 -35.6005 -35.6005
   -35.5354 -35.5354 -35.5045 -35.5045 -34.1804 -34.1804 -34.1758 -34.1758
   -34.1521 -34.1521 -34.1476 -34.1476 -34.1366 -34.1366 -34.1320 -34.1320
   -34.0739 -34.0739 -34.0566 -34.0566 -34.0333 -34.0333 -28.2891 -28.2890
   -28.2859 -28.2859 -28.2806 -28.2806 -28.2775 -28.2775 -27.0495 -27.0495
   -27.0464 -27.0464 -27.0413 -27.0412 -27.0382 -27.0381 -27.0379 -27.0379
   -27.0349 -27.0348 -10.6536 -10.6536 -10.1188 -10.1188  -9.0689  -9.0689
    -6.3762  -6.3762  -5.1242  -5.1242  -0.7721  -0.7708  -0.6656  -0.6626
    -0.2112  -0.2105   0.0428   0.0445   0.2374   0.2382   0.4300   0.4309
     0.7896   0.7901   1.1253   1.1260   1.4725   1.4735   2.1902   2.1912
     2.5429   2.5434   2.8845   2.8850   3.3755   3.3767   3.9218   3.9226
     4.1796   4.1797   6.1954   6.1956   6.2982   6.2984   6.8963   6.8964
     7.1073   7.1075   7.4587   7.4587

          k = 0.0429 0.0762 0.0000 ( 14968 PWs)   bands (ev):

   -35.6388 -35.6388 -35.6342 -35.6342 -35.6051 -35.6051 -35.6005 -35.6005
   -35.5354 -35.5354 -35.5045 -35.5045 -34.1805 -34.1805 -34.1758 -34.1758
   -34.1521 -34.1521 -34.1476 -34.1476 -34.1366 -34.1366 -34.1320 -34.1320
   -34.0739 -34.0739 -34.0566 -34.0566 -34.0333 -34.0333 -28.2891 -28.2891
   -28.2859 -28.2859 -28.2806 -28.2806 -28.2775 -28.2775 -27.0495 -27.0495
   -27.0464 -27.0464 -27.0412 -27.0412 -27.0382 -27.0381 -27.0379 -27.0379
   -27.0349 -27.0348 -10.6644 -10.6644 -10.1286 -10.1286  -9.0746  -9.0746
    -6.3735  -6.3735  -5.1044  -5.1044  -0.7412  -0.7403  -0.6106  -0.6080
    -0.1463  -0.1456   0.0706   0.0721   0.2513   0.2520   0.4555   0.4565
     0.8065   0.8071   1.0841   1.0847   1.4551   1.4561   2.1501   2.1511
     2.5377   2.5381   2.8523   2.8529   3.3420   3.3431   3.9175   3.9182
     4.1408   4.1409   6.1783   6.1785   6.2957   6.2958   6.9077   6.9079
     7.1277   7.1279   7.4586   7.4586

          k = 0.0381 0.0677 0.0000 ( 14957 PWs)   bands (ev):

   -35.6388 -35.6388 -35.6342 -35.6342 -35.6051 -35.6051 -35.6005 -35.6005
   -35.5354 -35.5354 -35.5045 -35.5045 -34.1805 -34.1805 -34.1758 -34.1758
   -34.1521 -34.1521 -34.1476 -34.1476 -34.1366 -34.1366 -34.1320 -34.1320
   -34.0739 -34.0739 -34.0566 -34.0566 -34.0333 -34.0333 -28.2891 -28.2891
   -28.2859 -28.2859 -28.2806 -28.2806 -28.2775 -28.2775 -27.0496 -27.0495
   -27.0464 -27.0464 -27.0412 -27.0412 -27.0382 -27.0381 -27.0379 -27.0379
   -27.0349 -27.0348 -10.6740 -10.6740 -10.1374 -10.1374  -9.0797  -9.0797
    -6.3712  -6.3712  -5.0866  -5.0865  -0.7183  -0.7177  -0.5513  -0.5491
    -0.0837  -0.0831   0.0927   0.0940   0.2666   0.2672   0.4806   0.4817
     0.8223   0.8230   1.0457   1.0464   1.4294   1.4303   2.1117   2.1127
     2.5343   2.5347   2.8260   2.8266   3.3112   3.3122   3.9109   3.9116
     4.1069   4.1070   6.1626   6.1627   6.2933   6.2935   6.9158   6.9159
     7.1476   7.1477   7.4590   7.4590

          k = 0.0333 0.0593 0.0000 ( 14961 PWs)   bands (ev):

   -35.6388 -35.6388 -35.6342 -35.6342 -35.6051 -35.6051 -35.6005 -35.6005
   -35.5354 -35.5354 -35.5045 -35.5045 -34.1805 -34.1805 -34.1758 -34.1758
   -34.1521 -34.1521 -34.1476 -34.1476 -34.1366 -34.1366 -34.1320 -34.1320
   -34.0739 -34.0739 -34.0566 -34.0566 -34.0333 -34.0333 -28.2891 -28.2891
   -28.2860 -28.2859 -28.2806 -28.2806 -28.2775 -28.2775 -27.0496 -27.0496
   -27.0464 -27.0464 -27.0412 -27.0412 -27.0382 -27.0381 -27.0379 -27.0379
   -27.0349 -27.0348 -10.6825 -10.6825 -10.1452 -10.1451  -9.0842  -9.0842
    -6.3692  -6.3692  -5.0708  -5.0708  -0.7003  -0.6999  -0.4917  -0.4897
    -0.0244  -0.0238   0.1096   0.1107   0.2832   0.2838   0.5035   0.5049
     0.8351   0.8359   1.0138   1.0144   1.3969   1.3977   2.0733   2.0743
     2.5323   2.5327   2.8087   2.8092   3.2816   3.2824   3.9005   3.9011
     4.0799   4.0801   6.1484   6.1485   6.2911   6.2912   6.9208   6.9209
     7.1660   7.1661   7.4593   7.4594

          k = 0.0286 0.0508 0.0000 ( 14953 PWs)   bands (ev):

   -35.6388 -35.6388 -35.6342 -35.6342 -35.6051 -35.6051 -35.6005 -35.6005
   -35.5354 -35.5354 -35.5045 -35.5045 -34.1805 -34.1805 -34.1758 -34.1758
   -34.1521 -34.1521 -34.1476 -34.1476 -34.1366 -34.1366 -34.1320 -34.1320
   -34.0739 -34.0739 -34.0566 -34.0566 -34.0333 -34.0333 -28.2891 -28.2891
   -28.2860 -28.2859 -28.2806 -28.2806 -28.2775 -28.2775 -27.0496 -27.0496
   -27.0464 -27.0464 -27.0412 -27.0412 -27.0382 -27.0381 -27.0379 -27.0379
   -27.0348 -27.0348 -10.6899 -10.6899 -10.1519 -10.1519  -9.0882  -9.0882
    -6.3675  -6.3675  -5.0572  -5.0571  -0.6857  -0.6854  -0.4341  -0.4324
     0.0282   0.0285   0.1254   0.1265   0.3002   0.3008   0.5222   0.5237
     0.8410   0.8418   0.9937   0.9943   1.3605   1.3613   2.0333   2.0342
     2.5312   2.5315   2.8024   2.8030   3.2516   3.2523   3.8856   3.8861
     4.0613   4.0615   6.1358   6.1360   6.2891   6.2892   6.9236   6.9237
     7.1823   7.1824   7.4595   7.4595

          k = 0.0238 0.0423 0.0000 ( 14947 PWs)   bands (ev):

   -35.6388 -35.6388 -35.6342 -35.6342 -35.6051 -35.6051 -35.6005 -35.6005
   -35.5354 -35.5354 -35.5045 -35.5045 -34.1805 -34.1805 -34.1758 -34.1758
   -34.1521 -34.1521 -34.1476 -34.1476 -34.1366 -34.1366 -34.1320 -34.1320
   -34.0739 -34.0739 -34.0566 -34.0566 -34.0333 -34.0333 -28.2891 -28.2891
   -28.2860 -28.2859 -28.2806 -28.2806 -28.2775 -28.2775 -27.0496 -27.0496
   -27.0464 -27.0464 -27.0412 -27.0412 -27.0381 -27.0381 -27.0379 -27.0379
   -27.0348 -27.0348 -10.6961 -10.6961 -10.1575 -10.1575  -9.0915  -9.0915
    -6.3662  -6.3662  -5.0456  -5.0456  -0.6738  -0.6736  -0.3802  -0.3787
     0.0641   0.0646   0.1505   0.1518   0.3167   0.3174   0.5342   0.5357
     0.8360   0.8367   0.9901   0.9907   1.3238   1.3245   1.9915   1.9922
     2.5304   2.5307   2.8078   2.8084   3.2204   3.2209   3.8674   3.8677
     4.0503   4.0505   6.1250   6.1251   6.2874   6.2875   6.9247   6.9247
     7.1959   7.1960   7.4596   7.4596

          k = 0.0190 0.0339 0.0000 ( 14959 PWs)   bands (ev):

   -35.6389 -35.6389 -35.6342 -35.6342 -35.6051 -35.6051 -35.6005 -35.6005
   -35.5354 -35.5354 -35.5045 -35.5045 -34.1805 -34.1805 -34.1758 -34.1758
   -34.1521 -34.1521 -34.1476 -34.1476 -34.1366 -34.1366 -34.1320 -34.1320
   -34.0739 -34.0739 -34.0566 -34.0566 -34.0333 -34.0333 -28.2891 -28.2891
   -28.2860 -28.2859 -28.2806 -28.2806 -28.2775 -28.2775 -27.0496 -27.0496
   -27.0464 -27.0464 -27.0412 -27.0412 -27.0381 -27.0381 -27.0379 -27.0379
   -27.0348 -27.0348 -10.7013 -10.7013 -10.1622 -10.1622  -9.0943  -9.0943
    -6.3651  -6.3651  -5.0362  -5.0361  -0.6643  -0.6642  -0.3314  -0.3302
     0.0773   0.0780   0.1916   0.1930   0.3323   0.3330   0.5373   0.5389
     0.8222   0.8228   1.0004   1.0009   1.2906   1.2913   1.9490   1.9496
     2.5297   2.5299   2.8238   2.8244   3.1875   3.1879   3.8485   3.8487
     4.0450   4.0451   6.1160   6.1161   6.2859   6.2860   6.9247   6.9247
     7.2066   7.2066   7.4598   7.4598

          k = 0.0143 0.0254 0.0000 ( 14972 PWs)   bands (ev):

   -35.6389 -35.6389 -35.6342 -35.6342 -35.6051 -35.6051 -35.6005 -35.6005
   -35.5354 -35.5354 -35.5045 -35.5045 -34.1805 -34.1805 -34.1759 -34.1759
   -34.1521 -34.1521 -34.1476 -34.1476 -34.1366 -34.1366 -34.1320 -34.1320
   -34.0739 -34.0739 -34.0566 -34.0566 -34.0333 -34.0333 -28.2891 -28.2891
   -28.2860 -28.2859 -28.2806 -28.2806 -28.2775 -28.2775 -27.0496 -27.0496
   -27.0465 -27.0464 -27.0412 -27.0412 -27.0381 -27.0381 -27.0379 -27.0379
   -27.0348 -27.0348 -10.7053 -10.7053 -10.1659 -10.1659  -9.0965  -9.0965
    -6.3643  -6.3643  -5.0288  -5.0288  -0.6570  -0.6570  -0.2896  -0.2886
     0.0778   0.0784   0.2385   0.2399   0.3473   0.3480   0.5306   0.5320
     0.8063   0.8067   1.0159   1.0163   1.2647   1.2653   1.9090   1.9095
     2.5289   2.5291   2.8476   2.8481   3.1535   3.1539   3.8314   3.8316
     4.0429   4.0430   6.1089   6.1090   6.2848   6.2848   6.9242   6.9242
     7.2143   7.2143   7.4601   7.4602

          k = 0.0095 0.0169 0.0000 ( 14967 PWs)   bands (ev):

   -35.6389 -35.6389 -35.6342 -35.6342 -35.6051 -35.6051 -35.6005 -35.6005
   -35.5354 -35.5354 -35.5045 -35.5045 -34.1805 -34.1805 -34.1759 -34.1759
   -34.1521 -34.1521 -34.1476 -34.1476 -34.1366 -34.1366 -34.1320 -34.1320
   -34.0739 -34.0739 -34.0566 -34.0566 -34.0333 -34.0333 -28.2891 -28.2891
   -28.2860 -28.2860 -28.2806 -28.2806 -28.2775 -28.2775 -27.0496 -27.0496
   -27.0465 -27.0465 -27.0412 -27.0412 -27.0381 -27.0381 -27.0379 -27.0379
   -27.0348 -27.0348 -10.7081 -10.7081 -10.1685 -10.1685  -9.0980  -9.0980
    -6.3637  -6.3637  -5.0235  -5.0235  -0.6519  -0.6519  -0.2568  -0.2560
     0.0736   0.0741   0.2803   0.2814   0.3634   0.3641   0.5148   0.5161
     0.7930   0.7933   1.0295   1.0297   1.2484   1.2487   1.8754   1.8757
     2.5282   2.5283   2.8750   2.8754   3.1207   3.1210   3.8182   3.8183
     4.0425   4.0426   6.1038   6.1039   6.2839   6.2840   6.9235   6.9236
     7.2195   7.2195   7.4606   7.4606

          k = 0.0048 0.0085 0.0000 ( 14967 PWs)   bands (ev):

   -35.6389 -35.6389 -35.6342 -35.6342 -35.6051 -35.6051 -35.6005 -35.6005
   -35.5354 -35.5354 -35.5045 -35.5045 -34.1805 -34.1805 -34.1759 -34.1759
   -34.1521 -34.1521 -34.1476 -34.1476 -34.1366 -34.1366 -34.1320 -34.1320
   -34.0739 -34.0739 -34.0566 -34.0566 -34.0333 -34.0333 -28.2891 -28.2891
   -28.2860 -28.2860 -28.2806 -28.2806 -28.2775 -28.2775 -27.0496 -27.0496
   -27.0465 -27.0465 -27.0412 -27.0412 -27.0381 -27.0381 -27.0379 -27.0379
   -27.0348 -27.0348 -10.7098 -10.7098 -10.1700 -10.1700  -9.0990  -9.0990
    -6.3634  -6.3634  -5.0204  -5.0204  -0.6488  -0.6488  -0.2354  -0.2350
     0.0693   0.0696   0.3076   0.3082   0.3826   0.3831   0.4946   0.4955
     0.7846   0.7848   1.0375   1.0377   1.2408   1.2410   1.8527   1.8529
     2.5277   2.5278   2.8991   2.8993   3.0941   3.0942   3.8099   3.8099
     4.0427   4.0427   6.1008   6.1008   6.2834   6.2834   6.9231   6.9231
     7.2224   7.2224   7.4610   7.4610

          k = 0.0000 0.0000 0.0000 ( 14963 PWs)   bands (ev):

   -35.6389 -35.6389 -35.6342 -35.6342 -35.6051 -35.6051 -35.6005 -35.6005
   -35.5354 -35.5354 -35.5045 -35.5045 -34.1805 -34.1805 -34.1759 -34.1759
   -34.1521 -34.1521 -34.1476 -34.1476 -34.1366 -34.1366 -34.1320 -34.1320
   -34.0739 -34.0739 -34.0566 -34.0566 -34.0333 -34.0333 -28.2891 -28.2891
   -28.2860 -28.2860 -28.2806 -28.2806 -28.2775 -28.2775 -27.0496 -27.0496
   -27.0465 -27.0465 -27.0412 -27.0412 -27.0381 -27.0381 -27.0379 -27.0379
   -27.0348 -27.0348 -10.7104 -10.7104 -10.1706 -10.1706  -9.0992  -9.0992
    -6.3632  -6.3632  -5.0193  -5.0193  -0.6478  -0.6478  -0.2278  -0.2278
     0.0677   0.0677   0.3165   0.3165   0.3944   0.3944   0.4836   0.4836
     0.7818   0.7818   1.0401   1.0401   1.2390   1.2390   1.8447   1.8447
     2.5275   2.5275   2.9095   2.9095   3.0831   3.0831   3.8071   3.8071
     4.0428   4.0428   6.0997   6.0997   6.2833   6.2833   6.9229   6.9229
     7.2233   7.2233   7.4611   7.4611

     Writing all to output data dir tmp/Sb2Te3-uatsx-c4-soc-4.0.save/ :
     XML data file, pseudopotentials, collected wavefunctions

     init_run     :      1.22s CPU      1.22s WALL (       1 calls)
     electrons    :   1626.17s CPU    879.39s WALL (       1 calls)

     Called by init_run:
     wfcinit      :      0.00s CPU      0.01s WALL (       1 calls)
     wfcinit:wfcr :     42.20s CPU     21.96s WALL (     211 calls)
     potinit      :      0.51s CPU      0.49s WALL (       1 calls)
     hinit0       :      0.60s CPU      0.62s WALL (       1 calls)

     Called by electrons:
     c_bands      :   1626.16s CPU    879.37s WALL (       1 calls)
     v_of_rho     :      0.05s CPU      0.03s WALL (       1 calls)
     v_h          :      0.01s CPU      0.00s WALL (       1 calls)
     v_xc         :      0.04s CPU      0.03s WALL (       1 calls)

     Called by c_bands:
     init_us_2    :      0.23s CPU      0.19s WALL (     211 calls)
     cegterg      :   1573.92s CPU    848.43s WALL (     653 calls)

     Called by sum_band:

     Called by *egterg:
     cdiaghg      :    249.00s CPU    167.87s WALL (   10957 calls)
     cegterg:over :    101.69s CPU     52.77s WALL (   10746 calls)
     cegterg:upda :     52.84s CPU     25.43s WALL (   10746 calls)
     cegterg:last :     89.50s CPU     45.11s WALL (    5696 calls)
     h_psi        :   1079.35s CPU    555.42s WALL (   11610 calls)
     g_psi        :      6.93s CPU      4.25s WALL (   10746 calls)

     Called by h_psi:
     h_psi:calbec :     57.69s CPU     29.37s WALL (   11610 calls)
     vloc_psi     :    957.05s CPU    486.69s WALL (   11610 calls)
     add_vuspsi   :     61.11s CPU     37.44s WALL (   11610 calls)

     General routines
     calbec       :     57.62s CPU     29.35s WALL (   11610 calls)
     fft          :      0.63s CPU      0.64s WALL (      17 calls)
     ffts         :      0.42s CPU      0.42s WALL (       4 calls)
     fftw         :    695.45s CPU    354.51s WALL ( 2420268 calls)
     interpolate  :      0.44s CPU      0.43s WALL (       4 calls)
     davcio       :      0.23s CPU      0.77s WALL (     422 calls)

     Parallel routines

     PWSCF        :  27m23.02s CPU  16m35.26s WALL


   This run was terminated on:   0: 9:10  15Aug2025            

=------------------------------------------------------------------------------=
   JOB DONE.
=------------------------------------------------------------------------------=
