
     Program PWSCF v.7.4.1 starts on 22Aug2025 at 13:48: 5 

     This program is part of the open-source Quantum ESPRESSO suite
     for quantum simulation of materials; please cite
         "P. Giannozzi et al., J. Phys.:Condens. Matter 21 395502 (2009);
         "P. Giannozzi et al., J. Phys.:Condens. Matter 29 465901 (2017);
         "P. Giannozzi et al., J. Chem. Phys. 152 154105 (2020);
          URL http://www.quantum-espresso.org", 
     in publications or presentations arising from this work. More details at
     http://www.quantum-espresso.org/quote

     Parallel version (MPI & OpenMP), running on      48 processor cores
     Number of MPI processes:                24
     Threads/MPI process:                     2

     MPI processes distributed on     2 nodes
     111593 MiB available memory on the printing compute node when the environment starts

     Waiting for input...
     Reading input from standard input

     Current dimensions of program PWSCF are:
     Max number of different atomic species (ntypx) = 10
     Max number of k-points (npk) =  40000
     Max angular momentum in pseudopotentials (lmaxx) =  4
Error reading attribute index: expected integer, found *
Error reading attribute index: expected integer, found *

     IMPORTANT: XC functional enforced from input :
     Exchange-correlation= PBE
                           (   1   4   3   4   0   0   0)
     Any further DFT definition will be discarded
     Please, verify this is what you really want


     Atomic positions and unit cell read from directory:
     tmp/Sb2Te3-uatsx-c5-soc-0.0.save/

     Message from routine setup:
     no reason to have ecutrho>4*ecutwfc

     R & G space division:  proc/nbgrp/npool/nimage =      24
     Subspace diagonalization in iterative solution of the eigenvalue problem:
     one sub-group per band group will be used
     scalapack distributed-memory algorithm (size of sub-group:  2*  2 procs)


     Parallelization info
     --------------------
     sticks:   dense  smooth     PW     G-vecs:    dense   smooth      PW
     Min         133      53     15                31371     7939    1183
     Max         134      54     16                31398     7956    1202
     Sum        3205    1285    361               753229   190727   28571

     Using Slab Decomposition



     bravais-lattice index     =            0
     lattice parameter (alat)  =       8.1456  a.u.
     unit-cell volume          =    2407.5243 (a.u.)^3
     number of atoms/cell      =            5
     number of atomic types    =            2
     number of electrons       =        78.00
     number of Kohn-Sham states=          200
     kinetic-energy cutoff     =      70.0000  Ry
     charge density cutoff     =     700.0000  Ry
     Exchange-correlation= PBE
                           (   1   4   3   4   0   0   0)
     Non magnetic calculation with spin-orbit


     celldm(1)=   8.145633  celldm(2)=   0.000000  celldm(3)=   0.000000
     celldm(4)=   0.000000  celldm(5)=   0.000000  celldm(6)=   0.000000

     crystal axes: (cart. coord. in units of alat)
               a(1) = (   1.000000   0.000000   0.000000 )  
               a(2) = (  -0.500000   0.866351   0.000000 )  
               a(3) = (   0.000000   0.000000   5.141647 )  

     reciprocal axes: (cart. coord. in units 2 pi/alat)
               b(1) = (  1.000000  0.577133 -0.000000 )  
               b(2) = (  0.000000  1.154267  0.000000 )  
               b(3) = (  0.000000 -0.000000  0.194490 )  


     PseudoPot. # 1 for Sb read from file:
     /zfs-home/202401017n1/pseudos/Sb_ONCV_PBE_FR-1.1.upf
     MD5 check sum: 7dc1726f2158e3c51e4807d42b9c5c65
     Pseudo is Norm-conserving, Zval = 15.0
     Generated using ONCVPSP code by D. R. Hamann
     Using radial grid of  602 points, 10 beta functions with: 
                l(1) =   0
                l(2) =   0
                l(3) =   1
                l(4) =   1
                l(5) =   1
                l(6) =   1
                l(7) =   2
                l(8) =   2
                l(9) =   2
               l(10) =   2

     PseudoPot. # 2 for Te read from file:
     /zfs-home/202401017n1/pseudos/Te_ONCV_PBE_FR-1.1.upf
     MD5 check sum: c6e17480449037a9a9d16e6377b5c7c4
     Pseudo is Norm-conserving, Zval = 16.0
     Generated using ONCVPSP code by D. R. Hamann
     Using radial grid of  602 points, 10 beta functions with: 
                l(1) =   0
                l(2) =   0
                l(3) =   1
                l(4) =   1
                l(5) =   1
                l(6) =   1
                l(7) =   2
                l(8) =   2
                l(9) =   2
               l(10) =   2

     atomic species   valence    mass     pseudopotential
     Sb               15.00   121.76000     Sb( 1.00)
     Te               16.00   127.60000     Te( 1.00)

     No symmetry found


                                    s                        frac. trans.

      isym =  1     identity                                     

 cryst.   s( 1) = (     1          0          0      )
                  (     0          1          0      )
                  (     0          0          1      )

 cart.    s( 1) = (  1.0000000  0.0000000  0.0000000 )
                  (  0.0000000  1.0000000  0.0000000 )
                  (  0.0000000  0.0000000  1.0000000 )


   Cartesian axes

     site n.     atom                  positions (alat units)
         1        Sb     tau(   1) = (   0.5754431   0.4220521   3.0333851  )
         2        Te     tau(   2) = (   0.5747551   0.4223309   1.7144876  )
         3        Sb     tau(   3) = (   0.0752910   0.1326355   2.1082148  )
         4        Te     tau(   4) = (   0.0751205   0.1338578   3.4271228  )
         5        Te     tau(   5) = (   0.0748618   0.7114055   2.5708084  )

     -------------------------------------------------
     Parameters for Dispersion (Grimme-D2) Correction:
     -------------------------------------------------
       atom      VdW radius       C_6     

        Sb         3.555       1333.532
        Te         3.575       1101.101

   Crystallographic axes

     site n.     atom                  positions (cryst. coord.)
         1        Sb     tau(   1) = (  0.8190235  0.4871607  0.5899637  )
         2        Te     tau(   2) = (  0.8184963  0.4874825  0.3334511  )
         3        Sb     tau(   3) = (  0.1518394  0.1530967  0.4100271  )
         4        Te     tau(   4) = (  0.1523743  0.1545076  0.6665418  )
         5        Te     tau(   5) = (  0.4854376  0.8211517  0.4999971  )

     number of k points=   211
                       cart. coord. in units 2pi/alat
        k(    1) = (   0.0000000   0.0000000   0.0000000), wk =   0.0047393
        k(    2) = (   0.0071429   0.0041224   0.0000000), wk =   0.0047393
        k(    3) = (   0.0142857   0.0082448   0.0000000), wk =   0.0047393
        k(    4) = (   0.0214286   0.0123671   0.0000000), wk =   0.0047393
        k(    5) = (   0.0285714   0.0164895   0.0000000), wk =   0.0047393
        k(    6) = (   0.0357143   0.0206119   0.0000000), wk =   0.0047393
        k(    7) = (   0.0428571   0.0247343   0.0000000), wk =   0.0047393
        k(    8) = (   0.0500000   0.0288567   0.0000000), wk =   0.0047393
        k(    9) = (   0.0571429   0.0329790   0.0000000), wk =   0.0047393
        k(   10) = (   0.0642857   0.0371014   0.0000000), wk =   0.0047393
        k(   11) = (   0.0714286   0.0412238   0.0000000), wk =   0.0047393
        k(   12) = (   0.0785714   0.0453462   0.0000000), wk =   0.0047393
        k(   13) = (   0.0857143   0.0494686   0.0000000), wk =   0.0047393
        k(   14) = (   0.0928571   0.0535910   0.0000000), wk =   0.0047393
        k(   15) = (   0.1000000   0.0577133   0.0000000), wk =   0.0047393
        k(   16) = (   0.1071429   0.0618357   0.0000000), wk =   0.0047393
        k(   17) = (   0.1142857   0.0659581   0.0000000), wk =   0.0047393
        k(   18) = (   0.1214286   0.0700805   0.0000000), wk =   0.0047393
        k(   19) = (   0.1285714   0.0742029   0.0000000), wk =   0.0047393
        k(   20) = (   0.1357143   0.0783252   0.0000000), wk =   0.0047393
        k(   21) = (   0.1428571   0.0824476   0.0000000), wk =   0.0047393
        k(   22) = (   0.1500000   0.0865700   0.0000000), wk =   0.0047393
        k(   23) = (   0.1571429   0.0906924   0.0000000), wk =   0.0047393
        k(   24) = (   0.1642857   0.0948148   0.0000000), wk =   0.0047393
        k(   25) = (   0.1714286   0.0989371   0.0000000), wk =   0.0047393
        k(   26) = (   0.1785714   0.1030595   0.0000000), wk =   0.0047393
        k(   27) = (   0.1857143   0.1071819   0.0000000), wk =   0.0047393
        k(   28) = (   0.1928571   0.1113043   0.0000000), wk =   0.0047393
        k(   29) = (   0.2000000   0.1154267   0.0000000), wk =   0.0047393
        k(   30) = (   0.2071429   0.1195490   0.0000000), wk =   0.0047393
        k(   31) = (   0.2142857   0.1236714   0.0000000), wk =   0.0047393
        k(   32) = (   0.2214286   0.1277938   0.0000000), wk =   0.0047393
        k(   33) = (   0.2285714   0.1319162   0.0000000), wk =   0.0047393
        k(   34) = (   0.2357143   0.1360386   0.0000000), wk =   0.0047393
        k(   35) = (   0.2428571   0.1401610   0.0000000), wk =   0.0047393
        k(   36) = (   0.2500000   0.1442833   0.0000000), wk =   0.0047393
        k(   37) = (   0.2571429   0.1484057   0.0000000), wk =   0.0047393
        k(   38) = (   0.2642857   0.1525281   0.0000000), wk =   0.0047393
        k(   39) = (   0.2714286   0.1566505   0.0000000), wk =   0.0047393
        k(   40) = (   0.2785714   0.1607729   0.0000000), wk =   0.0047393
        k(   41) = (   0.2857143   0.1648952   0.0000000), wk =   0.0047393
        k(   42) = (   0.2928571   0.1690176   0.0000000), wk =   0.0047393
        k(   43) = (   0.3000000   0.1731400   0.0000000), wk =   0.0047393
        k(   44) = (   0.3071429   0.1772624   0.0000000), wk =   0.0047393
        k(   45) = (   0.3142857   0.1813848   0.0000000), wk =   0.0047393
        k(   46) = (   0.3214286   0.1855071   0.0000000), wk =   0.0047393
        k(   47) = (   0.3285714   0.1896295   0.0000000), wk =   0.0047393
        k(   48) = (   0.3357143   0.1937519   0.0000000), wk =   0.0047393
        k(   49) = (   0.3428571   0.1978743   0.0000000), wk =   0.0047393
        k(   50) = (   0.3500000   0.2019967   0.0000000), wk =   0.0047393
        k(   51) = (   0.3571429   0.2061190   0.0000000), wk =   0.0047393
        k(   52) = (   0.3642857   0.2102414   0.0000000), wk =   0.0047393
        k(   53) = (   0.3714286   0.2143638   0.0000000), wk =   0.0047393
        k(   54) = (   0.3785714   0.2184862   0.0000000), wk =   0.0047393
        k(   55) = (   0.3857143   0.2226086   0.0000000), wk =   0.0047393
        k(   56) = (   0.3928571   0.2267309   0.0000000), wk =   0.0047393
        k(   57) = (   0.4000000   0.2308533   0.0000000), wk =   0.0047393
        k(   58) = (   0.4071429   0.2349757   0.0000000), wk =   0.0047393
        k(   59) = (   0.4142857   0.2390981   0.0000000), wk =   0.0047393
        k(   60) = (   0.4214286   0.2432205   0.0000000), wk =   0.0047393
        k(   61) = (   0.4285714   0.2473429   0.0000000), wk =   0.0047393
        k(   62) = (   0.4357143   0.2514652   0.0000000), wk =   0.0047393
        k(   63) = (   0.4428571   0.2555876   0.0000000), wk =   0.0047393
        k(   64) = (   0.4500000   0.2597100   0.0000000), wk =   0.0047393
        k(   65) = (   0.4571429   0.2638324   0.0000000), wk =   0.0047393
        k(   66) = (   0.4642857   0.2679548   0.0000000), wk =   0.0047393
        k(   67) = (   0.4714286   0.2720771   0.0000000), wk =   0.0047393
        k(   68) = (   0.4785714   0.2761995   0.0000000), wk =   0.0047393
        k(   69) = (   0.4857143   0.2803219   0.0000000), wk =   0.0047393
        k(   70) = (   0.4928571   0.2844443   0.0000000), wk =   0.0047393
        k(   71) = (   0.5000000   0.2885667   0.0000000), wk =   0.0047393
        k(   72) = (   0.4976190   0.2926890   0.0000000), wk =   0.0047393
        k(   73) = (   0.4952381   0.2968114   0.0000000), wk =   0.0047393
        k(   74) = (   0.4928571   0.3009338   0.0000000), wk =   0.0047393
        k(   75) = (   0.4904762   0.3050562   0.0000000), wk =   0.0047393
        k(   76) = (   0.4880952   0.3091786   0.0000000), wk =   0.0047393
        k(   77) = (   0.4857143   0.3133009   0.0000000), wk =   0.0047393
        k(   78) = (   0.4833333   0.3174233   0.0000000), wk =   0.0047393
        k(   79) = (   0.4809524   0.3215457   0.0000000), wk =   0.0047393
        k(   80) = (   0.4785714   0.3256681   0.0000000), wk =   0.0047393
        k(   81) = (   0.4761905   0.3297905   0.0000000), wk =   0.0047393
        k(   82) = (   0.4738095   0.3339129   0.0000000), wk =   0.0047393
        k(   83) = (   0.4714286   0.3380352   0.0000000), wk =   0.0047393
        k(   84) = (   0.4690476   0.3421576   0.0000000), wk =   0.0047393
        k(   85) = (   0.4666667   0.3462800   0.0000000), wk =   0.0047393
        k(   86) = (   0.4642857   0.3504024   0.0000000), wk =   0.0047393
        k(   87) = (   0.4619048   0.3545248   0.0000000), wk =   0.0047393
        k(   88) = (   0.4595238   0.3586471   0.0000000), wk =   0.0047393
        k(   89) = (   0.4571429   0.3627695   0.0000000), wk =   0.0047393
        k(   90) = (   0.4547619   0.3668919   0.0000000), wk =   0.0047393
        k(   91) = (   0.4523810   0.3710143   0.0000000), wk =   0.0047393
        k(   92) = (   0.4500000   0.3751367   0.0000000), wk =   0.0047393
        k(   93) = (   0.4476190   0.3792590   0.0000000), wk =   0.0047393
        k(   94) = (   0.4452381   0.3833814   0.0000000), wk =   0.0047393
        k(   95) = (   0.4428571   0.3875038   0.0000000), wk =   0.0047393
        k(   96) = (   0.4404762   0.3916262   0.0000000), wk =   0.0047393
        k(   97) = (   0.4380952   0.3957486   0.0000000), wk =   0.0047393
        k(   98) = (   0.4357143   0.3998709   0.0000000), wk =   0.0047393
        k(   99) = (   0.4333333   0.4039933   0.0000000), wk =   0.0047393
        k(  100) = (   0.4309524   0.4081157   0.0000000), wk =   0.0047393
        k(  101) = (   0.4285714   0.4122381   0.0000000), wk =   0.0047393
        k(  102) = (   0.4261905   0.4163605   0.0000000), wk =   0.0047393
        k(  103) = (   0.4238095   0.4204829   0.0000000), wk =   0.0047393
        k(  104) = (   0.4214286   0.4246052   0.0000000), wk =   0.0047393
        k(  105) = (   0.4190476   0.4287276   0.0000000), wk =   0.0047393
        k(  106) = (   0.4166667   0.4328500   0.0000000), wk =   0.0047393
        k(  107) = (   0.4142857   0.4369724   0.0000000), wk =   0.0047393
        k(  108) = (   0.4119048   0.4410948   0.0000000), wk =   0.0047393
        k(  109) = (   0.4095238   0.4452171   0.0000000), wk =   0.0047393
        k(  110) = (   0.4071429   0.4493395   0.0000000), wk =   0.0047393
        k(  111) = (   0.4047619   0.4534619   0.0000000), wk =   0.0047393
        k(  112) = (   0.4023810   0.4575843   0.0000000), wk =   0.0047393
        k(  113) = (   0.4000000   0.4617067   0.0000000), wk =   0.0047393
        k(  114) = (   0.3976190   0.4658290   0.0000000), wk =   0.0047393
        k(  115) = (   0.3952381   0.4699514   0.0000000), wk =   0.0047393
        k(  116) = (   0.3928571   0.4740738   0.0000000), wk =   0.0047393
        k(  117) = (   0.3904762   0.4781962   0.0000000), wk =   0.0047393
        k(  118) = (   0.3880952   0.4823186   0.0000000), wk =   0.0047393
        k(  119) = (   0.3857143   0.4864409   0.0000000), wk =   0.0047393
        k(  120) = (   0.3833333   0.4905633   0.0000000), wk =   0.0047393
        k(  121) = (   0.3809524   0.4946857   0.0000000), wk =   0.0047393
        k(  122) = (   0.3785714   0.4988081   0.0000000), wk =   0.0047393
        k(  123) = (   0.3761905   0.5029305   0.0000000), wk =   0.0047393
        k(  124) = (   0.3738095   0.5070529   0.0000000), wk =   0.0047393
        k(  125) = (   0.3714286   0.5111752   0.0000000), wk =   0.0047393
        k(  126) = (   0.3690476   0.5152976   0.0000000), wk =   0.0047393
        k(  127) = (   0.3666667   0.5194200   0.0000000), wk =   0.0047393
        k(  128) = (   0.3642857   0.5235424   0.0000000), wk =   0.0047393
        k(  129) = (   0.3619048   0.5276648   0.0000000), wk =   0.0047393
        k(  130) = (   0.3595238   0.5317871   0.0000000), wk =   0.0047393
        k(  131) = (   0.3571429   0.5359095   0.0000000), wk =   0.0047393
        k(  132) = (   0.3547619   0.5400319   0.0000000), wk =   0.0047393
        k(  133) = (   0.3523810   0.5441543   0.0000000), wk =   0.0047393
        k(  134) = (   0.3500000   0.5482767   0.0000000), wk =   0.0047393
        k(  135) = (   0.3476190   0.5523990   0.0000000), wk =   0.0047393
        k(  136) = (   0.3452381   0.5565214   0.0000000), wk =   0.0047393
        k(  137) = (   0.3428571   0.5606438   0.0000000), wk =   0.0047393
        k(  138) = (   0.3404762   0.5647662   0.0000000), wk =   0.0047393
        k(  139) = (   0.3380952   0.5688886   0.0000000), wk =   0.0047393
        k(  140) = (   0.3357143   0.5730109   0.0000000), wk =   0.0047393
        k(  141) = (   0.3333333   0.5771333   0.0000000), wk =   0.0047393
        k(  142) = (   0.3285714   0.5688886   0.0000000), wk =   0.0047393
        k(  143) = (   0.3238095   0.5606438   0.0000000), wk =   0.0047393
        k(  144) = (   0.3190476   0.5523990   0.0000000), wk =   0.0047393
        k(  145) = (   0.3142857   0.5441543   0.0000000), wk =   0.0047393
        k(  146) = (   0.3095238   0.5359095   0.0000000), wk =   0.0047393
        k(  147) = (   0.3047619   0.5276648   0.0000000), wk =   0.0047393
        k(  148) = (   0.3000000   0.5194200   0.0000000), wk =   0.0047393
        k(  149) = (   0.2952381   0.5111752   0.0000000), wk =   0.0047393
        k(  150) = (   0.2904762   0.5029305   0.0000000), wk =   0.0047393
        k(  151) = (   0.2857143   0.4946857   0.0000000), wk =   0.0047393
        k(  152) = (   0.2809524   0.4864409   0.0000000), wk =   0.0047393
        k(  153) = (   0.2761905   0.4781962   0.0000000), wk =   0.0047393
        k(  154) = (   0.2714286   0.4699514   0.0000000), wk =   0.0047393
        k(  155) = (   0.2666667   0.4617067   0.0000000), wk =   0.0047393
        k(  156) = (   0.2619048   0.4534619   0.0000000), wk =   0.0047393
        k(  157) = (   0.2571429   0.4452171   0.0000000), wk =   0.0047393
        k(  158) = (   0.2523810   0.4369724   0.0000000), wk =   0.0047393
        k(  159) = (   0.2476190   0.4287276   0.0000000), wk =   0.0047393
        k(  160) = (   0.2428571   0.4204829   0.0000000), wk =   0.0047393
        k(  161) = (   0.2380952   0.4122381   0.0000000), wk =   0.0047393
        k(  162) = (   0.2333333   0.4039933   0.0000000), wk =   0.0047393
        k(  163) = (   0.2285714   0.3957486   0.0000000), wk =   0.0047393
        k(  164) = (   0.2238095   0.3875038   0.0000000), wk =   0.0047393
        k(  165) = (   0.2190476   0.3792590   0.0000000), wk =   0.0047393
        k(  166) = (   0.2142857   0.3710143   0.0000000), wk =   0.0047393
        k(  167) = (   0.2095238   0.3627695   0.0000000), wk =   0.0047393
        k(  168) = (   0.2047619   0.3545248   0.0000000), wk =   0.0047393
        k(  169) = (   0.2000000   0.3462800   0.0000000), wk =   0.0047393
        k(  170) = (   0.1952381   0.3380352   0.0000000), wk =   0.0047393
        k(  171) = (   0.1904762   0.3297905   0.0000000), wk =   0.0047393
        k(  172) = (   0.1857143   0.3215457   0.0000000), wk =   0.0047393
        k(  173) = (   0.1809524   0.3133009   0.0000000), wk =   0.0047393
        k(  174) = (   0.1761905   0.3050562   0.0000000), wk =   0.0047393
        k(  175) = (   0.1714286   0.2968114   0.0000000), wk =   0.0047393
        k(  176) = (   0.1666667   0.2885667   0.0000000), wk =   0.0047393
        k(  177) = (   0.1619048   0.2803219   0.0000000), wk =   0.0047393
        k(  178) = (   0.1571429   0.2720771   0.0000000), wk =   0.0047393
        k(  179) = (   0.1523810   0.2638324   0.0000000), wk =   0.0047393
        k(  180) = (   0.1476190   0.2555876   0.0000000), wk =   0.0047393
        k(  181) = (   0.1428571   0.2473429   0.0000000), wk =   0.0047393
        k(  182) = (   0.1380952   0.2390981   0.0000000), wk =   0.0047393
        k(  183) = (   0.1333333   0.2308533   0.0000000), wk =   0.0047393
        k(  184) = (   0.1285714   0.2226086   0.0000000), wk =   0.0047393
        k(  185) = (   0.1238095   0.2143638   0.0000000), wk =   0.0047393
        k(  186) = (   0.1190476   0.2061190   0.0000000), wk =   0.0047393
        k(  187) = (   0.1142857   0.1978743   0.0000000), wk =   0.0047393
        k(  188) = (   0.1095238   0.1896295   0.0000000), wk =   0.0047393
        k(  189) = (   0.1047619   0.1813848   0.0000000), wk =   0.0047393
        k(  190) = (   0.1000000   0.1731400   0.0000000), wk =   0.0047393
        k(  191) = (   0.0952381   0.1648952   0.0000000), wk =   0.0047393
        k(  192) = (   0.0904762   0.1566505   0.0000000), wk =   0.0047393
        k(  193) = (   0.0857143   0.1484057   0.0000000), wk =   0.0047393
        k(  194) = (   0.0809524   0.1401610   0.0000000), wk =   0.0047393
        k(  195) = (   0.0761905   0.1319162   0.0000000), wk =   0.0047393
        k(  196) = (   0.0714286   0.1236714   0.0000000), wk =   0.0047393
        k(  197) = (   0.0666667   0.1154267   0.0000000), wk =   0.0047393
        k(  198) = (   0.0619048   0.1071819   0.0000000), wk =   0.0047393
        k(  199) = (   0.0571429   0.0989371   0.0000000), wk =   0.0047393
        k(  200) = (   0.0523810   0.0906924   0.0000000), wk =   0.0047393
        k(  201) = (   0.0476190   0.0824476   0.0000000), wk =   0.0047393
        k(  202) = (   0.0428571   0.0742029   0.0000000), wk =   0.0047393
        k(  203) = (   0.0380952   0.0659581   0.0000000), wk =   0.0047393
        k(  204) = (   0.0333333   0.0577133   0.0000000), wk =   0.0047393
        k(  205) = (   0.0285714   0.0494686   0.0000000), wk =   0.0047393
        k(  206) = (   0.0238095   0.0412238   0.0000000), wk =   0.0047393
        k(  207) = (   0.0190476   0.0329790   0.0000000), wk =   0.0047393
        k(  208) = (   0.0142857   0.0247343   0.0000000), wk =   0.0047393
        k(  209) = (   0.0095238   0.0164895   0.0000000), wk =   0.0047393
        k(  210) = (   0.0047619   0.0082448   0.0000000), wk =   0.0047393
        k(  211) = (   0.0000000   0.0000000   0.0000000), wk =   0.0047393

                       cryst. coord.
        k(    1) = (   0.0000000   0.0000000   0.0000000), wk =   0.0047393
        k(    2) = (   0.0071429   0.0000000   0.0000000), wk =   0.0047393
        k(    3) = (   0.0142857   0.0000000   0.0000000), wk =   0.0047393
        k(    4) = (   0.0214286   0.0000000   0.0000000), wk =   0.0047393
        k(    5) = (   0.0285714   0.0000000   0.0000000), wk =   0.0047393
        k(    6) = (   0.0357143   0.0000000   0.0000000), wk =   0.0047393
        k(    7) = (   0.0428571   0.0000000   0.0000000), wk =   0.0047393
        k(    8) = (   0.0500000  -0.0000000   0.0000000), wk =   0.0047393
        k(    9) = (   0.0571429   0.0000000   0.0000000), wk =   0.0047393
        k(   10) = (   0.0642857   0.0000000   0.0000000), wk =   0.0047393
        k(   11) = (   0.0714286   0.0000000   0.0000000), wk =   0.0047393
        k(   12) = (   0.0785714   0.0000000   0.0000000), wk =   0.0047393
        k(   13) = (   0.0857143   0.0000000   0.0000000), wk =   0.0047393
        k(   14) = (   0.0928571   0.0000000   0.0000000), wk =   0.0047393
        k(   15) = (   0.1000000  -0.0000000   0.0000000), wk =   0.0047393
        k(   16) = (   0.1071429   0.0000000   0.0000000), wk =   0.0047393
        k(   17) = (   0.1142857   0.0000000   0.0000000), wk =   0.0047393
        k(   18) = (   0.1214286   0.0000000   0.0000000), wk =   0.0047393
        k(   19) = (   0.1285714   0.0000000   0.0000000), wk =   0.0047393
        k(   20) = (   0.1357143   0.0000000   0.0000000), wk =   0.0047393
        k(   21) = (   0.1428571   0.0000000   0.0000000), wk =   0.0047393
        k(   22) = (   0.1500000   0.0000000   0.0000000), wk =   0.0047393
        k(   23) = (   0.1571429   0.0000000   0.0000000), wk =   0.0047393
        k(   24) = (   0.1642857   0.0000000   0.0000000), wk =   0.0047393
        k(   25) = (   0.1714286   0.0000000   0.0000000), wk =   0.0047393
        k(   26) = (   0.1785714   0.0000000   0.0000000), wk =   0.0047393
        k(   27) = (   0.1857143   0.0000000   0.0000000), wk =   0.0047393
        k(   28) = (   0.1928571  -0.0000000   0.0000000), wk =   0.0047393
        k(   29) = (   0.2000000  -0.0000000   0.0000000), wk =   0.0047393
        k(   30) = (   0.2071429  -0.0000000   0.0000000), wk =   0.0047393
        k(   31) = (   0.2142857   0.0000000   0.0000000), wk =   0.0047393
        k(   32) = (   0.2214286   0.0000000   0.0000000), wk =   0.0047393
        k(   33) = (   0.2285714   0.0000000   0.0000000), wk =   0.0047393
        k(   34) = (   0.2357143   0.0000000   0.0000000), wk =   0.0047393
        k(   35) = (   0.2428571   0.0000000   0.0000000), wk =   0.0047393
        k(   36) = (   0.2500000   0.0000000   0.0000000), wk =   0.0047393
        k(   37) = (   0.2571429   0.0000000   0.0000000), wk =   0.0047393
        k(   38) = (   0.2642857   0.0000000   0.0000000), wk =   0.0047393
        k(   39) = (   0.2714286   0.0000000   0.0000000), wk =   0.0047393
        k(   40) = (   0.2785714   0.0000000   0.0000000), wk =   0.0047393
        k(   41) = (   0.2857143   0.0000000   0.0000000), wk =   0.0047393
        k(   42) = (   0.2928571   0.0000000   0.0000000), wk =   0.0047393
        k(   43) = (   0.3000000   0.0000000   0.0000000), wk =   0.0047393
        k(   44) = (   0.3071429   0.0000000   0.0000000), wk =   0.0047393
        k(   45) = (   0.3142857   0.0000000   0.0000000), wk =   0.0047393
        k(   46) = (   0.3214286   0.0000000   0.0000000), wk =   0.0047393
        k(   47) = (   0.3285714   0.0000000   0.0000000), wk =   0.0047393
        k(   48) = (   0.3357143   0.0000000   0.0000000), wk =   0.0047393
        k(   49) = (   0.3428571   0.0000000   0.0000000), wk =   0.0047393
        k(   50) = (   0.3500000   0.0000000   0.0000000), wk =   0.0047393
        k(   51) = (   0.3571429   0.0000000   0.0000000), wk =   0.0047393
        k(   52) = (   0.3642857   0.0000000   0.0000000), wk =   0.0047393
        k(   53) = (   0.3714286   0.0000000   0.0000000), wk =   0.0047393
        k(   54) = (   0.3785714   0.0000000   0.0000000), wk =   0.0047393
        k(   55) = (   0.3857143  -0.0000000   0.0000000), wk =   0.0047393
        k(   56) = (   0.3928571   0.0000000   0.0000000), wk =   0.0047393
        k(   57) = (   0.4000000  -0.0000000   0.0000000), wk =   0.0047393
        k(   58) = (   0.4071429   0.0000000   0.0000000), wk =   0.0047393
        k(   59) = (   0.4142857  -0.0000000   0.0000000), wk =   0.0047393
        k(   60) = (   0.4214286   0.0000000   0.0000000), wk =   0.0047393
        k(   61) = (   0.4285714   0.0000000   0.0000000), wk =   0.0047393
        k(   62) = (   0.4357143   0.0000000   0.0000000), wk =   0.0047393
        k(   63) = (   0.4428571   0.0000000   0.0000000), wk =   0.0047393
        k(   64) = (   0.4500000   0.0000000   0.0000000), wk =   0.0047393
        k(   65) = (   0.4571429   0.0000000   0.0000000), wk =   0.0047393
        k(   66) = (   0.4642857   0.0000000   0.0000000), wk =   0.0047393
        k(   67) = (   0.4714286   0.0000000   0.0000000), wk =   0.0047393
        k(   68) = (   0.4785714   0.0000000   0.0000000), wk =   0.0047393
        k(   69) = (   0.4857143   0.0000000   0.0000000), wk =   0.0047393
        k(   70) = (   0.4928571   0.0000000   0.0000000), wk =   0.0047393
        k(   71) = (   0.5000000   0.0000000   0.0000000), wk =   0.0047393
        k(   72) = (   0.4976190   0.0047619   0.0000000), wk =   0.0047393
        k(   73) = (   0.4952381   0.0095238   0.0000000), wk =   0.0047393
        k(   74) = (   0.4928571   0.0142857   0.0000000), wk =   0.0047393
        k(   75) = (   0.4904762   0.0190476   0.0000000), wk =   0.0047393
        k(   76) = (   0.4880952   0.0238095   0.0000000), wk =   0.0047393
        k(   77) = (   0.4857143   0.0285714   0.0000000), wk =   0.0047393
        k(   78) = (   0.4833333   0.0333333   0.0000000), wk =   0.0047393
        k(   79) = (   0.4809524   0.0380952   0.0000000), wk =   0.0047393
        k(   80) = (   0.4785714   0.0428571   0.0000000), wk =   0.0047393
        k(   81) = (   0.4761905   0.0476190   0.0000000), wk =   0.0047393
        k(   82) = (   0.4738095   0.0523810   0.0000000), wk =   0.0047393
        k(   83) = (   0.4714286   0.0571429   0.0000000), wk =   0.0047393
        k(   84) = (   0.4690476   0.0619048   0.0000000), wk =   0.0047393
        k(   85) = (   0.4666667   0.0666667   0.0000000), wk =   0.0047393
        k(   86) = (   0.4642857   0.0714286   0.0000000), wk =   0.0047393
        k(   87) = (   0.4619048   0.0761905   0.0000000), wk =   0.0047393
        k(   88) = (   0.4595238   0.0809524   0.0000000), wk =   0.0047393
        k(   89) = (   0.4571429   0.0857143   0.0000000), wk =   0.0047393
        k(   90) = (   0.4547619   0.0904762   0.0000000), wk =   0.0047393
        k(   91) = (   0.4523810   0.0952381   0.0000000), wk =   0.0047393
        k(   92) = (   0.4500000   0.1000000   0.0000000), wk =   0.0047393
        k(   93) = (   0.4476190   0.1047619   0.0000000), wk =   0.0047393
        k(   94) = (   0.4452381   0.1095238   0.0000000), wk =   0.0047393
        k(   95) = (   0.4428571   0.1142857   0.0000000), wk =   0.0047393
        k(   96) = (   0.4404762   0.1190476   0.0000000), wk =   0.0047393
        k(   97) = (   0.4380952   0.1238095   0.0000000), wk =   0.0047393
        k(   98) = (   0.4357143   0.1285714   0.0000000), wk =   0.0047393
        k(   99) = (   0.4333333   0.1333333   0.0000000), wk =   0.0047393
        k(  100) = (   0.4309524   0.1380952   0.0000000), wk =   0.0047393
        k(  101) = (   0.4285714   0.1428571   0.0000000), wk =   0.0047393
        k(  102) = (   0.4261905   0.1476190   0.0000000), wk =   0.0047393
        k(  103) = (   0.4238095   0.1523810   0.0000000), wk =   0.0047393
        k(  104) = (   0.4214286   0.1571429   0.0000000), wk =   0.0047393
        k(  105) = (   0.4190476   0.1619048   0.0000000), wk =   0.0047393
        k(  106) = (   0.4166667   0.1666667   0.0000000), wk =   0.0047393
        k(  107) = (   0.4142857   0.1714286   0.0000000), wk =   0.0047393
        k(  108) = (   0.4119048   0.1761905   0.0000000), wk =   0.0047393
        k(  109) = (   0.4095238   0.1809524   0.0000000), wk =   0.0047393
        k(  110) = (   0.4071429   0.1857143   0.0000000), wk =   0.0047393
        k(  111) = (   0.4047619   0.1904762   0.0000000), wk =   0.0047393
        k(  112) = (   0.4023810   0.1952381   0.0000000), wk =   0.0047393
        k(  113) = (   0.4000000   0.2000000   0.0000000), wk =   0.0047393
        k(  114) = (   0.3976190   0.2047619   0.0000000), wk =   0.0047393
        k(  115) = (   0.3952381   0.2095238   0.0000000), wk =   0.0047393
        k(  116) = (   0.3928571   0.2142857   0.0000000), wk =   0.0047393
        k(  117) = (   0.3904762   0.2190476   0.0000000), wk =   0.0047393
        k(  118) = (   0.3880952   0.2238095   0.0000000), wk =   0.0047393
        k(  119) = (   0.3857143   0.2285714   0.0000000), wk =   0.0047393
        k(  120) = (   0.3833333   0.2333333   0.0000000), wk =   0.0047393
        k(  121) = (   0.3809524   0.2380952   0.0000000), wk =   0.0047393
        k(  122) = (   0.3785714   0.2428571   0.0000000), wk =   0.0047393
        k(  123) = (   0.3761905   0.2476190   0.0000000), wk =   0.0047393
        k(  124) = (   0.3738095   0.2523810   0.0000000), wk =   0.0047393
        k(  125) = (   0.3714286   0.2571429   0.0000000), wk =   0.0047393
        k(  126) = (   0.3690476   0.2619048   0.0000000), wk =   0.0047393
        k(  127) = (   0.3666667   0.2666667   0.0000000), wk =   0.0047393
        k(  128) = (   0.3642857   0.2714286   0.0000000), wk =   0.0047393
        k(  129) = (   0.3619048   0.2761905   0.0000000), wk =   0.0047393
        k(  130) = (   0.3595238   0.2809524   0.0000000), wk =   0.0047393
        k(  131) = (   0.3571429   0.2857143   0.0000000), wk =   0.0047393
        k(  132) = (   0.3547619   0.2904762   0.0000000), wk =   0.0047393
        k(  133) = (   0.3523810   0.2952381   0.0000000), wk =   0.0047393
        k(  134) = (   0.3500000   0.3000000   0.0000000), wk =   0.0047393
        k(  135) = (   0.3476190   0.3047619   0.0000000), wk =   0.0047393
        k(  136) = (   0.3452381   0.3095238   0.0000000), wk =   0.0047393
        k(  137) = (   0.3428571   0.3142857   0.0000000), wk =   0.0047393
        k(  138) = (   0.3404762   0.3190476   0.0000000), wk =   0.0047393
        k(  139) = (   0.3380952   0.3238095   0.0000000), wk =   0.0047393
        k(  140) = (   0.3357143   0.3285714   0.0000000), wk =   0.0047393
        k(  141) = (   0.3333333   0.3333333   0.0000000), wk =   0.0047393
        k(  142) = (   0.3285714   0.3285714   0.0000000), wk =   0.0047393
        k(  143) = (   0.3238095   0.3238095   0.0000000), wk =   0.0047393
        k(  144) = (   0.3190476   0.3190476   0.0000000), wk =   0.0047393
        k(  145) = (   0.3142857   0.3142857   0.0000000), wk =   0.0047393
        k(  146) = (   0.3095238   0.3095238   0.0000000), wk =   0.0047393
        k(  147) = (   0.3047619   0.3047619   0.0000000), wk =   0.0047393
        k(  148) = (   0.3000000   0.3000000   0.0000000), wk =   0.0047393
        k(  149) = (   0.2952381   0.2952381   0.0000000), wk =   0.0047393
        k(  150) = (   0.2904762   0.2904762   0.0000000), wk =   0.0047393
        k(  151) = (   0.2857143   0.2857143   0.0000000), wk =   0.0047393
        k(  152) = (   0.2809524   0.2809524   0.0000000), wk =   0.0047393
        k(  153) = (   0.2761905   0.2761905   0.0000000), wk =   0.0047393
        k(  154) = (   0.2714286   0.2714286   0.0000000), wk =   0.0047393
        k(  155) = (   0.2666667   0.2666667   0.0000000), wk =   0.0047393
        k(  156) = (   0.2619048   0.2619048   0.0000000), wk =   0.0047393
        k(  157) = (   0.2571429   0.2571429   0.0000000), wk =   0.0047393
        k(  158) = (   0.2523810   0.2523810   0.0000000), wk =   0.0047393
        k(  159) = (   0.2476190   0.2476190   0.0000000), wk =   0.0047393
        k(  160) = (   0.2428571   0.2428571   0.0000000), wk =   0.0047393
        k(  161) = (   0.2380952   0.2380952   0.0000000), wk =   0.0047393
        k(  162) = (   0.2333333   0.2333333   0.0000000), wk =   0.0047393
        k(  163) = (   0.2285714   0.2285714   0.0000000), wk =   0.0047393
        k(  164) = (   0.2238095   0.2238095   0.0000000), wk =   0.0047393
        k(  165) = (   0.2190476   0.2190476   0.0000000), wk =   0.0047393
        k(  166) = (   0.2142857   0.2142857   0.0000000), wk =   0.0047393
        k(  167) = (   0.2095238   0.2095238   0.0000000), wk =   0.0047393
        k(  168) = (   0.2047619   0.2047619   0.0000000), wk =   0.0047393
        k(  169) = (   0.2000000   0.2000000   0.0000000), wk =   0.0047393
        k(  170) = (   0.1952381   0.1952381   0.0000000), wk =   0.0047393
        k(  171) = (   0.1904762   0.1904762   0.0000000), wk =   0.0047393
        k(  172) = (   0.1857143   0.1857143   0.0000000), wk =   0.0047393
        k(  173) = (   0.1809524   0.1809524   0.0000000), wk =   0.0047393
        k(  174) = (   0.1761905   0.1761905   0.0000000), wk =   0.0047393
        k(  175) = (   0.1714286   0.1714286   0.0000000), wk =   0.0047393
        k(  176) = (   0.1666667   0.1666667   0.0000000), wk =   0.0047393
        k(  177) = (   0.1619048   0.1619048   0.0000000), wk =   0.0047393
        k(  178) = (   0.1571429   0.1571429   0.0000000), wk =   0.0047393
        k(  179) = (   0.1523810   0.1523810   0.0000000), wk =   0.0047393
        k(  180) = (   0.1476190   0.1476190   0.0000000), wk =   0.0047393
        k(  181) = (   0.1428571   0.1428571   0.0000000), wk =   0.0047393
        k(  182) = (   0.1380952   0.1380952   0.0000000), wk =   0.0047393
        k(  183) = (   0.1333333   0.1333333   0.0000000), wk =   0.0047393
        k(  184) = (   0.1285714   0.1285714   0.0000000), wk =   0.0047393
        k(  185) = (   0.1238095   0.1238095   0.0000000), wk =   0.0047393
        k(  186) = (   0.1190476   0.1190476   0.0000000), wk =   0.0047393
        k(  187) = (   0.1142857   0.1142857   0.0000000), wk =   0.0047393
        k(  188) = (   0.1095238   0.1095238   0.0000000), wk =   0.0047393
        k(  189) = (   0.1047619   0.1047619   0.0000000), wk =   0.0047393
        k(  190) = (   0.1000000   0.1000000   0.0000000), wk =   0.0047393
        k(  191) = (   0.0952381   0.0952381   0.0000000), wk =   0.0047393
        k(  192) = (   0.0904762   0.0904762   0.0000000), wk =   0.0047393
        k(  193) = (   0.0857143   0.0857143   0.0000000), wk =   0.0047393
        k(  194) = (   0.0809524   0.0809524   0.0000000), wk =   0.0047393
        k(  195) = (   0.0761905   0.0761905   0.0000000), wk =   0.0047393
        k(  196) = (   0.0714286   0.0714286   0.0000000), wk =   0.0047393
        k(  197) = (   0.0666667   0.0666667   0.0000000), wk =   0.0047393
        k(  198) = (   0.0619048   0.0619048   0.0000000), wk =   0.0047393
        k(  199) = (   0.0571429   0.0571429   0.0000000), wk =   0.0047393
        k(  200) = (   0.0523810   0.0523810   0.0000000), wk =   0.0047393
        k(  201) = (   0.0476190   0.0476190   0.0000000), wk =   0.0047393
        k(  202) = (   0.0428571   0.0428571   0.0000000), wk =   0.0047393
        k(  203) = (   0.0380952   0.0380952   0.0000000), wk =   0.0047393
        k(  204) = (   0.0333333   0.0333333   0.0000000), wk =   0.0047393
        k(  205) = (   0.0285714   0.0285714   0.0000000), wk =   0.0047393
        k(  206) = (   0.0238095   0.0238095   0.0000000), wk =   0.0047393
        k(  207) = (   0.0190476   0.0190476   0.0000000), wk =   0.0047393
        k(  208) = (   0.0142857   0.0142857   0.0000000), wk =   0.0047393
        k(  209) = (   0.0095238   0.0095238   0.0000000), wk =   0.0047393
        k(  210) = (   0.0047619   0.0047619   0.0000000), wk =   0.0047393
        k(  211) = (   0.0000000   0.0000000   0.0000000), wk =   0.0047393

     Dense  grid:   753229 G-vectors     FFT dimensions: (  72,  72, 360)

     Smooth grid:   190727 G-vectors     FFT dimensions: (  45,  45, 225)

     Dynamical RAM for                 wfc:       6.05 MB

     Dynamical RAM for     wfc (w. buffer):       6.05 MB

     Dynamical RAM for           str. fact:       0.96 MB

     Dynamical RAM for           local pot:       0.00 MB

     Dynamical RAM for          nlocal pot:       2.57 MB

     Dynamical RAM for                qrad:      11.12 MB

     Dynamical RAM for          rho,v,vnew:      12.86 MB

     Dynamical RAM for           G-vectors:       1.86 MB

     Dynamical RAM for          h,s,v(r/c):       1.83 MB

     Dynamical RAM for          <psi|beta>:       1.04 MB

     Dynamical RAM for                 psi:      12.11 MB

     Dynamical RAM for                hpsi:      12.11 MB

     Dynamical RAM for      wfcinit/wfcrot:      10.00 MB

     Estimated static dynamical RAM per process >      41.60 MB

     Estimated max dynamical RAM per process >      68.69 MB

     Estimated total dynamical RAM >       1.61 GB

     The potential is recalculated from file :
     tmp/Sb2Te3-uatsx-c5-soc-0.0.save/charge-density

     Starting wfcs are random

     Band Structure Calculation
     Davidson diagonalization with overlap

     Computing kpt #:     1  of   211
     total cpu time spent up to now is       19.3 secs

     Computing kpt #:     2  of   211
     total cpu time spent up to now is       37.0 secs

     Computing kpt #:     3  of   211
     total cpu time spent up to now is       52.5 secs

     Computing kpt #:     4  of   211
     total cpu time spent up to now is       67.8 secs

     Computing kpt #:     5  of   211
     total cpu time spent up to now is       83.0 secs

     Computing kpt #:     6  of   211
     total cpu time spent up to now is       98.3 secs

     Computing kpt #:     7  of   211
     total cpu time spent up to now is      113.0 secs

     Computing kpt #:     8  of   211
     total cpu time spent up to now is      127.6 secs

     Computing kpt #:     9  of   211
     total cpu time spent up to now is      142.0 secs

     Computing kpt #:    10  of   211
     total cpu time spent up to now is      156.4 secs

     Computing kpt #:    11  of   211
     total cpu time spent up to now is      170.7 secs

     Computing kpt #:    12  of   211
     total cpu time spent up to now is      184.0 secs

     Computing kpt #:    13  of   211
     total cpu time spent up to now is      197.3 secs

     Computing kpt #:    14  of   211
     total cpu time spent up to now is      210.8 secs

     Computing kpt #:    15  of   211
     total cpu time spent up to now is      225.3 secs

     Computing kpt #:    16  of   211
     total cpu time spent up to now is      239.8 secs

     Computing kpt #:    17  of   211
     total cpu time spent up to now is      254.1 secs

     Computing kpt #:    18  of   211
     total cpu time spent up to now is      268.5 secs

     Computing kpt #:    19  of   211
     total cpu time spent up to now is      282.9 secs

     Computing kpt #:    20  of   211
     total cpu time spent up to now is      297.1 secs

     Computing kpt #:    21  of   211
     total cpu time spent up to now is      311.5 secs

     Computing kpt #:    22  of   211
     total cpu time spent up to now is      325.9 secs

     Computing kpt #:    23  of   211
     total cpu time spent up to now is      340.3 secs

     Computing kpt #:    24  of   211
     total cpu time spent up to now is      355.1 secs

     Computing kpt #:    25  of   211
     total cpu time spent up to now is      369.8 secs

     Computing kpt #:    26  of   211
     total cpu time spent up to now is      384.7 secs

     Computing kpt #:    27  of   211
     total cpu time spent up to now is      404.1 secs

     Computing kpt #:    28  of   211
     total cpu time spent up to now is      418.9 secs

     Computing kpt #:    29  of   211
     total cpu time spent up to now is      433.8 secs

     Computing kpt #:    30  of   211
     total cpu time spent up to now is      448.8 secs

     Computing kpt #:    31  of   211
     total cpu time spent up to now is      464.6 secs

     Computing kpt #:    32  of   211
     total cpu time spent up to now is      480.4 secs

     Computing kpt #:    33  of   211
     total cpu time spent up to now is      495.4 secs

     Computing kpt #:    34  of   211
     total cpu time spent up to now is      510.2 secs

     Computing kpt #:    35  of   211
     total cpu time spent up to now is      525.0 secs

     Computing kpt #:    36  of   211
     total cpu time spent up to now is      539.6 secs

     Computing kpt #:    37  of   211
     total cpu time spent up to now is      554.3 secs

     Computing kpt #:    38  of   211
     total cpu time spent up to now is      569.1 secs

     Computing kpt #:    39  of   211
     total cpu time spent up to now is      584.7 secs

     Computing kpt #:    40  of   211
     total cpu time spent up to now is      599.1 secs

     Computing kpt #:    41  of   211
     total cpu time spent up to now is      613.9 secs

     Computing kpt #:    42  of   211
     total cpu time spent up to now is      630.2 secs

     Computing kpt #:    43  of   211
     total cpu time spent up to now is      644.9 secs

     Computing kpt #:    44  of   211
     total cpu time spent up to now is      659.3 secs

     Computing kpt #:    45  of   211
     total cpu time spent up to now is      673.5 secs

     Computing kpt #:    46  of   211
     total cpu time spent up to now is      687.7 secs

     Computing kpt #:    47  of   211
     total cpu time spent up to now is      701.1 secs

     Computing kpt #:    48  of   211
     total cpu time spent up to now is      715.3 secs

     Computing kpt #:    49  of   211
     total cpu time spent up to now is      729.4 secs

     Computing kpt #:    50  of   211
     total cpu time spent up to now is      742.8 secs

     Computing kpt #:    51  of   211
     total cpu time spent up to now is      756.1 secs

     Computing kpt #:    52  of   211
     total cpu time spent up to now is      770.2 secs

     Computing kpt #:    53  of   211
     total cpu time spent up to now is      784.4 secs

     Computing kpt #:    54  of   211
     total cpu time spent up to now is      798.8 secs

     Computing kpt #:    55  of   211
     total cpu time spent up to now is      813.1 secs

     Computing kpt #:    56  of   211
     total cpu time spent up to now is      827.7 secs

     Computing kpt #:    57  of   211
     total cpu time spent up to now is      842.0 secs

     Computing kpt #:    58  of   211
     total cpu time spent up to now is      855.5 secs

     Computing kpt #:    59  of   211
     total cpu time spent up to now is      868.8 secs

     Computing kpt #:    60  of   211
     total cpu time spent up to now is      883.2 secs

     Computing kpt #:    61  of   211
     total cpu time spent up to now is      897.5 secs

     Computing kpt #:    62  of   211
     total cpu time spent up to now is      911.9 secs

     Computing kpt #:    63  of   211
     total cpu time spent up to now is      926.2 secs

     Computing kpt #:    64  of   211
     total cpu time spent up to now is      940.4 secs

     Computing kpt #:    65  of   211
     total cpu time spent up to now is      955.2 secs

     Computing kpt #:    66  of   211
     total cpu time spent up to now is      970.2 secs

     Computing kpt #:    67  of   211
     total cpu time spent up to now is      985.1 secs

     Computing kpt #:    68  of   211
     total cpu time spent up to now is      999.7 secs

     Computing kpt #:    69  of   211
     total cpu time spent up to now is     1014.3 secs

     Computing kpt #:    70  of   211
     total cpu time spent up to now is     1029.2 secs

     Computing kpt #:    71  of   211
     total cpu time spent up to now is     1043.9 secs

     Computing kpt #:    72  of   211
     total cpu time spent up to now is     1058.7 secs

     Computing kpt #:    73  of   211
     total cpu time spent up to now is     1073.8 secs

     Computing kpt #:    74  of   211
     total cpu time spent up to now is     1088.8 secs

     Computing kpt #:    75  of   211
     total cpu time spent up to now is     1103.9 secs

     Computing kpt #:    76  of   211
     total cpu time spent up to now is     1118.8 secs

     Computing kpt #:    77  of   211
     total cpu time spent up to now is     1134.0 secs

     Computing kpt #:    78  of   211
     total cpu time spent up to now is     1149.0 secs

     Computing kpt #:    79  of   211
     total cpu time spent up to now is     1164.9 secs

     Computing kpt #:    80  of   211
     total cpu time spent up to now is     1180.0 secs

     Computing kpt #:    81  of   211
     total cpu time spent up to now is     1195.9 secs

     Computing kpt #:    82  of   211
     total cpu time spent up to now is     1211.9 secs

     Computing kpt #:    83  of   211
     total cpu time spent up to now is     1226.7 secs

     Computing kpt #:    84  of   211
     total cpu time spent up to now is     1241.6 secs

     Computing kpt #:    85  of   211
     total cpu time spent up to now is     1256.3 secs

     Computing kpt #:    86  of   211
     total cpu time spent up to now is     1271.0 secs

     Computing kpt #:    87  of   211
     total cpu time spent up to now is     1285.6 secs

     Computing kpt #:    88  of   211
     total cpu time spent up to now is     1300.3 secs

     Computing kpt #:    89  of   211
     total cpu time spent up to now is     1314.9 secs

     Computing kpt #:    90  of   211
     total cpu time spent up to now is     1329.8 secs

     Computing kpt #:    91  of   211
     total cpu time spent up to now is     1344.9 secs

     Computing kpt #:    92  of   211
     total cpu time spent up to now is     1359.6 secs

     Computing kpt #:    93  of   211
     total cpu time spent up to now is     1374.3 secs

     Computing kpt #:    94  of   211
     total cpu time spent up to now is     1389.2 secs

     Computing kpt #:    95  of   211
     total cpu time spent up to now is     1405.1 secs

     Computing kpt #:    96  of   211
     total cpu time spent up to now is     1421.2 secs

     Computing kpt #:    97  of   211
     total cpu time spent up to now is     1436.1 secs

     Computing kpt #:    98  of   211
     total cpu time spent up to now is     1452.2 secs

     Computing kpt #:    99  of   211
     total cpu time spent up to now is     1468.1 secs

     Computing kpt #:   100  of   211
     total cpu time spent up to now is     1483.3 secs

     Computing kpt #:   101  of   211
     total cpu time spent up to now is     1498.0 secs

     Computing kpt #:   102  of   211
     total cpu time spent up to now is     1513.2 secs

     Computing kpt #:   103  of   211
     total cpu time spent up to now is     1528.0 secs

     Computing kpt #:   104  of   211
     total cpu time spent up to now is     1542.6 secs

     Computing kpt #:   105  of   211
     total cpu time spent up to now is     1557.5 secs

     Computing kpt #:   106  of   211
     total cpu time spent up to now is     1573.4 secs

     Computing kpt #:   107  of   211
     total cpu time spent up to now is     1589.2 secs

     Computing kpt #:   108  of   211
     total cpu time spent up to now is     1605.2 secs

     Computing kpt #:   109  of   211
     total cpu time spent up to now is     1621.5 secs

     Computing kpt #:   110  of   211
     total cpu time spent up to now is     1637.8 secs

     Computing kpt #:   111  of   211
     total cpu time spent up to now is     1654.0 secs

     Computing kpt #:   112  of   211
     total cpu time spent up to now is     1670.4 secs

     Computing kpt #:   113  of   211
     total cpu time spent up to now is     1686.9 secs

     Computing kpt #:   114  of   211
     total cpu time spent up to now is     1702.8 secs

     Computing kpt #:   115  of   211
     total cpu time spent up to now is     1718.7 secs

     Computing kpt #:   116  of   211
     total cpu time spent up to now is     1734.8 secs

     Computing kpt #:   117  of   211
     total cpu time spent up to now is     1752.0 secs

     Computing kpt #:   118  of   211
     total cpu time spent up to now is     1769.4 secs

     Computing kpt #:   119  of   211
     total cpu time spent up to now is     1785.8 secs

     Computing kpt #:   120  of   211
     total cpu time spent up to now is     1801.7 secs

     Computing kpt #:   121  of   211
     total cpu time spent up to now is     1816.7 secs

     Computing kpt #:   122  of   211
     total cpu time spent up to now is     1831.8 secs

     Computing kpt #:   123  of   211
     total cpu time spent up to now is     1846.8 secs

     Computing kpt #:   124  of   211
     total cpu time spent up to now is     1862.2 secs

     Computing kpt #:   125  of   211
     total cpu time spent up to now is     1877.3 secs

     Computing kpt #:   126  of   211
     total cpu time spent up to now is     1892.7 secs

     Computing kpt #:   127  of   211
     total cpu time spent up to now is     1909.1 secs

     Computing kpt #:   128  of   211
     total cpu time spent up to now is     1926.1 secs

     Computing kpt #:   129  of   211
     total cpu time spent up to now is     1941.5 secs

     Computing kpt #:   130  of   211
     total cpu time spent up to now is     1956.9 secs

     Computing kpt #:   131  of   211
     total cpu time spent up to now is     1972.1 secs

     Computing kpt #:   132  of   211
     total cpu time spent up to now is     1987.2 secs

     Computing kpt #:   133  of   211
     total cpu time spent up to now is     2002.6 secs

     Computing kpt #:   134  of   211
     total cpu time spent up to now is     2018.8 secs

     Computing kpt #:   135  of   211
     total cpu time spent up to now is     2035.2 secs

     Computing kpt #:   136  of   211
     total cpu time spent up to now is     2051.9 secs

     Computing kpt #:   137  of   211
     total cpu time spent up to now is     2068.5 secs

     Computing kpt #:   138  of   211
     total cpu time spent up to now is     2084.8 secs

     Computing kpt #:   139  of   211
     total cpu time spent up to now is     2100.1 secs

     Computing kpt #:   140  of   211
     total cpu time spent up to now is     2115.3 secs

     Computing kpt #:   141  of   211
     total cpu time spent up to now is     2130.6 secs

     Computing kpt #:   142  of   211
     total cpu time spent up to now is     2145.9 secs

     Computing kpt #:   143  of   211
     total cpu time spent up to now is     2161.0 secs

     Computing kpt #:   144  of   211
     total cpu time spent up to now is     2176.2 secs

     Computing kpt #:   145  of   211
     total cpu time spent up to now is     2192.5 secs

     Computing kpt #:   146  of   211
     total cpu time spent up to now is     2209.2 secs

     Computing kpt #:   147  of   211
     total cpu time spent up to now is     2225.8 secs

     Computing kpt #:   148  of   211
     total cpu time spent up to now is     2241.1 secs

     Computing kpt #:   149  of   211
     total cpu time spent up to now is     2256.4 secs

     Computing kpt #:   150  of   211
     total cpu time spent up to now is     2271.9 secs

     Computing kpt #:   151  of   211
     total cpu time spent up to now is     2288.2 secs

     Computing kpt #:   152  of   211
     total cpu time spent up to now is     2307.9 secs

     Computing kpt #:   153  of   211
     total cpu time spent up to now is     2324.3 secs

     Computing kpt #:   154  of   211
     total cpu time spent up to now is     2340.7 secs

     Computing kpt #:   155  of   211
     total cpu time spent up to now is     2357.4 secs

     Computing kpt #:   156  of   211
     c_bands:  2 eigenvalues not converged
     total cpu time spent up to now is     2377.4 secs

     Computing kpt #:   157  of   211
     total cpu time spent up to now is     2394.2 secs

     Computing kpt #:   158  of   211
     total cpu time spent up to now is     2410.7 secs

     Computing kpt #:   159  of   211
     total cpu time spent up to now is     2426.2 secs

     Computing kpt #:   160  of   211
     total cpu time spent up to now is     2441.4 secs

     Computing kpt #:   161  of   211
     total cpu time spent up to now is     2456.5 secs

     Computing kpt #:   162  of   211
     total cpu time spent up to now is     2473.0 secs

     Computing kpt #:   163  of   211
     total cpu time spent up to now is     2489.1 secs

     Computing kpt #:   164  of   211
     total cpu time spent up to now is     2503.9 secs

     Computing kpt #:   165  of   211
     total cpu time spent up to now is     2518.5 secs

     Computing kpt #:   166  of   211
     total cpu time spent up to now is     2533.0 secs

     Computing kpt #:   167  of   211
     total cpu time spent up to now is     2547.8 secs

     Computing kpt #:   168  of   211
     total cpu time spent up to now is     2562.6 secs

     Computing kpt #:   169  of   211
     total cpu time spent up to now is     2577.3 secs

     Computing kpt #:   170  of   211
     total cpu time spent up to now is     2591.9 secs

     Computing kpt #:   171  of   211
     total cpu time spent up to now is     2606.3 secs

     Computing kpt #:   172  of   211
     total cpu time spent up to now is     2620.6 secs

     Computing kpt #:   173  of   211
     total cpu time spent up to now is     2635.0 secs

     Computing kpt #:   174  of   211
     total cpu time spent up to now is     2649.3 secs

     Computing kpt #:   175  of   211
     total cpu time spent up to now is     2663.7 secs

     Computing kpt #:   176  of   211
     total cpu time spent up to now is     2678.2 secs

     Computing kpt #:   177  of   211
     total cpu time spent up to now is     2692.7 secs

     Computing kpt #:   178  of   211
     total cpu time spent up to now is     2707.3 secs

     Computing kpt #:   179  of   211
     total cpu time spent up to now is     2722.9 secs

     Computing kpt #:   180  of   211
     total cpu time spent up to now is     2740.1 secs

     Computing kpt #:   181  of   211
     total cpu time spent up to now is     2755.7 secs

     Computing kpt #:   182  of   211
     total cpu time spent up to now is     2771.5 secs

     Computing kpt #:   183  of   211
     total cpu time spent up to now is     2786.2 secs

     Computing kpt #:   184  of   211
     total cpu time spent up to now is     2801.8 secs

     Computing kpt #:   185  of   211
     total cpu time spent up to now is     2817.9 secs

     Computing kpt #:   186  of   211
     total cpu time spent up to now is     2833.9 secs

     Computing kpt #:   187  of   211
     total cpu time spent up to now is     2851.2 secs

     Computing kpt #:   188  of   211
     total cpu time spent up to now is     2867.6 secs

     Computing kpt #:   189  of   211
     total cpu time spent up to now is     2884.1 secs

     Computing kpt #:   190  of   211
     total cpu time spent up to now is     2899.1 secs

     Computing kpt #:   191  of   211
     total cpu time spent up to now is     2913.8 secs

     Computing kpt #:   192  of   211
     total cpu time spent up to now is     2928.2 secs

     Computing kpt #:   193  of   211
     total cpu time spent up to now is     2942.9 secs

     Computing kpt #:   194  of   211
     total cpu time spent up to now is     2958.0 secs

     Computing kpt #:   195  of   211
     total cpu time spent up to now is     2974.2 secs

     Computing kpt #:   196  of   211
     total cpu time spent up to now is     2990.0 secs

     Computing kpt #:   197  of   211
     total cpu time spent up to now is     3005.2 secs

     Computing kpt #:   198  of   211
     total cpu time spent up to now is     3020.4 secs

     Computing kpt #:   199  of   211
     total cpu time spent up to now is     3036.3 secs

     Computing kpt #:   200  of   211
     total cpu time spent up to now is     3052.7 secs

     Computing kpt #:   201  of   211
     total cpu time spent up to now is     3067.9 secs

     Computing kpt #:   202  of   211
     total cpu time spent up to now is     3082.9 secs

     Computing kpt #:   203  of   211
     total cpu time spent up to now is     3097.8 secs

     Computing kpt #:   204  of   211
     total cpu time spent up to now is     3113.8 secs

     Computing kpt #:   205  of   211
     total cpu time spent up to now is     3128.8 secs

     Computing kpt #:   206  of   211
     total cpu time spent up to now is     3145.1 secs

     Computing kpt #:   207  of   211
     total cpu time spent up to now is     3161.5 secs

     Computing kpt #:   208  of   211
     total cpu time spent up to now is     3178.2 secs

     Computing kpt #:   209  of   211
     total cpu time spent up to now is     3194.7 secs

     Computing kpt #:   210  of   211
     total cpu time spent up to now is     3211.3 secs

     Computing kpt #:   211  of   211
     total cpu time spent up to now is     3227.7 secs

     ethr =  1.28E-10,  avg # of iterations = 58.2

     total cpu time spent up to now is     3227.7 secs

     End of band structure calculation

          k = 0.0000 0.0000 0.0000 ( 23771 PWs)   bands (ev):

   -35.3670 -35.3670 -35.3635 -35.3635 -35.3421 -35.3421 -35.3387 -35.3387
   -35.2617 -35.2617 -35.2255 -35.2255 -33.9070 -33.9070 -33.9036 -33.9036
   -33.8859 -33.8859 -33.8825 -33.8825 -33.8746 -33.8746 -33.8713 -33.8713
   -33.7992 -33.7992 -33.7838 -33.7838 -33.7523 -33.7523 -27.9819 -27.9819
   -27.9798 -27.9798 -27.9730 -27.9730 -27.9709 -27.9709 -26.7430 -26.7430
   -26.7408 -26.7408 -26.7328 -26.7328 -26.7317 -26.7317 -26.7307 -26.7307
   -26.7296 -26.7296 -10.5778 -10.5778 -10.0406 -10.0406  -8.9463  -8.9463
    -6.1647  -6.1647  -4.7074  -4.7074  -0.3928  -0.3928   0.1613   0.1613
     0.3880   0.3880   0.6664   0.6664   0.7650   0.7650   0.8783   0.8783
     1.0804   1.0804   1.4772   1.4772   1.6310   1.6310   2.3520   2.3520
     2.9526   2.9526   3.2626   3.2626   3.5089   3.5089   4.2832   4.2832
     4.3624   4.3624   6.3227   6.3227   6.5228   6.5228   7.0775   7.0775
     7.7562   7.7562   7.8690   7.8690   7.9020   7.9020   8.5228   8.5228
     8.8210   8.8210   8.9605   8.9605   9.1962   9.1962   9.2021   9.2021
     9.8346   9.8346   9.8571   9.8571  10.1692  10.1692  10.2747  10.2747
    10.6637  10.6637  11.3354  11.3354  11.4028  11.4028  11.6959  11.6959
    11.7723  11.7723  11.8471  11.8471  12.9144  12.9144  12.9935  12.9935
    14.1920  14.1920  14.2231  14.2231  14.3853  14.3853  14.4599  14.4599
    14.5410  14.5410  15.2762  15.2762  16.0932  16.0932  16.1495  16.1495
    16.1967  16.1967  16.4122  16.4122  16.4781  16.4781  16.5135  16.5135
    16.8877  16.8877  17.3651  17.3651  17.4905  17.4905  17.5206  17.5206
    17.5511  17.5511  17.6584  17.6584  17.6845  17.6845  17.8854  17.8854
    17.8932  17.8932  17.9067  17.9067  17.9337  17.9337  17.9442  17.9442
    18.1464  18.1464  18.4100  18.4100  19.3636  19.3636  19.4384  19.4384
    19.4770  19.4770  19.5055  19.5055  19.5097  19.5097  19.7151  19.7151

          k = 0.0071 0.0041 0.0000 ( 23765 PWs)   bands (ev):

   -35.3670 -35.3670 -35.3635 -35.3635 -35.3421 -35.3421 -35.3387 -35.3387
   -35.2617 -35.2617 -35.2255 -35.2255 -33.9070 -33.9070 -33.9036 -33.9036
   -33.8859 -33.8859 -33.8825 -33.8825 -33.8746 -33.8746 -33.8713 -33.8713
   -33.7992 -33.7992 -33.7838 -33.7838 -33.7523 -33.7523 -27.9819 -27.9819
   -27.9798 -27.9798 -27.9730 -27.9730 -27.9709 -27.9709 -26.7430 -26.7430
   -26.7408 -26.7408 -26.7328 -26.7328 -26.7317 -26.7317 -26.7307 -26.7307
   -26.7296 -26.7296 -10.5774 -10.5774 -10.0402 -10.0401  -8.9461  -8.9461
    -6.1647  -6.1647  -4.7082  -4.7082  -0.3934  -0.3933   0.1551   0.1557
     0.3884   0.3894   0.6636   0.6647   0.7468   0.7537   0.8827   0.8906
     1.0836   1.0853   1.4725   1.4736   1.6348   1.6358   2.3572   2.3580
     2.9531   2.9539   3.2555   3.2575   3.5139   3.5159   4.2859   4.2863
     4.3616   4.3621   6.3236   6.3236   6.5230   6.5230   7.0778   7.0778
     7.7562   7.7563   7.8669   7.8670   7.9000   7.9002   8.5266   8.5266
     8.8203   8.8205   8.9584   8.9586   9.1953   9.1956   9.2013   9.2015
     9.8379   9.8382   9.8603   9.8607  10.1688  10.1689  10.2781  10.2781
    10.6669  10.6670  11.3319  11.3331  11.3970  11.3990  11.6724  11.6731
    11.7898  11.7914  11.8620  11.8636  12.9144  12.9144  12.9950  12.9950
    14.1789  14.1809  14.2037  14.2070  14.3962  14.3993  14.4654  14.4672
    14.5500  14.5500  15.2808  15.2808  16.0809  16.0817  16.1305  16.1320
    16.1894  16.1896  16.4265  16.4282  16.4872  16.4885  16.5168  16.5169
    16.8960  16.8960  17.3564  17.3566  17.4230  17.4230  17.4811  17.4815
    17.6030  17.6032  17.6838  17.6851  17.6976  17.6986  17.7834  17.7834
    17.8412  17.8413  17.9231  17.9232  17.9871  17.9872  18.0321  18.0323
    18.1654  18.1654  18.4265  18.4265  19.3282  19.3286  19.3838  19.3842
    19.4322  19.4332  19.5071  19.5074  19.5767  19.5771  19.6980  19.6984

          k = 0.0143 0.0082 0.0000 ( 23757 PWs)   bands (ev):

   -35.3670 -35.3670 -35.3635 -35.3635 -35.3421 -35.3421 -35.3387 -35.3387
   -35.2617 -35.2617 -35.2255 -35.2255 -33.9070 -33.9070 -33.9036 -33.9036
   -33.8859 -33.8859 -33.8825 -33.8825 -33.8746 -33.8746 -33.8713 -33.8713
   -33.7992 -33.7992 -33.7838 -33.7838 -33.7523 -33.7523 -27.9819 -27.9819
   -27.9798 -27.9798 -27.9730 -27.9730 -27.9709 -27.9709 -26.7430 -26.7430
   -26.7408 -26.7408 -26.7329 -26.7328 -26.7317 -26.7317 -26.7308 -26.7307
   -26.7296 -26.7296 -10.5760 -10.5760 -10.0389 -10.0389  -8.9453  -8.9453
    -6.1647  -6.1647  -4.7103  -4.7103  -0.3952  -0.3951   0.1378   0.1388
     0.3897   0.3916   0.6558   0.6580   0.7112   0.7208   0.8966   0.9081
     1.0946   1.0977   1.4601   1.4622   1.6471   1.6490   2.3727   2.3743
     2.9554   2.9569   3.2387   3.2422   3.5292   3.5327   4.2943   4.2951
     4.3597   4.3608   6.3261   6.3261   6.5237   6.5237   7.0786   7.0786
     7.7562   7.7563   7.8583   7.8586   7.8973   7.8976   8.5376   8.5376
     8.8182   8.8186   8.9521   8.9525   9.1927   9.1933   9.2002   9.2005
     9.8471   9.8477   9.8706   9.8713  10.1682  10.1683  10.2881  10.2882
    10.6767  10.6768  11.3225  11.3249  11.3822  11.3858  11.6331  11.6340
    11.8192  11.8214  11.9033  11.9056  12.9144  12.9144  12.9995  12.9995
    14.1443  14.1467  14.1650  14.1686  14.4181  14.4219  14.4826  14.4849
    14.5776  14.5776  15.2933  15.2934  16.0425  16.0435  16.0878  16.0897
    16.1780  16.1783  16.4566  16.4589  16.5073  16.5082  16.5321  16.5330
    16.9205  16.9206  17.2792  17.2793  17.3803  17.3806  17.4281  17.4283
    17.5942  17.5943  17.6500  17.6502  17.7138  17.7139  17.7839  17.7841
    17.8076  17.8078  17.9136  17.9137  18.0595  18.0596  18.1488  18.1489
    18.2183  18.2184  18.4743  18.4743  19.2345  19.2347  19.3136  19.3150
    19.3578  19.3596  19.5081  19.5083  19.5934  19.5936  19.6700  19.6703

          k = 0.0214 0.0124 0.0000 ( 23773 PWs)   bands (ev):

   -35.3670 -35.3670 -35.3635 -35.3635 -35.3421 -35.3421 -35.3387 -35.3387
   -35.2617 -35.2617 -35.2255 -35.2255 -33.9070 -33.9070 -33.9036 -33.9036
   -33.8859 -33.8859 -33.8825 -33.8825 -33.8746 -33.8746 -33.8713 -33.8713
   -33.7992 -33.7992 -33.7838 -33.7838 -33.7523 -33.7523 -27.9819 -27.9819
   -27.9798 -27.9798 -27.9730 -27.9730 -27.9709 -27.9709 -26.7430 -26.7430
   -26.7408 -26.7408 -26.7329 -26.7329 -26.7317 -26.7317 -26.7308 -26.7308
   -26.7296 -26.7296 -10.5738 -10.5738 -10.0368 -10.0368  -8.9439  -8.9439
    -6.1649  -6.1648  -4.7140  -4.7139  -0.3982  -0.3980   0.1111   0.1125
     0.3903   0.3929   0.6396   0.6435   0.6722   0.6817   0.9089   0.9219
     1.1120   1.1161   1.4417   1.4448   1.6676   1.6702   2.3965   2.3988
     2.9595   2.9616   3.2170   3.2214   3.5509   3.5553   4.3077   4.3088
     4.3574   4.3590   6.3303   6.3304   6.5247   6.5248   7.0798   7.0799
     7.7558   7.7559   7.8406   7.8410   7.8982   7.8985   8.5545   8.5546
     8.8140   8.8145   8.9419   8.9426   9.1888   9.1896   9.2005   9.2009
     9.8603   9.8609   9.8869   9.8877  10.1685  10.1687  10.3045  10.3046
    10.6932  10.6933  11.3070  11.3105  11.3594  11.3643  11.5976  11.5985
    11.8525  11.8548  11.9580  11.9603  12.9144  12.9145  13.0069  13.0069
    14.0929  14.0940  14.1237  14.1255  14.4318  14.4344  14.5135  14.5149
    14.6206  14.6207  15.3097  15.3098  15.9809  15.9813  16.0436  16.0448
    16.1670  16.1672  16.4760  16.4771  16.5379  16.5397  16.5590  16.5614
    16.9590  16.9592  17.1620  17.1621  17.3556  17.3566  17.3706  17.3715
    17.5411  17.5412  17.5650  17.5651  17.6718  17.6718  17.8457  17.8461
    17.8655  17.8659  17.9142  17.9143  18.1352  18.1352  18.2579  18.2580
    18.2955  18.2956  18.5494  18.5495  19.1211  19.1212  19.2375  19.2396
    19.2714  19.2738  19.4786  19.4788  19.5598  19.5598  19.6292  19.6295

          k = 0.0286 0.0165 0.0000 ( 23761 PWs)   bands (ev):

   -35.3670 -35.3669 -35.3635 -35.3635 -35.3421 -35.3421 -35.3387 -35.3387
   -35.2617 -35.2617 -35.2255 -35.2255 -33.9070 -33.9070 -33.9036 -33.9036
   -33.8859 -33.8859 -33.8825 -33.8825 -33.8746 -33.8746 -33.8713 -33.8713
   -33.7992 -33.7992 -33.7838 -33.7838 -33.7523 -33.7523 -27.9819 -27.9819
   -27.9798 -27.9798 -27.9730 -27.9730 -27.9709 -27.9709 -26.7430 -26.7430
   -26.7408 -26.7408 -26.7329 -26.7329 -26.7317 -26.7316 -26.7308 -26.7308
   -26.7296 -26.7296 -10.5706 -10.5706 -10.0339 -10.0339  -8.9421  -8.9421
    -6.1650  -6.1650  -4.7190  -4.7190  -0.4024  -0.4022   0.0768   0.0784
     0.3882   0.3915   0.6029   0.6106   0.6469   0.6537   0.9160   0.9295
     1.1327   1.1378   1.4207   1.4249   1.6950   1.6981   2.4258   2.4285
     2.9655   2.9678   3.1952   3.1999   3.5754   3.5804   4.3240   4.3251
     4.3566   4.3589   6.3362   6.3362   6.5263   6.5263   7.0814   7.0815
     7.7539   7.7540   7.8162   7.8165   7.9028   7.9031   8.5759   8.5760
     8.8062   8.8069   8.9295   8.9303   9.1848   9.1856   9.2036   9.2040
     9.8762   9.8768   9.9058   9.9068  10.1722  10.1724  10.3271  10.3272
    10.7164  10.7165  11.2855  11.2900  11.3301  11.3359  11.5712  11.5718
    11.8910  11.8933  12.0173  12.0194  12.9146  12.9147  13.0172  13.0172
    14.0325  14.0336  14.0807  14.0816  14.4360  14.4376  14.5542  14.5547
    14.6726  14.6727  15.3230  15.3232  15.9140  15.9140  15.9998  16.0005
    16.1550  16.1551  16.4803  16.4808  16.5718  16.5738  16.5978  16.6000
    16.9999  17.0002  17.0447  17.0450  17.2989  17.3000  17.3135  17.3144
    17.4657  17.4657  17.5303  17.5304  17.6094  17.6095  17.8841  17.8844
    17.9117  17.9120  17.9840  17.9842  18.2126  18.2126  18.3536  18.3536
    18.3910  18.3911  18.6457  18.6458  19.0065  19.0066  19.1377  19.1388
    19.1971  19.1984  19.4323  19.4325  19.5150  19.5151  19.5775  19.5777

          k = 0.0357 0.0206 0.0000 ( 23763 PWs)   bands (ev):

   -35.3669 -35.3669 -35.3635 -35.3635 -35.3421 -35.3421 -35.3387 -35.3387
   -35.2617 -35.2617 -35.2255 -35.2255 -33.9070 -33.9070 -33.9036 -33.9036
   -33.8859 -33.8859 -33.8825 -33.8825 -33.8746 -33.8746 -33.8713 -33.8713
   -33.7992 -33.7992 -33.7838 -33.7838 -33.7523 -33.7523 -27.9819 -27.9819
   -27.9798 -27.9798 -27.9730 -27.9730 -27.9709 -27.9709 -26.7430 -26.7429
   -26.7408 -26.7408 -26.7329 -26.7329 -26.7317 -26.7316 -26.7308 -26.7308
   -26.7296 -26.7295 -10.5665 -10.5665 -10.0301 -10.0301  -8.9397  -8.9397
    -6.1652  -6.1652  -4.7256  -4.7255  -0.4080  -0.4077   0.0364   0.0381
     0.3822   0.3859   0.5536   0.5627   0.6303   0.6366   0.9172   0.9307
     1.1526   1.1586   1.4023   1.4073   1.7275   1.7309   2.4572   2.4603
     2.9735   2.9757   3.1769   3.1816   3.6007   3.6059   4.3340   4.3354
     4.3663   4.3692   6.3436   6.3437   6.5282   6.5283   7.0833   7.0833
     7.7463   7.7464   7.7919   7.7922   7.9103   7.9106   8.6002   8.6003
     8.7930   8.7938   8.9175   8.9184   9.1812   9.1819   9.2104   9.2108
     9.8937   9.8945   9.9232   9.9243  10.1824  10.1826  10.3552  10.3553
    10.7463  10.7465  11.2578  11.2627  11.2977  11.3037  11.5544  11.5547
    11.9340  11.9363  12.0776  12.0796  12.9150  12.9151  13.0303  13.0304
    13.9690  13.9701  14.0366  14.0374  14.4374  14.4384  14.5981  14.5983
    14.7290  14.7292  15.3239  15.3240  15.8570  15.8572  15.9564  15.9568
    16.1413  16.1415  16.4795  16.4798  16.5920  16.5928  16.6512  16.6520
    16.9184  16.9186  17.0352  17.0354  17.2333  17.2341  17.2501  17.2507
    17.4179  17.4179  17.5015  17.5016  17.5450  17.5451  17.8979  17.8980
    17.9823  17.9824  18.0724  18.0726  18.2913  18.2913  18.4323  18.4324
    18.4997  18.4998  18.7483  18.7483  18.9059  18.9060  19.0250  19.0255
    19.1297  19.1304  19.3793  19.3795  19.4688  19.4689  19.5237  19.5238

          k = 0.0429 0.0247 0.0000 ( 23757 PWs)   bands (ev):

   -35.3669 -35.3669 -35.3635 -35.3635 -35.3421 -35.3421 -35.3387 -35.3387
   -35.2617 -35.2617 -35.2255 -35.2255 -33.9070 -33.9070 -33.9036 -33.9036
   -33.8859 -33.8859 -33.8825 -33.8825 -33.8746 -33.8746 -33.8713 -33.8713
   -33.7992 -33.7992 -33.7838 -33.7838 -33.7522 -33.7522 -27.9819 -27.9819
   -27.9798 -27.9798 -27.9730 -27.9730 -27.9710 -27.9709 -26.7429 -26.7429
   -26.7408 -26.7408 -26.7329 -26.7329 -26.7317 -26.7316 -26.7308 -26.7308
   -26.7296 -26.7295 -10.5616 -10.5616 -10.0256 -10.0256  -8.9368  -8.9368
    -6.1655  -6.1655  -4.7335  -4.7335  -0.4152  -0.4148  -0.0090  -0.0072
     0.3711   0.3750   0.5019   0.5111   0.6146   0.6210   0.9124   0.9255
     1.1674   1.1740   1.3921   1.3977   1.7629   1.7663   2.4876   2.4908
     2.9839   2.9854   3.1655   3.1696   3.6254   3.6306   4.3329   4.3350
     4.3912   4.3940   6.3526   6.3527   6.5305   6.5306   7.0851   7.0851
     7.7245   7.7247   7.7782   7.7785   7.9201   7.9203   8.6259   8.6260
     8.7729   8.7736   8.9092   8.9101   9.1780   9.1786   9.2215   9.2218
     9.9099   9.9106   9.9377   9.9388  10.2019  10.2022  10.3882  10.3883
    10.7830  10.7832  11.2236  11.2279  11.2673  11.2725  11.5455  11.5457
    11.9806  11.9829  12.1372  12.1391  12.9158  12.9160  13.0461  13.0461
    13.9051  13.9062  13.9926  13.9933  14.4401  14.4408  14.6422  14.6425
    14.7867  14.7869  15.3032  15.3034  15.8194  15.8196  15.9148  15.9151
    16.1268  16.1269  16.4760  16.4762  16.6017  16.6021  16.7057  16.7063
    16.8080  16.8084  16.9979  16.9980  17.1843  17.1848  17.2179  17.2183
    17.3856  17.3856  17.4735  17.4737  17.4826  17.4829  17.9284  17.9285
    18.0556  18.0557  18.1588  18.1589  18.3710  18.3710  18.4929  18.4929
    18.6047  18.6048  18.7713  18.7713  18.9033  18.9035  18.9219  18.9222
    19.0642  19.0645  19.3240  19.3242  19.4249  19.4250  19.4719  19.4721

          k = 0.0500 0.0289 0.0000 ( 23753 PWs)   bands (ev):

   -35.3669 -35.3669 -35.3635 -35.3635 -35.3421 -35.3421 -35.3387 -35.3387
   -35.2617 -35.2617 -35.2255 -35.2255 -33.9070 -33.9070 -33.9036 -33.9036
   -33.8859 -33.8859 -33.8825 -33.8825 -33.8746 -33.8746 -33.8713 -33.8713
   -33.7992 -33.7992 -33.7838 -33.7838 -33.7522 -33.7522 -27.9819 -27.9819
   -27.9798 -27.9798 -27.9730 -27.9730 -27.9710 -27.9709 -26.7429 -26.7429
   -26.7408 -26.7408 -26.7329 -26.7329 -26.7317 -26.7316 -26.7308 -26.7308
   -26.7296 -26.7295 -10.5557 -10.5557 -10.0201 -10.0201  -8.9333  -8.9333
    -6.1659  -6.1659  -4.7430  -4.7429  -0.4241  -0.4236  -0.0584  -0.0566
     0.3539   0.3577   0.4511   0.4597   0.5985   0.6050   0.9011   0.9135
     1.1744   1.1812   1.3949   1.4004   1.7986   1.8020   2.5144   2.5176
     2.9969   2.9976   3.1633   3.1663   3.6489   3.6541   4.3285   4.3311
     4.4233   4.4261   6.3631   6.3632   6.5332   6.5333   7.0866   7.0867
     7.6910   7.6912   7.7744   7.7747   7.9320   7.9321   8.6517   8.6517
     8.7465   8.7472   8.9056   8.9064   9.1756   9.1760   9.2365   9.2368
     9.9168   9.9172   9.9552   9.9558  10.2323  10.2325  10.4252  10.4253
    10.8258  10.8260  11.1848  11.1878  11.2410  11.2447  11.5420  11.5423
    12.0299  12.0321  12.1948  12.1966  12.9173  12.9174  13.0642  13.0642
    13.8426  13.8437  13.9495  13.9501  14.4463  14.4468  14.6846  14.6851
    14.8426  14.8430  15.2592  15.2593  15.8010  15.8013  15.8768  15.8769
    16.1134  16.1136  16.4654  16.4655  16.5941  16.5943  16.7121  16.7129
    16.7604  16.7611  16.9117  16.9117  17.1347  17.1350  17.2191  17.2193
    17.3716  17.3717  17.4202  17.4203  17.4554  17.4555  17.9746  17.9747
    18.1300  18.1301  18.2399  18.2401  18.4511  18.4512  18.5088  18.5088
    18.6625  18.6626  18.7445  18.7447  18.8427  18.8430  18.9969  18.9977
    19.0241  19.0246  19.2688  19.2690  19.3854  19.3855  19.4292  19.4294

          k = 0.0571 0.0330 0.0000 ( 23747 PWs)   bands (ev):

   -35.3669 -35.3669 -35.3635 -35.3635 -35.3421 -35.3421 -35.3387 -35.3387
   -35.2617 -35.2617 -35.2255 -35.2255 -33.9070 -33.9070 -33.9036 -33.9036
   -33.8859 -33.8859 -33.8825 -33.8825 -33.8746 -33.8746 -33.8713 -33.8713
   -33.7992 -33.7992 -33.7838 -33.7838 -33.7522 -33.7522 -27.9819 -27.9819
   -27.9798 -27.9798 -27.9731 -27.9730 -27.9710 -27.9709 -26.7429 -26.7429
   -26.7408 -26.7408 -26.7329 -26.7329 -26.7317 -26.7316 -26.7308 -26.7308
   -26.7296 -26.7295 -10.5490 -10.5490 -10.0139 -10.0139  -8.9294  -8.9294
    -6.1664  -6.1663  -4.7539  -4.7538  -0.4350  -0.4345  -0.1111  -0.1093
     0.3290   0.3325   0.4045   0.4112   0.5815   0.5879   0.8830   0.8945
     1.1749   1.1813   1.4107   1.4157   1.8324   1.8355   2.5362   2.5392
     3.0118   3.0140   3.1712   3.1733   3.6712   3.6762   4.3237   4.3267
     4.4593   4.4621   6.3750   6.3751   6.5363   6.5364   7.0875   7.0876
     7.6537   7.6539   7.7739   7.7742   7.9457   7.9458   8.6750   8.6751
     8.7179   8.7185   8.9059   8.9065   9.1740   9.1743   9.2552   9.2555
     9.9113   9.9116   9.9785   9.9788  10.2726  10.2728  10.4651  10.4653
    10.8735  10.8737  11.1456  11.1475  11.2183  11.2208  11.5420  11.5424
    12.0810  12.0831  12.2493  12.2510  12.9198  12.9199  13.0841  13.0841
    13.7834  13.7844  13.9079  13.9085  14.4571  14.4576  14.7239  14.7246
    14.8907  14.8912  15.2016  15.2017  15.7913  15.7917  15.8438  15.8439
    16.1041  16.1043  16.4320  16.4321  16.5659  16.5660  16.6493  16.6495
    16.7950  16.7954  16.8359  16.8363  17.0954  17.0957  17.2028  17.2029
    17.3523  17.3525  17.3670  17.3673  17.4707  17.4707  18.0290  18.0291
    18.2044  18.2045  18.3045  18.3047  18.4649  18.4649  18.5336  18.5337
    18.6355  18.6358  18.7248  18.7248  18.9080  18.9085  18.9460  18.9464
    19.1217  19.1218  19.2151  19.2153  19.3468  19.3470  19.4184  19.4184

          k = 0.0643 0.0371 0.0000 ( 23745 PWs)   bands (ev):

   -35.3669 -35.3669 -35.3635 -35.3635 -35.3421 -35.3421 -35.3387 -35.3387
   -35.2617 -35.2617 -35.2255 -35.2255 -33.9070 -33.9070 -33.9036 -33.9035
   -33.8859 -33.8859 -33.8825 -33.8825 -33.8746 -33.8746 -33.8713 -33.8713
   -33.7992 -33.7992 -33.7838 -33.7838 -33.7522 -33.7522 -27.9819 -27.9819
   -27.9798 -27.9798 -27.9731 -27.9730 -27.9710 -27.9709 -26.7429 -26.7429
   -26.7408 -26.7408 -26.7329 -26.7329 -26.7317 -26.7316 -26.7308 -26.7308
   -26.7296 -26.7295 -10.5413 -10.5413 -10.0068 -10.0068  -8.9249  -8.9249
    -6.1670  -6.1669  -4.7662  -4.7662  -0.4484  -0.4478  -0.1661  -0.1643
     0.2935   0.2983   0.3647   0.3690   0.5632   0.5692   0.8584   0.8686
     1.1724   1.1782   1.4362   1.4406   1.8616   1.8644   2.5534   2.5561
     3.0297   3.0338   3.1887   3.1910   3.6925   3.6971   4.3195   4.3229
     4.4980   4.5007   6.3881   6.3883   6.5396   6.5398   7.0873   7.0874
     7.6162   7.6164   7.7745   7.7747   7.9613   7.9614   8.6736   8.6739
     8.7111   8.7115   8.9084   8.9089   9.1737   9.1739   9.2774   9.2775
     9.8978   9.8980  10.0048  10.0049  10.3212  10.3214  10.5069  10.5071
    10.9226  10.9228  11.1120  11.1129  11.1990  11.2006  11.5441  11.5445
    12.1332  12.1353  12.3000  12.3016  12.9237  12.9238  13.1047  13.1047
    13.7292  13.7302  13.8683  13.8688  14.4732  14.4736  14.7586  14.7595
    14.9147  14.9156  15.1541  15.1542  15.7769  15.7773  15.8170  15.8172
    16.0991  16.0993  16.3663  16.3664  16.5473  16.5474  16.5716  16.5716
    16.7919  16.7929  16.8215  16.8225  17.0753  17.0755  17.1742  17.1743
    17.3088  17.3093  17.3254  17.3259  17.5238  17.5239  18.0735  18.0736
    18.2752  18.2753  18.3162  18.3163  18.4411  18.4413  18.5508  18.5511
    18.6168  18.6172  18.7729  18.7730  18.8709  18.8711  19.0227  19.0229
    19.1611  19.1612  19.1898  19.1899  19.3111  19.3112  19.4698  19.4698

          k = 0.0714 0.0412 0.0000 ( 23747 PWs)   bands (ev):

   -35.3669 -35.3669 -35.3635 -35.3635 -35.3421 -35.3421 -35.3387 -35.3387
   -35.2617 -35.2617 -35.2255 -35.2255 -33.9069 -33.9069 -33.9035 -33.9035
   -33.8859 -33.8859 -33.8825 -33.8825 -33.8746 -33.8746 -33.8713 -33.8712
   -33.7992 -33.7992 -33.7838 -33.7838 -33.7522 -33.7522 -27.9819 -27.9819
   -27.9798 -27.9798 -27.9731 -27.9730 -27.9710 -27.9709 -26.7429 -26.7429
[...]
   -35.2617 -35.2617 -35.2255 -35.2255 -33.9070 -33.9070 -33.9035 -33.9035
   -33.8859 -33.8859 -33.8825 -33.8825 -33.8746 -33.8746 -33.8713 -33.8712
   -33.7992 -33.7992 -33.7838 -33.7838 -33.7522 -33.7522 -27.9819 -27.9819
   -27.9798 -27.9798 -27.9731 -27.9730 -27.9710 -27.9709 -26.7429 -26.7429
   -26.7408 -26.7408 -26.7329 -26.7329 -26.7317 -26.7316 -26.7308 -26.7308
   -26.7296 -26.7295 -10.5394 -10.5394 -10.0051 -10.0051  -8.9238  -8.9238
    -6.1672  -6.1671  -4.7694  -4.7693  -0.4513  -0.4505  -0.1749  -0.1712
     0.2287   0.2329   0.4174   0.4225   0.5475   0.5517   0.8505   0.8580
     1.1902   1.1932   1.4257   1.4293   1.8610   1.8640   2.5973   2.6008
     2.9822   2.9858   3.2038   3.2064   3.7141   3.7188   4.3153   4.3184
     4.5064   4.5081   6.3917   6.3918   6.5407   6.5408   7.0891   7.0891
     7.6077   7.6079   7.7529   7.7530   7.9867   7.9869   8.6989   8.6990
     8.7323   8.7329   8.8230   8.8236   9.2122   9.2127   9.2827   9.2829
     9.9281   9.9287   9.9713   9.9719  10.3401  10.3405  10.5169  10.5171
    10.9369  10.9375  11.0394  11.0398  11.2974  11.2982  11.4899  11.4908
    12.1561  12.1583  12.3137  12.3154  12.9294  12.9295  13.1134  13.1135
    13.6892  13.6899  13.8606  13.8611  14.5705  14.5712  14.6669  14.6673
    14.9666  14.9673  15.1459  15.1463  15.5484  15.5486  16.0046  16.0047
    16.2154  16.2156  16.3317  16.3318  16.5058  16.5059  16.6425  16.6429
    16.6827  16.6831  16.7870  16.7871  16.9224  16.9226  16.9432  16.9434
    17.4779  17.4780  17.6651  17.6652  17.8257  17.8259  17.8665  17.8666
    17.9794  17.9795  18.2798  18.2801  18.3961  18.3963  18.5058  18.5060
    18.7216  18.7219  18.7460  18.7463  18.8184  18.8185  19.0338  19.0338
    19.1200  19.1200  19.2899  19.2899  19.6394  19.6395  19.7483  19.7484

          k = 0.0333 0.0577 0.0000 ( 23755 PWs)   bands (ev):

   -35.3669 -35.3669 -35.3635 -35.3635 -35.3421 -35.3421 -35.3387 -35.3387
   -35.2617 -35.2617 -35.2255 -35.2255 -33.9070 -33.9070 -33.9036 -33.9036
   -33.8859 -33.8859 -33.8825 -33.8825 -33.8746 -33.8746 -33.8713 -33.8713
   -33.7992 -33.7992 -33.7838 -33.7838 -33.7522 -33.7522 -27.9819 -27.9819
   -27.9798 -27.9798 -27.9731 -27.9730 -27.9710 -27.9709 -26.7429 -26.7429
   -26.7408 -26.7408 -26.7329 -26.7329 -26.7317 -26.7316 -26.7308 -26.7308
   -26.7296 -26.7295 -10.5484 -10.5484 -10.0134 -10.0134  -8.9290  -8.9290
    -6.1665  -6.1664  -4.7548  -4.7548  -0.4357  -0.4351  -0.1130  -0.1095
     0.2858   0.2898   0.4521   0.4577   0.5688   0.5727   0.8742   0.8832
     1.1992   1.2036   1.3943   1.3990   1.8310   1.8341   2.5603   2.5642
     2.9822   2.9856   3.1789   3.1817   3.6821   3.6869   4.3216   4.3242
     4.4622   4.4638   6.3761   6.3762   6.5367   6.5367   7.0884   7.0885
     7.6543   7.6545   7.7560   7.7561   7.9617   7.9618   8.6773   8.6775
     8.7521   8.7523   8.8426   8.8430   9.2088   9.2093   9.2501   9.2504
     9.9312   9.9322   9.9542   9.9553  10.2804  10.2808  10.4686  10.4688
    10.8770  10.8773  11.0919  11.0924  11.2972  11.2981  11.5036  11.5045
    12.0937  12.0959  12.2535  12.2552  12.9223  12.9224  13.0870  13.0871
    13.7710  13.7719  13.8924  13.8931  14.5523  14.5532  14.6244  14.6249
    14.9223  14.9228  15.2181  15.2183  15.6184  15.6187  15.9522  15.9523
    16.2274  16.2275  16.3937  16.3938  16.5876  16.5876  16.6662  16.6667
    16.6899  16.6903  16.8889  16.8891  16.9562  16.9565  17.0079  17.0082
    17.3943  17.3944  17.6599  17.6599  17.7825  17.7826  17.8219  17.8219
    17.9718  17.9718  18.2538  18.2539  18.4983  18.4986  18.5323  18.5326
    18.6807  18.6809  18.8551  18.8553  18.8686  18.8689  18.9118  18.9119
    18.9676  18.9677  19.1685  19.1685  19.6329  19.6330  19.7292  19.7293

          k = 0.0286 0.0495 0.0000 ( 23751 PWs)   bands (ev):

   -35.3669 -35.3669 -35.3635 -35.3635 -35.3421 -35.3421 -35.3387 -35.3387
   -35.2617 -35.2617 -35.2255 -35.2255 -33.9070 -33.9070 -33.9036 -33.9036
   -33.8859 -33.8859 -33.8825 -33.8825 -33.8746 -33.8746 -33.8713 -33.8713
   -33.7992 -33.7992 -33.7838 -33.7838 -33.7522 -33.7522 -27.9819 -27.9819
   -27.9798 -27.9798 -27.9730 -27.9730 -27.9710 -27.9709 -26.7429 -26.7429
   -26.7408 -26.7408 -26.7329 -26.7329 -26.7317 -26.7316 -26.7308 -26.7308
   -26.7296 -26.7295 -10.5562 -10.5562 -10.0206 -10.0206  -8.9336  -8.9336
    -6.1659  -6.1659  -4.7422  -4.7422  -0.4232  -0.4228  -0.0536  -0.0504
     0.3327   0.3367   0.4882   0.4948   0.5910   0.5944   0.8942   0.9045
     1.1956   1.2009   1.3802   1.3855   1.7943   1.7973   2.5232   2.5271
     2.9805   2.9837   3.1662   3.1697   3.6518   3.6567   4.3281   4.3303
     4.4210   4.4226   6.3623   6.3624   6.5331   6.5331   7.0868   7.0869
     7.6994   7.6996   7.7597   7.7598   7.9407   7.9408   8.6494   8.6496
     8.7719   8.7723   8.8669   8.8672   9.2025   9.2029   9.2260   9.2264
     9.9210   9.9219   9.9464   9.9474  10.2315  10.2318  10.4222  10.4223
    10.8218  10.8220  11.1492  11.1498  11.3028  11.3041  11.5176  11.5184
    12.0326  12.0348  12.1893  12.1911  12.9181  12.9182  13.0631  13.0631
    13.8534  13.8548  13.9311  13.9322  14.5310  14.5322  14.5869  14.5877
    14.8615  14.8619  15.2784  15.2785  15.7030  15.7034  15.9162  15.9163
    16.2199  16.2200  16.4366  16.4368  16.6292  16.6299  16.6701  16.6711
    16.7301  16.7303  17.0068  17.0068  17.0132  17.0135  17.0995  17.0997
    17.3128  17.3129  17.6549  17.6549  17.7372  17.7372  17.7888  17.7889
    17.9643  17.9643  18.2095  18.2095  18.4202  18.4203  18.5866  18.5867
    18.7324  18.7328  18.8050  18.8051  18.8249  18.8251  18.9297  18.9300
    18.9794  18.9797  19.0969  19.0970  19.6294  19.6294  19.7133  19.7133

          k = 0.0238 0.0412 0.0000 ( 23761 PWs)   bands (ev):

   -35.3669 -35.3669 -35.3635 -35.3635 -35.3421 -35.3421 -35.3387 -35.3387
   -35.2617 -35.2617 -35.2255 -35.2255 -33.9070 -33.9070 -33.9036 -33.9036
   -33.8859 -33.8859 -33.8825 -33.8825 -33.8746 -33.8746 -33.8713 -33.8713
   -33.7992 -33.7992 -33.7838 -33.7838 -33.7522 -33.7522 -27.9819 -27.9819
   -27.9798 -27.9798 -27.9730 -27.9730 -27.9709 -27.9709 -26.7429 -26.7429
   -26.7408 -26.7408 -26.7329 -26.7329 -26.7317 -26.7316 -26.7308 -26.7308
   -26.7296 -26.7295 -10.5628 -10.5628 -10.0267 -10.0267  -8.9375  -8.9375
    -6.1655  -6.1655  -4.7316  -4.7315  -0.4134  -0.4130   0.0020   0.0049
     0.3650   0.3688   0.5312   0.5383   0.6131   0.6156   0.9083   0.9198
     1.1776   1.1828   1.3865   1.3914   1.7542   1.7572   2.4849   2.4886
     2.9756   2.9786   3.1682   3.1724   3.6220   3.6268   4.3336   4.3350
     4.3852   4.3865   6.3505   6.3505   6.5300   6.5300   7.0847   7.0848
     7.7375   7.7378   7.7679   7.7682   7.9238   7.9240   8.6197   8.6198
     8.7891   8.7896   8.8921   8.8926   9.1947   9.1950   9.2115   9.2119
     9.9035   9.9042   9.9372   9.9380  10.1968  10.1971  10.3799  10.3800
    10.7737  10.7738  11.2060  11.2071  11.3135  11.3154  11.5338  11.5345
    11.9742  11.9764  12.1222  12.1240  12.9159  12.9160  13.0423  13.0423
    13.9342  13.9362  13.9765  13.9782  14.5077  14.5094  14.5551  14.5562
    14.7919  14.7922  15.3162  15.3163  15.7944  15.7948  15.9071  15.9073
    16.2071  16.2072  16.4630  16.4633  16.6119  16.6130  16.6445  16.6457
    16.8485  16.8485  17.0670  17.0672  17.1111  17.1112  17.1969  17.1971
    17.2748  17.2749  17.6509  17.6509  17.6953  17.6954  17.7641  17.7642
    17.9573  17.9573  18.1644  18.1645  18.2849  18.2850  18.5473  18.5474
    18.6552  18.6553  18.7603  18.7604  18.8548  18.8550  18.9456  18.9459
    19.0926  19.0929  19.1483  19.1483  19.6296  19.6297  19.6994  19.6995

          k = 0.0190 0.0330 0.0000 ( 23757 PWs)   bands (ev):

   -35.3669 -35.3669 -35.3635 -35.3635 -35.3421 -35.3421 -35.3387 -35.3387
   -35.2617 -35.2617 -35.2255 -35.2255 -33.9070 -33.9070 -33.9036 -33.9036
   -33.8859 -33.8859 -33.8825 -33.8825 -33.8746 -33.8746 -33.8713 -33.8713
   -33.7992 -33.7992 -33.7838 -33.7838 -33.7523 -33.7523 -27.9819 -27.9819
   -27.9798 -27.9798 -27.9730 -27.9730 -27.9709 -27.9709 -26.7430 -26.7430
   -26.7408 -26.7408 -26.7329 -26.7329 -26.7317 -26.7316 -26.7308 -26.7308
   -26.7296 -26.7295 -10.5682 -10.5682 -10.0317 -10.0317  -8.9407  -8.9407
    -6.1652  -6.1651  -4.7229  -4.7229  -0.4057  -0.4054   0.0523   0.0548
     0.3825   0.3858   0.5816   0.5877   0.6342   0.6362   0.9149   0.9270
     1.1509   1.1556   1.4066   1.4106   1.7146   1.7175   2.4463   2.4496
     2.9686   2.9714   3.1833   3.1878   3.5921   3.5968   4.3322   4.3326
     4.3609   4.3623   6.3406   6.3406   6.5274   6.5275   7.0825   7.0826
     7.7526   7.7528   7.7949   7.7952   7.9110   7.9112   8.5904   8.5905
     8.8024   8.8030   8.9154   8.9161   9.1891   9.1897   9.2041   9.2046
     9.8852   9.8858   9.9192   9.9200  10.1772  10.1774  10.3434  10.3435
    10.7340  10.7341  11.2569  11.2589  11.3292  11.3322  11.5546  11.5554
    11.9198  11.9220  12.0531  12.0551  12.9148  12.9150  13.0249  13.0250
    14.0104  14.0137  14.0279  14.0309  14.4829  14.4851  14.5286  14.5301
    14.7194  14.7196  15.3268  15.3269  15.8867  15.8871  15.9303  15.9307
    16.1947  16.1949  16.4769  16.4773  16.5806  16.5819  16.6140  16.6154
    16.9758  16.9759  17.0474  17.0475  17.2010  17.2013  17.2862  17.2864
    17.3475  17.3476  17.6475  17.6476  17.6690  17.6690  17.7448  17.7448
    17.9508  17.9509  18.1121  18.1122  18.1547  18.1548  18.4418  18.4419
    18.5034  18.5034  18.6827  18.6828  18.9612  18.9614  19.0327  19.0330
    19.2012  19.2015  19.2489  19.2490  19.6359  19.6359  19.6862  19.6864

          k = 0.0143 0.0247 0.0000 ( 23767 PWs)   bands (ev):

   -35.3670 -35.3670 -35.3635 -35.3635 -35.3421 -35.3421 -35.3387 -35.3387
   -35.2617 -35.2617 -35.2255 -35.2255 -33.9070 -33.9070 -33.9036 -33.9036
   -33.8859 -33.8859 -33.8825 -33.8825 -33.8746 -33.8746 -33.8713 -33.8713
   -33.7992 -33.7992 -33.7838 -33.7838 -33.7523 -33.7523 -27.9819 -27.9819
   -27.9798 -27.9798 -27.9730 -27.9730 -27.9709 -27.9709 -26.7430 -26.7430
   -26.7408 -26.7408 -26.7329 -26.7329 -26.7317 -26.7317 -26.7308 -26.7308
   -26.7296 -26.7296 -10.5724 -10.5724 -10.0356 -10.0356  -8.9431  -8.9431
    -6.1649  -6.1649  -4.7161  -4.7161  -0.3999  -0.3998   0.0958   0.0979
     0.3894   0.3920   0.6302   0.6321   0.6568   0.6634   0.9126   0.9247
     1.1232   1.1271   1.4318   1.4349   1.6796   1.6822   2.4098   2.4125
     2.9618   2.9640   3.2067   3.2109   3.5626   3.5669   4.3153   4.3163
     4.3566   4.3581   6.3328   6.3329   6.5254   6.5254   7.0805   7.0805
     7.7555   7.7556   7.8274   7.8277   7.9024   7.9026   8.5638   8.5639
     8.8116   8.8121   8.9349   8.9356   9.1885   9.1893   9.2007   9.2012
     9.8675   9.8681   9.8959   9.8967  10.1694  10.1695  10.3140  10.3141
    10.7031  10.7031  11.2951  11.2979  11.3511  11.3551  11.5832  11.5841
    11.8713  11.8734  11.9841  11.9861  12.9144  12.9145  13.0113  13.0113
    14.0766  14.0799  14.0878  14.0912  14.4566  14.4594  14.5062  14.5080
    14.6496  14.6498  15.3166  15.3167  15.9691  15.9704  15.9844  15.9863
    16.1857  16.1859  16.4801  16.4810  16.5438  16.5449  16.5784  16.5799
    16.9824  16.9824  17.1140  17.1140  17.2974  17.2978  17.3494  17.3496
    17.4717  17.4718  17.6397  17.6397  17.6799  17.6800  17.7285  17.7286
    17.9443  17.9445  17.9930  17.9932  18.0931  18.0931  18.3294  18.3294
    18.3548  18.3548  18.5817  18.5818  19.0848  19.0850  19.1447  19.1448
    19.2986  19.2989  19.3547  19.3549  19.6509  19.6511  19.6722  19.6725

          k = 0.0095 0.0165 0.0000 ( 23759 PWs)   bands (ev):

   -35.3670 -35.3670 -35.3635 -35.3635 -35.3421 -35.3421 -35.3387 -35.3387
   -35.2617 -35.2617 -35.2255 -35.2255 -33.9070 -33.9070 -33.9036 -33.9036
   -33.8859 -33.8859 -33.8825 -33.8825 -33.8746 -33.8746 -33.8713 -33.8713
   -33.7992 -33.7992 -33.7838 -33.7838 -33.7523 -33.7523 -27.9819 -27.9819
   -27.9798 -27.9798 -27.9730 -27.9730 -27.9709 -27.9709 -26.7430 -26.7430
   -26.7408 -26.7408 -26.7329 -26.7329 -26.7317 -26.7317 -26.7308 -26.7308
   -26.7296 -26.7296 -10.5754 -10.5754 -10.0383 -10.0383  -8.9449  -8.9449
    -6.1648  -6.1648  -4.7113  -4.7113  -0.3960  -0.3958   0.1302   0.1318
     0.3901   0.3919   0.6528   0.6551   0.6985   0.7076   0.9014   0.9125
     1.0999   1.1028   1.4550   1.4572   1.6526   1.6546   2.3793   2.3812
     2.9565   2.9581   3.2323   3.2359   3.5357   3.5392   4.2980   4.2988
     4.3591   4.3601   6.3272   6.3273   6.5240   6.5240   7.0789   7.0789
     7.7561   7.7562   7.8524   7.8527   7.8987   7.8989   8.5421   8.5422
     8.8172   8.8176   8.9491   8.9497   9.1917   9.1923   9.2001   9.2004
     9.8516   9.8521   9.8747   9.8754  10.1679  10.1681  10.2924  10.2924
    10.6811  10.6811  11.3184  11.3207  11.3763  11.3797  11.6215  11.6225
    11.8299  11.8319  11.9187  11.9207  12.9143  12.9144  13.0014  13.0015
    14.1323  14.1346  14.1489  14.1522  14.4284  14.4317  14.4858  14.4878
    14.5907  14.5908  15.2981  15.2981  16.0304  16.0318  16.0616  16.0636
    16.1825  16.1828  16.4654  16.4673  16.5127  16.5132  16.5409  16.5419
    16.9312  16.9312  17.2458  17.2459  17.3744  17.3751  17.3958  17.3963
    17.6034  17.6037  17.6332  17.6335  17.7144  17.7145  17.7266  17.7268
    17.8621  17.8622  17.9389  17.9390  18.0463  18.0463  18.1979  18.1980
    18.2404  18.2404  18.4927  18.4927  19.2091  19.2094  19.2582  19.2583
    19.3763  19.3768  19.4497  19.4500  19.6431  19.6433  19.6848  19.6855

          k = 0.0048 0.0082 0.0000 ( 23759 PWs)   bands (ev):

   -35.3670 -35.3670 -35.3635 -35.3635 -35.3421 -35.3421 -35.3387 -35.3387
   -35.2617 -35.2617 -35.2255 -35.2255 -33.9070 -33.9070 -33.9036 -33.9036
   -33.8859 -33.8859 -33.8825 -33.8825 -33.8746 -33.8746 -33.8713 -33.8713
   -33.7992 -33.7992 -33.7838 -33.7838 -33.7523 -33.7523 -27.9819 -27.9819
   -27.9798 -27.9798 -27.9730 -27.9730 -27.9709 -27.9709 -26.7430 -26.7430
   -26.7408 -26.7408 -26.7329 -26.7328 -26.7317 -26.7317 -26.7307 -26.7307
   -26.7296 -26.7296 -10.5772 -10.5772 -10.0400 -10.0400  -8.9460  -8.9460
    -6.1647  -6.1647  -4.7084  -4.7084  -0.3936  -0.3935   0.1530   0.1538
     0.3886   0.3896   0.6628   0.6640   0.7423   0.7490   0.8850   0.8930
     1.0850   1.0866   1.4711   1.4723   1.6361   1.6372   2.3590   2.3599
     2.9534   2.9542   3.2535   3.2556   3.5158   3.5179   4.2869   4.2873
     4.3614   4.3619   6.3239   6.3239   6.5231   6.5231   7.0779   7.0779
     7.7562   7.7563   7.8656   7.8658   7.9001   7.9002   8.5278   8.5278
     8.8201   8.8203   8.9576   8.9580   9.1950   9.1953   9.2012   9.2014
     9.8393   9.8396   9.8613   9.8617  10.1687  10.1688  10.2792  10.2792
    10.6680  10.6680  11.3309  11.3322  11.3953  11.3973  11.6666  11.6674
    11.7946  11.7961  11.8667  11.8683  12.9144  12.9144  12.9955  12.9955
    14.1748  14.1767  14.1989  14.2019  14.3996  14.4025  14.4676  14.4693
    14.5530  14.5531  15.2822  15.2823  16.0765  16.0773  16.1243  16.1257
    16.1885  16.1888  16.4311  16.4328  16.4905  16.4916  16.5177  16.5178
    16.8986  16.8986  17.3505  17.3507  17.4103  17.4104  17.4730  17.4733
    17.6130  17.6132  17.6776  17.6781  17.7119  17.7122  17.7643  17.7644
    17.8324  17.8325  17.9323  17.9324  17.9894  17.9894  18.0520  18.0520
    18.1713  18.1714  18.4317  18.4317  19.3171  19.3175  19.3661  19.3663
    19.4321  19.4327  19.5014  19.5017  19.5901  19.5904  19.6954  19.6960

          k = 0.0000 0.0000 0.0000 ( 23771 PWs)   bands (ev):

   -35.3670 -35.3670 -35.3635 -35.3635 -35.3421 -35.3421 -35.3387 -35.3387
   -35.2617 -35.2617 -35.2255 -35.2255 -33.9070 -33.9070 -33.9036 -33.9036
   -33.8859 -33.8859 -33.8825 -33.8825 -33.8746 -33.8746 -33.8713 -33.8713
   -33.7992 -33.7992 -33.7838 -33.7838 -33.7523 -33.7523 -27.9819 -27.9819
   -27.9798 -27.9798 -27.9730 -27.9730 -27.9709 -27.9709 -26.7430 -26.7430
   -26.7408 -26.7408 -26.7328 -26.7328 -26.7317 -26.7317 -26.7307 -26.7307
   -26.7296 -26.7296 -10.5778 -10.5778 -10.0406 -10.0406  -8.9463  -8.9463
    -6.1647  -6.1647  -4.7074  -4.7074  -0.3928  -0.3928   0.1613   0.1613
     0.3880   0.3880   0.6664   0.6664   0.7650   0.7650   0.8783   0.8783
     1.0804   1.0804   1.4772   1.4772   1.6310   1.6310   2.3520   2.3520
     2.9526   2.9526   3.2626   3.2626   3.5089   3.5089   4.2832   4.2832
     4.3624   4.3624   6.3227   6.3227   6.5228   6.5228   7.0775   7.0775
     7.7562   7.7562   7.8690   7.8690   7.9020   7.9020   8.5228   8.5228
     8.8210   8.8210   8.9605   8.9605   9.1962   9.1962   9.2021   9.2021
     9.8346   9.8346   9.8571   9.8571  10.1692  10.1692  10.2747  10.2747
    10.6637  10.6637  11.3354  11.3354  11.4028  11.4028  11.6959  11.6959
    11.7723  11.7723  11.8471  11.8471  12.9144  12.9144  12.9935  12.9935
    14.1920  14.1920  14.2231  14.2231  14.3853  14.3853  14.4599  14.4599
    14.5410  14.5410  15.2762  15.2762  16.0932  16.0932  16.1495  16.1495
    16.1967  16.1967  16.4122  16.4122  16.4781  16.4781  16.5135  16.5135
    16.8877  16.8877  17.3651  17.3651  17.4905  17.4905  17.5206  17.5206
    17.5511  17.5511  17.6584  17.6584  17.6845  17.6845  17.8854  17.8854
    17.8932  17.8932  17.9067  17.9067  17.9337  17.9337  17.9442  17.9442
    18.1464  18.1464  18.4100  18.4100  19.3636  19.3636  19.4384  19.4384
    19.4770  19.4770  19.5055  19.5055  19.5097  19.5097  19.7151  19.7151

     Writing all to output data dir tmp/Sb2Te3-uatsx-c5-soc-0.0.save/ :
     XML data file, pseudopotentials, collected wavefunctions

     init_run     :      1.28s CPU      1.29s WALL (       1 calls)
     electrons    :   5976.97s CPU   3225.88s WALL (       1 calls)

     Called by init_run:
     wfcinit      :      0.00s CPU      0.01s WALL (       1 calls)
     wfcinit:wfcr :    143.92s CPU     76.17s WALL (     211 calls)
     potinit      :      0.26s CPU      0.24s WALL (       1 calls)
     hinit0       :      0.84s CPU      0.86s WALL (       1 calls)

     Called by electrons:
     c_bands      :   5976.94s CPU   3225.84s WALL (       1 calls)
     v_of_rho     :      0.07s CPU      0.05s WALL (       1 calls)
     v_h          :      0.00s CPU      0.01s WALL (       1 calls)
     v_xc         :      0.07s CPU      0.05s WALL (       1 calls)

     Called by c_bands:
     init_us_2    :      0.36s CPU      0.28s WALL (     211 calls)
     cegterg      :   5820.89s CPU   3139.78s WALL (     706 calls)

     Called by sum_band:

     Called by *egterg:
     cdiaghg      :    869.83s CPU    552.09s WALL (   12490 calls)
     cegterg:over :    518.36s CPU    273.20s WALL (   12279 calls)
     cegterg:upda :    367.93s CPU    201.35s WALL (   12279 calls)
     cegterg:last :    586.51s CPU    321.83s WALL (    5822 calls)
     cdiaghg:chol :     57.99s CPU     33.99s WALL (   12490 calls)
     cdiaghg:inve :     12.09s CPU      8.71s WALL (   12490 calls)
     cdiaghg:para :    146.06s CPU     75.94s WALL (   24980 calls)
     h_psi        :   3503.38s CPU   1800.77s WALL (   13196 calls)
     g_psi        :     20.81s CPU     10.81s WALL (   12279 calls)

     Called by h_psi:
     h_psi:calbec :    158.34s CPU     87.63s WALL (   13196 calls)
     vloc_psi     :   3186.95s CPU   1616.86s WALL (   13196 calls)
     add_vuspsi   :    133.98s CPU     83.88s WALL (   13196 calls)

     General routines
     calbec       :    158.25s CPU     87.59s WALL (   13196 calls)
     fft          :      0.88s CPU      0.89s WALL (      17 calls)
     ffts         :      0.15s CPU      0.14s WALL (       4 calls)
     fftw         :   2408.22s CPU   1225.47s WALL ( 4771112 calls)
     interpolate  :      0.16s CPU      0.15s WALL (       4 calls)
     davcio       :      0.74s CPU      1.30s WALL (     422 calls)

     Parallel routines

     PWSCF        :      1h40m CPU  57m39.40s WALL


   This run was terminated on:  14:45:44  22Aug2025            

=------------------------------------------------------------------------------=
   JOB DONE.
=------------------------------------------------------------------------------=
