
     Program PWSCF v.7.4.1 starts on 15Aug2025 at  0:52:53 

     This program is part of the open-source Quantum ESPRESSO suite
     for quantum simulation of materials; please cite
         "P. Giannozzi et al., J. Phys.:Condens. Matter 21 395502 (2009);
         "P. Giannozzi et al., J. Phys.:Condens. Matter 29 465901 (2017);
         "P. Giannozzi et al., J. Chem. Phys. 152 154105 (2020);
          URL http://www.quantum-espresso.org", 
     in publications or presentations arising from this work. More details at
     http://www.quantum-espresso.org/quote

     Parallel version (MPI & OpenMP), running on      48 processor cores
     Number of MPI processes:                24
     Threads/MPI process:                     2

     MPI processes distributed on     2 nodes
     66788 MiB available memory on the printing compute node when the environment starts

     Waiting for input...
     Reading input from standard input

     Current dimensions of program PWSCF are:
     Max number of different atomic species (ntypx) = 10
     Max number of k-points (npk) =  40000
     Max angular momentum in pseudopotentials (lmaxx) =  4
Error reading attribute index: expected integer, found *
Error reading attribute index: expected integer, found *

     IMPORTANT: XC functional enforced from input :
     Exchange-correlation= PBE
                           (   1   4   3   4   0   0   0)
     Any further DFT definition will be discarded
     Please, verify this is what you really want


     Atomic positions and unit cell read from directory:
     tmp/Sb2Te3-uatsx-c4-soc-5.0.save/

     Message from routine setup:
     no reason to have ecutrho>4*ecutwfc

     R & G space division:  proc/nbgrp/npool/nimage =      24
     Subspace diagonalization in iterative solution of the eigenvalue problem:
     a serial algorithm will be used


     Parallelization info
     --------------------
     sticks:   dense  smooth     PW     G-vecs:    dense   smooth      PW
     Min          99      40     11                19863     5026     767
     Max         100      41     12                19886     5041     778
     Sum        2397     963    273               477063   120743   18525

     Using Slab Decomposition



     bravais-lattice index     =            0
     lattice parameter (alat)  =       8.5529  a.u.
     unit-cell volume          =    2526.9262 (a.u.)^3
     number of atoms/cell      =            5
     number of atomic types    =            2
     number of electrons       =        78.00
     number of Kohn-Sham states=          100
     kinetic-energy cutoff     =      50.0000  Ry
     charge density cutoff     =     500.0000  Ry
     Exchange-correlation= PBE
                           (   1   4   3   4   0   0   0)
     Non magnetic calculation with spin-orbit


     celldm(1)=   8.552915  celldm(2)=   0.000000  celldm(3)=   0.000000
     celldm(4)=   0.000000  celldm(5)=   0.000000  celldm(6)=   0.000000

     crystal axes: (cart. coord. in units of alat)
               a(1) = (   1.000000   0.000000   0.000000 )  
               a(2) = (  -0.476190   0.824778   0.000000 )  
               a(3) = (   0.000000   0.000000   4.896807 )  

     reciprocal axes: (cart. coord. in units 2 pi/alat)
               b(1) = (  1.000000  0.577356 -0.000000 )  
               b(2) = (  0.000000  1.212447  0.000000 )  
               b(3) = (  0.000000 -0.000000  0.204215 )  


     PseudoPot. # 1 for Sb read from file:
     /zfs-home/202401017n1/pseudos/Sb_ONCV_PBE_FR-1.1.upf
     MD5 check sum: 7dc1726f2158e3c51e4807d42b9c5c65
     Pseudo is Norm-conserving, Zval = 15.0
     Generated using ONCVPSP code by D. R. Hamann
     Using radial grid of  602 points, 10 beta functions with: 
                l(1) =   0
                l(2) =   0
                l(3) =   1
                l(4) =   1
                l(5) =   1
                l(6) =   1
                l(7) =   2
                l(8) =   2
                l(9) =   2
               l(10) =   2

     PseudoPot. # 2 for Te read from file:
     /zfs-home/202401017n1/pseudos/Te_ONCV_PBE_FR-1.1.upf
     MD5 check sum: c6e17480449037a9a9d16e6377b5c7c4
     Pseudo is Norm-conserving, Zval = 16.0
     Generated using ONCVPSP code by D. R. Hamann
     Using radial grid of  602 points, 10 beta functions with: 
                l(1) =   0
                l(2) =   0
                l(3) =   1
                l(4) =   1
                l(5) =   1
                l(6) =   1
                l(7) =   2
                l(8) =   2
                l(9) =   2
               l(10) =   2

     atomic species   valence    mass     pseudopotential
     Sb               15.00   121.76000     Sb( 1.00)
     Te               16.00   127.60000     Te( 1.00)

     No symmetry found


                                    s                        frac. trans.

      isym =  1     identity                                     

 cryst.   s( 1) = (     1          0          0      )
                  (     0          1          0      )
                  (     0          0          1      )

 cart.    s( 1) = (  1.0000000  0.0000000  0.0000000 )
                  (  0.0000000  1.0000000  0.0000000 )
                  (  0.0000000  0.0000000  1.0000000 )


   Cartesian axes

     site n.     atom                  positions (alat units)
         1        Sb     tau(   1) = (   0.5941563   0.4140600   2.8819763  )
         2        Te     tau(   2) = (   0.5757813   0.3831770   1.6487259  )
         3        Sb     tau(   3) = (   0.0713597   0.1150985   2.0147862  )
         4        Te     tau(   4) = (   0.0896521   0.1461334   3.2480478  )
         5        Te     tau(   5) = (   0.0946223   0.6770376   2.4483865  )

     -------------------------------------------------
     Parameters for Dispersion (Grimme-D2) Correction:
     -------------------------------------------------
       atom      VdW radius       C_6     

        Sb         3.555       1333.532
        Te         3.575       1101.101

   Crystallographic axes

     site n.     atom                  positions (cryst. coord.)
         1        Sb     tau(   1) = (  0.8332162  0.5020259  0.5885420  )
         2        Te     tau(   2) = (  0.7970108  0.4645820  0.3366941  )
         3        Sb     tau(   3) = (  0.1378125  0.1395508  0.4114490  )
         4        Te     tau(   4) = (  0.1740231  0.1771791  0.6632992  )
         5        Te     tau(   5) = (  0.4855140  0.8208724  0.4999966  )

     number of k points=   211
                       cart. coord. in units 2pi/alat
        k(    1) = (   0.0000000   0.0000000   0.0000000), wk =   0.0047393
        k(    2) = (   0.0071429   0.0041240   0.0000000), wk =   0.0047393
        k(    3) = (   0.0142857   0.0082479   0.0000000), wk =   0.0047393
        k(    4) = (   0.0214286   0.0123719   0.0000000), wk =   0.0047393
        k(    5) = (   0.0285714   0.0164959   0.0000000), wk =   0.0047393
        k(    6) = (   0.0357143   0.0206199   0.0000000), wk =   0.0047393
        k(    7) = (   0.0428571   0.0247438   0.0000000), wk =   0.0047393
        k(    8) = (   0.0500000   0.0288678   0.0000000), wk =   0.0047393
        k(    9) = (   0.0571429   0.0329918   0.0000000), wk =   0.0047393
        k(   10) = (   0.0642857   0.0371157   0.0000000), wk =   0.0047393
        k(   11) = (   0.0714286   0.0412397   0.0000000), wk =   0.0047393
        k(   12) = (   0.0785714   0.0453637   0.0000000), wk =   0.0047393
        k(   13) = (   0.0857143   0.0494876   0.0000000), wk =   0.0047393
        k(   14) = (   0.0928571   0.0536116   0.0000000), wk =   0.0047393
        k(   15) = (   0.1000000   0.0577356   0.0000000), wk =   0.0047393
        k(   16) = (   0.1071429   0.0618596   0.0000000), wk =   0.0047393
        k(   17) = (   0.1142857   0.0659835   0.0000000), wk =   0.0047393
        k(   18) = (   0.1214286   0.0701075   0.0000000), wk =   0.0047393
        k(   19) = (   0.1285714   0.0742315   0.0000000), wk =   0.0047393
        k(   20) = (   0.1357143   0.0783554   0.0000000), wk =   0.0047393
        k(   21) = (   0.1428571   0.0824794   0.0000000), wk =   0.0047393
        k(   22) = (   0.1500000   0.0866034   0.0000000), wk =   0.0047393
        k(   23) = (   0.1571429   0.0907273   0.0000000), wk =   0.0047393
        k(   24) = (   0.1642857   0.0948513   0.0000000), wk =   0.0047393
        k(   25) = (   0.1714286   0.0989753   0.0000000), wk =   0.0047393
        k(   26) = (   0.1785714   0.1030993   0.0000000), wk =   0.0047393
        k(   27) = (   0.1857143   0.1072232   0.0000000), wk =   0.0047393
        k(   28) = (   0.1928571   0.1113472   0.0000000), wk =   0.0047393
        k(   29) = (   0.2000000   0.1154712   0.0000000), wk =   0.0047393
        k(   30) = (   0.2071429   0.1195951   0.0000000), wk =   0.0047393
        k(   31) = (   0.2142857   0.1237191   0.0000000), wk =   0.0047393
        k(   32) = (   0.2214286   0.1278431   0.0000000), wk =   0.0047393
        k(   33) = (   0.2285714   0.1319671   0.0000000), wk =   0.0047393
        k(   34) = (   0.2357143   0.1360910   0.0000000), wk =   0.0047393
        k(   35) = (   0.2428571   0.1402150   0.0000000), wk =   0.0047393
        k(   36) = (   0.2500000   0.1443390   0.0000000), wk =   0.0047393
        k(   37) = (   0.2571429   0.1484629   0.0000000), wk =   0.0047393
        k(   38) = (   0.2642857   0.1525869   0.0000000), wk =   0.0047393
        k(   39) = (   0.2714286   0.1567109   0.0000000), wk =   0.0047393
        k(   40) = (   0.2785714   0.1608348   0.0000000), wk =   0.0047393
        k(   41) = (   0.2857143   0.1649588   0.0000000), wk =   0.0047393
        k(   42) = (   0.2928571   0.1690828   0.0000000), wk =   0.0047393
        k(   43) = (   0.3000000   0.1732068   0.0000000), wk =   0.0047393
        k(   44) = (   0.3071429   0.1773307   0.0000000), wk =   0.0047393
        k(   45) = (   0.3142857   0.1814547   0.0000000), wk =   0.0047393
        k(   46) = (   0.3214286   0.1855787   0.0000000), wk =   0.0047393
        k(   47) = (   0.3285714   0.1897026   0.0000000), wk =   0.0047393
        k(   48) = (   0.3357143   0.1938266   0.0000000), wk =   0.0047393
        k(   49) = (   0.3428571   0.1979506   0.0000000), wk =   0.0047393
        k(   50) = (   0.3500000   0.2020745   0.0000000), wk =   0.0047393
        k(   51) = (   0.3571429   0.2061985   0.0000000), wk =   0.0047393
        k(   52) = (   0.3642857   0.2103225   0.0000000), wk =   0.0047393
        k(   53) = (   0.3714286   0.2144465   0.0000000), wk =   0.0047393
        k(   54) = (   0.3785714   0.2185704   0.0000000), wk =   0.0047393
        k(   55) = (   0.3857143   0.2226944   0.0000000), wk =   0.0047393
        k(   56) = (   0.3928571   0.2268184   0.0000000), wk =   0.0047393
        k(   57) = (   0.4000000   0.2309423   0.0000000), wk =   0.0047393
        k(   58) = (   0.4071429   0.2350663   0.0000000), wk =   0.0047393
        k(   59) = (   0.4142857   0.2391903   0.0000000), wk =   0.0047393
        k(   60) = (   0.4214286   0.2433143   0.0000000), wk =   0.0047393
        k(   61) = (   0.4285714   0.2474382   0.0000000), wk =   0.0047393
        k(   62) = (   0.4357143   0.2515622   0.0000000), wk =   0.0047393
        k(   63) = (   0.4428571   0.2556862   0.0000000), wk =   0.0047393
        k(   64) = (   0.4500000   0.2598101   0.0000000), wk =   0.0047393
        k(   65) = (   0.4571429   0.2639341   0.0000000), wk =   0.0047393
        k(   66) = (   0.4642857   0.2680581   0.0000000), wk =   0.0047393
        k(   67) = (   0.4714286   0.2721820   0.0000000), wk =   0.0047393
        k(   68) = (   0.4785714   0.2763060   0.0000000), wk =   0.0047393
        k(   69) = (   0.4857143   0.2804300   0.0000000), wk =   0.0047393
        k(   70) = (   0.4928571   0.2845540   0.0000000), wk =   0.0047393
        k(   71) = (   0.5000000   0.2886779   0.0000000), wk =   0.0047393
        k(   72) = (   0.4976190   0.2930768   0.0000000), wk =   0.0047393
        k(   73) = (   0.4952381   0.2974757   0.0000000), wk =   0.0047393
        k(   74) = (   0.4928571   0.3018746   0.0000000), wk =   0.0047393
        k(   75) = (   0.4904762   0.3062735   0.0000000), wk =   0.0047393
        k(   76) = (   0.4880952   0.3106724   0.0000000), wk =   0.0047393
        k(   77) = (   0.4857143   0.3150713   0.0000000), wk =   0.0047393
        k(   78) = (   0.4833333   0.3194702   0.0000000), wk =   0.0047393
        k(   79) = (   0.4809524   0.3238691   0.0000000), wk =   0.0047393
        k(   80) = (   0.4785714   0.3282680   0.0000000), wk =   0.0047393
        k(   81) = (   0.4761905   0.3326669   0.0000000), wk =   0.0047393
        k(   82) = (   0.4738095   0.3370658   0.0000000), wk =   0.0047393
        k(   83) = (   0.4714286   0.3414647   0.0000000), wk =   0.0047393
        k(   84) = (   0.4690476   0.3458636   0.0000000), wk =   0.0047393
        k(   85) = (   0.4666667   0.3502626   0.0000000), wk =   0.0047393
        k(   86) = (   0.4642857   0.3546615   0.0000000), wk =   0.0047393
        k(   87) = (   0.4619048   0.3590604   0.0000000), wk =   0.0047393
        k(   88) = (   0.4595238   0.3634593   0.0000000), wk =   0.0047393
        k(   89) = (   0.4571429   0.3678582   0.0000000), wk =   0.0047393
        k(   90) = (   0.4547619   0.3722571   0.0000000), wk =   0.0047393
        k(   91) = (   0.4523810   0.3766560   0.0000000), wk =   0.0047393
        k(   92) = (   0.4500000   0.3810549   0.0000000), wk =   0.0047393
        k(   93) = (   0.4476190   0.3854538   0.0000000), wk =   0.0047393
        k(   94) = (   0.4452381   0.3898527   0.0000000), wk =   0.0047393
        k(   95) = (   0.4428571   0.3942516   0.0000000), wk =   0.0047393
        k(   96) = (   0.4404762   0.3986505   0.0000000), wk =   0.0047393
        k(   97) = (   0.4380952   0.4030494   0.0000000), wk =   0.0047393
        k(   98) = (   0.4357143   0.4074483   0.0000000), wk =   0.0047393
        k(   99) = (   0.4333333   0.4118472   0.0000000), wk =   0.0047393
        k(  100) = (   0.4309524   0.4162461   0.0000000), wk =   0.0047393
        k(  101) = (   0.4285714   0.4206450   0.0000000), wk =   0.0047393
        k(  102) = (   0.4261905   0.4250439   0.0000000), wk =   0.0047393
        k(  103) = (   0.4238095   0.4294428   0.0000000), wk =   0.0047393
        k(  104) = (   0.4214286   0.4338417   0.0000000), wk =   0.0047393
        k(  105) = (   0.4190476   0.4382406   0.0000000), wk =   0.0047393
        k(  106) = (   0.4166667   0.4426395   0.0000000), wk =   0.0047393
        k(  107) = (   0.4142857   0.4470384   0.0000000), wk =   0.0047393
        k(  108) = (   0.4119048   0.4514373   0.0000000), wk =   0.0047393
        k(  109) = (   0.4095238   0.4558362   0.0000000), wk =   0.0047393
        k(  110) = (   0.4071429   0.4602351   0.0000000), wk =   0.0047393
        k(  111) = (   0.4047619   0.4646340   0.0000000), wk =   0.0047393
        k(  112) = (   0.4023810   0.4690329   0.0000000), wk =   0.0047393
        k(  113) = (   0.4000000   0.4734318   0.0000000), wk =   0.0047393
        k(  114) = (   0.3976190   0.4778307   0.0000000), wk =   0.0047393
        k(  115) = (   0.3952381   0.4822296   0.0000000), wk =   0.0047393
        k(  116) = (   0.3928571   0.4866285   0.0000000), wk =   0.0047393
        k(  117) = (   0.3904762   0.4910274   0.0000000), wk =   0.0047393
        k(  118) = (   0.3880952   0.4954263   0.0000000), wk =   0.0047393
        k(  119) = (   0.3857143   0.4998252   0.0000000), wk =   0.0047393
        k(  120) = (   0.3833333   0.5042241   0.0000000), wk =   0.0047393
        k(  121) = (   0.3809524   0.5086230   0.0000000), wk =   0.0047393
        k(  122) = (   0.3785714   0.5130219   0.0000000), wk =   0.0047393
        k(  123) = (   0.3761905   0.5174208   0.0000000), wk =   0.0047393
        k(  124) = (   0.3738095   0.5218197   0.0000000), wk =   0.0047393
        k(  125) = (   0.3714286   0.5262186   0.0000000), wk =   0.0047393
        k(  126) = (   0.3690476   0.5306175   0.0000000), wk =   0.0047393
        k(  127) = (   0.3666667   0.5350164   0.0000000), wk =   0.0047393
        k(  128) = (   0.3642857   0.5394153   0.0000000), wk =   0.0047393
        k(  129) = (   0.3619048   0.5438142   0.0000000), wk =   0.0047393
        k(  130) = (   0.3595238   0.5482131   0.0000000), wk =   0.0047393
        k(  131) = (   0.3571429   0.5526120   0.0000000), wk =   0.0047393
        k(  132) = (   0.3547619   0.5570109   0.0000000), wk =   0.0047393
        k(  133) = (   0.3523810   0.5614098   0.0000000), wk =   0.0047393
        k(  134) = (   0.3500000   0.5658087   0.0000000), wk =   0.0047393
        k(  135) = (   0.3476190   0.5702076   0.0000000), wk =   0.0047393
        k(  136) = (   0.3452381   0.5746065   0.0000000), wk =   0.0047393
        k(  137) = (   0.3428571   0.5790054   0.0000000), wk =   0.0047393
        k(  138) = (   0.3404762   0.5834043   0.0000000), wk =   0.0047393
        k(  139) = (   0.3380952   0.5878032   0.0000000), wk =   0.0047393
        k(  140) = (   0.3357143   0.5922021   0.0000000), wk =   0.0047393
        k(  141) = (   0.3333333   0.5966010   0.0000000), wk =   0.0047393
        k(  142) = (   0.3285714   0.5880782   0.0000000), wk =   0.0047393
        k(  143) = (   0.3238095   0.5795553   0.0000000), wk =   0.0047393
        k(  144) = (   0.3190476   0.5710324   0.0000000), wk =   0.0047393
        k(  145) = (   0.3142857   0.5625096   0.0000000), wk =   0.0047393
        k(  146) = (   0.3095238   0.5539867   0.0000000), wk =   0.0047393
        k(  147) = (   0.3047619   0.5454638   0.0000000), wk =   0.0047393
        k(  148) = (   0.3000000   0.5369409   0.0000000), wk =   0.0047393
        k(  149) = (   0.2952381   0.5284181   0.0000000), wk =   0.0047393
        k(  150) = (   0.2904762   0.5198952   0.0000000), wk =   0.0047393
        k(  151) = (   0.2857143   0.5113723   0.0000000), wk =   0.0047393
        k(  152) = (   0.2809524   0.5028495   0.0000000), wk =   0.0047393
        k(  153) = (   0.2761905   0.4943266   0.0000000), wk =   0.0047393
        k(  154) = (   0.2714286   0.4858037   0.0000000), wk =   0.0047393
        k(  155) = (   0.2666667   0.4772808   0.0000000), wk =   0.0047393
        k(  156) = (   0.2619048   0.4687580   0.0000000), wk =   0.0047393
        k(  157) = (   0.2571429   0.4602351   0.0000000), wk =   0.0047393
        k(  158) = (   0.2523810   0.4517122   0.0000000), wk =   0.0047393
        k(  159) = (   0.2476190   0.4431894   0.0000000), wk =   0.0047393
        k(  160) = (   0.2428571   0.4346665   0.0000000), wk =   0.0047393
        k(  161) = (   0.2380952   0.4261436   0.0000000), wk =   0.0047393
        k(  162) = (   0.2333333   0.4176207   0.0000000), wk =   0.0047393
        k(  163) = (   0.2285714   0.4090979   0.0000000), wk =   0.0047393
        k(  164) = (   0.2238095   0.4005750   0.0000000), wk =   0.0047393
        k(  165) = (   0.2190476   0.3920521   0.0000000), wk =   0.0047393
        k(  166) = (   0.2142857   0.3835292   0.0000000), wk =   0.0047393
        k(  167) = (   0.2095238   0.3750064   0.0000000), wk =   0.0047393
        k(  168) = (   0.2047619   0.3664835   0.0000000), wk =   0.0047393
        k(  169) = (   0.2000000   0.3579606   0.0000000), wk =   0.0047393
        k(  170) = (   0.1952381   0.3494378   0.0000000), wk =   0.0047393
        k(  171) = (   0.1904762   0.3409149   0.0000000), wk =   0.0047393
        k(  172) = (   0.1857143   0.3323920   0.0000000), wk =   0.0047393
        k(  173) = (   0.1809524   0.3238691   0.0000000), wk =   0.0047393
        k(  174) = (   0.1761905   0.3153463   0.0000000), wk =   0.0047393
        k(  175) = (   0.1714286   0.3068234   0.0000000), wk =   0.0047393
        k(  176) = (   0.1666667   0.2983005   0.0000000), wk =   0.0047393
        k(  177) = (   0.1619048   0.2897777   0.0000000), wk =   0.0047393
        k(  178) = (   0.1571429   0.2812548   0.0000000), wk =   0.0047393
        k(  179) = (   0.1523810   0.2727319   0.0000000), wk =   0.0047393
        k(  180) = (   0.1476190   0.2642090   0.0000000), wk =   0.0047393
        k(  181) = (   0.1428571   0.2556862   0.0000000), wk =   0.0047393
        k(  182) = (   0.1380952   0.2471633   0.0000000), wk =   0.0047393
        k(  183) = (   0.1333333   0.2386404   0.0000000), wk =   0.0047393
        k(  184) = (   0.1285714   0.2301175   0.0000000), wk =   0.0047393
        k(  185) = (   0.1238095   0.2215947   0.0000000), wk =   0.0047393
        k(  186) = (   0.1190476   0.2130718   0.0000000), wk =   0.0047393
        k(  187) = (   0.1142857   0.2045489   0.0000000), wk =   0.0047393
        k(  188) = (   0.1095238   0.1960261   0.0000000), wk =   0.0047393
        k(  189) = (   0.1047619   0.1875032   0.0000000), wk =   0.0047393
        k(  190) = (   0.1000000   0.1789803   0.0000000), wk =   0.0047393
        k(  191) = (   0.0952381   0.1704574   0.0000000), wk =   0.0047393
        k(  192) = (   0.0904762   0.1619346   0.0000000), wk =   0.0047393
        k(  193) = (   0.0857143   0.1534117   0.0000000), wk =   0.0047393
        k(  194) = (   0.0809524   0.1448888   0.0000000), wk =   0.0047393
        k(  195) = (   0.0761905   0.1363660   0.0000000), wk =   0.0047393
        k(  196) = (   0.0714286   0.1278431   0.0000000), wk =   0.0047393
        k(  197) = (   0.0666667   0.1193202   0.0000000), wk =   0.0047393
        k(  198) = (   0.0619048   0.1107973   0.0000000), wk =   0.0047393
        k(  199) = (   0.0571429   0.1022745   0.0000000), wk =   0.0047393
        k(  200) = (   0.0523810   0.0937516   0.0000000), wk =   0.0047393
        k(  201) = (   0.0476190   0.0852287   0.0000000), wk =   0.0047393
        k(  202) = (   0.0428571   0.0767058   0.0000000), wk =   0.0047393
        k(  203) = (   0.0380952   0.0681830   0.0000000), wk =   0.0047393
        k(  204) = (   0.0333333   0.0596601   0.0000000), wk =   0.0047393
        k(  205) = (   0.0285714   0.0511372   0.0000000), wk =   0.0047393
        k(  206) = (   0.0238095   0.0426144   0.0000000), wk =   0.0047393
        k(  207) = (   0.0190476   0.0340915   0.0000000), wk =   0.0047393
        k(  208) = (   0.0142857   0.0255686   0.0000000), wk =   0.0047393
        k(  209) = (   0.0095238   0.0170457   0.0000000), wk =   0.0047393
        k(  210) = (   0.0047619   0.0085229   0.0000000), wk =   0.0047393
        k(  211) = (   0.0000000   0.0000000   0.0000000), wk =   0.0047393

                       cryst. coord.
        k(    1) = (   0.0000000   0.0000000   0.0000000), wk =   0.0047393
        k(    2) = (   0.0071429   0.0000000   0.0000000), wk =   0.0047393
        k(    3) = (   0.0142857   0.0000000   0.0000000), wk =   0.0047393
        k(    4) = (   0.0214286   0.0000000   0.0000000), wk =   0.0047393
        k(    5) = (   0.0285714   0.0000000   0.0000000), wk =   0.0047393
        k(    6) = (   0.0357143   0.0000000   0.0000000), wk =   0.0047393
        k(    7) = (   0.0428571   0.0000000   0.0000000), wk =   0.0047393
        k(    8) = (   0.0500000   0.0000000   0.0000000), wk =   0.0047393
        k(    9) = (   0.0571429   0.0000000   0.0000000), wk =   0.0047393
        k(   10) = (   0.0642857   0.0000000   0.0000000), wk =   0.0047393
        k(   11) = (   0.0714286   0.0000000   0.0000000), wk =   0.0047393
        k(   12) = (   0.0785714  -0.0000000   0.0000000), wk =   0.0047393
        k(   13) = (   0.0857143   0.0000000   0.0000000), wk =   0.0047393
        k(   14) = (   0.0928571   0.0000000   0.0000000), wk =   0.0047393
        k(   15) = (   0.1000000   0.0000000   0.0000000), wk =   0.0047393
        k(   16) = (   0.1071429   0.0000000   0.0000000), wk =   0.0047393
        k(   17) = (   0.1142857   0.0000000   0.0000000), wk =   0.0047393
        k(   18) = (   0.1214286   0.0000000   0.0000000), wk =   0.0047393
        k(   19) = (   0.1285714   0.0000000   0.0000000), wk =   0.0047393
        k(   20) = (   0.1357143   0.0000000   0.0000000), wk =   0.0047393
        k(   21) = (   0.1428571   0.0000000   0.0000000), wk =   0.0047393
        k(   22) = (   0.1500000  -0.0000000   0.0000000), wk =   0.0047393
        k(   23) = (   0.1571429  -0.0000000   0.0000000), wk =   0.0047393
        k(   24) = (   0.1642857   0.0000000   0.0000000), wk =   0.0047393
        k(   25) = (   0.1714286   0.0000000   0.0000000), wk =   0.0047393
        k(   26) = (   0.1785714   0.0000000   0.0000000), wk =   0.0047393
        k(   27) = (   0.1857143   0.0000000   0.0000000), wk =   0.0047393
        k(   28) = (   0.1928571   0.0000000   0.0000000), wk =   0.0047393
        k(   29) = (   0.2000000   0.0000000   0.0000000), wk =   0.0047393
        k(   30) = (   0.2071429   0.0000000   0.0000000), wk =   0.0047393
        k(   31) = (   0.2142857   0.0000000   0.0000000), wk =   0.0047393
        k(   32) = (   0.2214286   0.0000000   0.0000000), wk =   0.0047393
        k(   33) = (   0.2285714   0.0000000   0.0000000), wk =   0.0047393
        k(   34) = (   0.2357143   0.0000000   0.0000000), wk =   0.0047393
        k(   35) = (   0.2428571   0.0000000   0.0000000), wk =   0.0047393
        k(   36) = (   0.2500000   0.0000000   0.0000000), wk =   0.0047393
        k(   37) = (   0.2571429   0.0000000   0.0000000), wk =   0.0047393
        k(   38) = (   0.2642857  -0.0000000   0.0000000), wk =   0.0047393
        k(   39) = (   0.2714286   0.0000000   0.0000000), wk =   0.0047393
        k(   40) = (   0.2785714  -0.0000000   0.0000000), wk =   0.0047393
        k(   41) = (   0.2857143   0.0000000   0.0000000), wk =   0.0047393
        k(   42) = (   0.2928571   0.0000000   0.0000000), wk =   0.0047393
        k(   43) = (   0.3000000  -0.0000000   0.0000000), wk =   0.0047393
        k(   44) = (   0.3071429   0.0000000   0.0000000), wk =   0.0047393
        k(   45) = (   0.3142857  -0.0000000   0.0000000), wk =   0.0047393
        k(   46) = (   0.3214286   0.0000000   0.0000000), wk =   0.0047393
        k(   47) = (   0.3285714   0.0000000   0.0000000), wk =   0.0047393
        k(   48) = (   0.3357143   0.0000000   0.0000000), wk =   0.0047393
        k(   49) = (   0.3428571   0.0000000   0.0000000), wk =   0.0047393
        k(   50) = (   0.3500000  -0.0000000   0.0000000), wk =   0.0047393
        k(   51) = (   0.3571429   0.0000000   0.0000000), wk =   0.0047393
        k(   52) = (   0.3642857   0.0000000   0.0000000), wk =   0.0047393
        k(   53) = (   0.3714286   0.0000000   0.0000000), wk =   0.0047393
        k(   54) = (   0.3785714   0.0000000   0.0000000), wk =   0.0047393
        k(   55) = (   0.3857143   0.0000000   0.0000000), wk =   0.0047393
        k(   56) = (   0.3928571   0.0000000   0.0000000), wk =   0.0047393
        k(   57) = (   0.4000000   0.0000000   0.0000000), wk =   0.0047393
        k(   58) = (   0.4071429   0.0000000   0.0000000), wk =   0.0047393
        k(   59) = (   0.4142857   0.0000000   0.0000000), wk =   0.0047393
        k(   60) = (   0.4214286   0.0000000   0.0000000), wk =   0.0047393
        k(   61) = (   0.4285714   0.0000000   0.0000000), wk =   0.0047393
        k(   62) = (   0.4357143   0.0000000   0.0000000), wk =   0.0047393
        k(   63) = (   0.4428571   0.0000000   0.0000000), wk =   0.0047393
        k(   64) = (   0.4500000   0.0000000   0.0000000), wk =   0.0047393
        k(   65) = (   0.4571429   0.0000000   0.0000000), wk =   0.0047393
        k(   66) = (   0.4642857  -0.0000000   0.0000000), wk =   0.0047393
        k(   67) = (   0.4714286   0.0000000   0.0000000), wk =   0.0047393
        k(   68) = (   0.4785714   0.0000000   0.0000000), wk =   0.0047393
        k(   69) = (   0.4857143   0.0000000   0.0000000), wk =   0.0047393
        k(   70) = (   0.4928571   0.0000000   0.0000000), wk =   0.0047393
        k(   71) = (   0.5000000   0.0000000   0.0000000), wk =   0.0047393
        k(   72) = (   0.4976190   0.0047619   0.0000000), wk =   0.0047393
        k(   73) = (   0.4952381   0.0095238   0.0000000), wk =   0.0047393
        k(   74) = (   0.4928571   0.0142857   0.0000000), wk =   0.0047393
        k(   75) = (   0.4904762   0.0190476   0.0000000), wk =   0.0047393
        k(   76) = (   0.4880952   0.0238095   0.0000000), wk =   0.0047393
        k(   77) = (   0.4857143   0.0285714   0.0000000), wk =   0.0047393
        k(   78) = (   0.4833333   0.0333333   0.0000000), wk =   0.0047393
        k(   79) = (   0.4809524   0.0380952   0.0000000), wk =   0.0047393
        k(   80) = (   0.4785714   0.0428571   0.0000000), wk =   0.0047393
        k(   81) = (   0.4761905   0.0476190   0.0000000), wk =   0.0047393
        k(   82) = (   0.4738095   0.0523810   0.0000000), wk =   0.0047393
        k(   83) = (   0.4714286   0.0571429   0.0000000), wk =   0.0047393
        k(   84) = (   0.4690476   0.0619048   0.0000000), wk =   0.0047393
        k(   85) = (   0.4666667   0.0666667   0.0000000), wk =   0.0047393
        k(   86) = (   0.4642857   0.0714286   0.0000000), wk =   0.0047393
        k(   87) = (   0.4619048   0.0761905   0.0000000), wk =   0.0047393
        k(   88) = (   0.4595238   0.0809524   0.0000000), wk =   0.0047393
        k(   89) = (   0.4571429   0.0857143   0.0000000), wk =   0.0047393
        k(   90) = (   0.4547619   0.0904762   0.0000000), wk =   0.0047393
        k(   91) = (   0.4523810   0.0952381   0.0000000), wk =   0.0047393
        k(   92) = (   0.4500000   0.1000000   0.0000000), wk =   0.0047393
        k(   93) = (   0.4476190   0.1047619   0.0000000), wk =   0.0047393
        k(   94) = (   0.4452381   0.1095238   0.0000000), wk =   0.0047393
        k(   95) = (   0.4428571   0.1142857   0.0000000), wk =   0.0047393
        k(   96) = (   0.4404762   0.1190476   0.0000000), wk =   0.0047393
        k(   97) = (   0.4380952   0.1238095   0.0000000), wk =   0.0047393
        k(   98) = (   0.4357143   0.1285714   0.0000000), wk =   0.0047393
        k(   99) = (   0.4333333   0.1333333   0.0000000), wk =   0.0047393
        k(  100) = (   0.4309524   0.1380952   0.0000000), wk =   0.0047393
        k(  101) = (   0.4285714   0.1428571   0.0000000), wk =   0.0047393
        k(  102) = (   0.4261905   0.1476190   0.0000000), wk =   0.0047393
        k(  103) = (   0.4238095   0.1523810   0.0000000), wk =   0.0047393
        k(  104) = (   0.4214286   0.1571429   0.0000000), wk =   0.0047393
        k(  105) = (   0.4190476   0.1619048   0.0000000), wk =   0.0047393
        k(  106) = (   0.4166667   0.1666667   0.0000000), wk =   0.0047393
        k(  107) = (   0.4142857   0.1714286   0.0000000), wk =   0.0047393
        k(  108) = (   0.4119048   0.1761905   0.0000000), wk =   0.0047393
        k(  109) = (   0.4095238   0.1809524   0.0000000), wk =   0.0047393
        k(  110) = (   0.4071429   0.1857143   0.0000000), wk =   0.0047393
        k(  111) = (   0.4047619   0.1904762   0.0000000), wk =   0.0047393
        k(  112) = (   0.4023810   0.1952381   0.0000000), wk =   0.0047393
        k(  113) = (   0.4000000   0.2000000   0.0000000), wk =   0.0047393
        k(  114) = (   0.3976190   0.2047619   0.0000000), wk =   0.0047393
        k(  115) = (   0.3952381   0.2095238   0.0000000), wk =   0.0047393
        k(  116) = (   0.3928571   0.2142857   0.0000000), wk =   0.0047393
        k(  117) = (   0.3904762   0.2190476   0.0000000), wk =   0.0047393
        k(  118) = (   0.3880952   0.2238095   0.0000000), wk =   0.0047393
        k(  119) = (   0.3857143   0.2285714   0.0000000), wk =   0.0047393
        k(  120) = (   0.3833333   0.2333333   0.0000000), wk =   0.0047393
        k(  121) = (   0.3809524   0.2380952   0.0000000), wk =   0.0047393
        k(  122) = (   0.3785714   0.2428571   0.0000000), wk =   0.0047393
        k(  123) = (   0.3761905   0.2476190   0.0000000), wk =   0.0047393
        k(  124) = (   0.3738095   0.2523810   0.0000000), wk =   0.0047393
        k(  125) = (   0.3714286   0.2571429   0.0000000), wk =   0.0047393
        k(  126) = (   0.3690476   0.2619048   0.0000000), wk =   0.0047393
        k(  127) = (   0.3666667   0.2666667   0.0000000), wk =   0.0047393
        k(  128) = (   0.3642857   0.2714286   0.0000000), wk =   0.0047393
        k(  129) = (   0.3619048   0.2761905   0.0000000), wk =   0.0047393
        k(  130) = (   0.3595238   0.2809524   0.0000000), wk =   0.0047393
        k(  131) = (   0.3571429   0.2857143   0.0000000), wk =   0.0047393
        k(  132) = (   0.3547619   0.2904762   0.0000000), wk =   0.0047393
        k(  133) = (   0.3523810   0.2952381   0.0000000), wk =   0.0047393
        k(  134) = (   0.3500000   0.3000000   0.0000000), wk =   0.0047393
        k(  135) = (   0.3476190   0.3047619   0.0000000), wk =   0.0047393
        k(  136) = (   0.3452381   0.3095238   0.0000000), wk =   0.0047393
        k(  137) = (   0.3428571   0.3142857   0.0000000), wk =   0.0047393
        k(  138) = (   0.3404762   0.3190476   0.0000000), wk =   0.0047393
        k(  139) = (   0.3380952   0.3238095   0.0000000), wk =   0.0047393
        k(  140) = (   0.3357143   0.3285714   0.0000000), wk =   0.0047393
        k(  141) = (   0.3333333   0.3333333   0.0000000), wk =   0.0047393
        k(  142) = (   0.3285714   0.3285714   0.0000000), wk =   0.0047393
        k(  143) = (   0.3238095   0.3238095   0.0000000), wk =   0.0047393
        k(  144) = (   0.3190476   0.3190476   0.0000000), wk =   0.0047393
        k(  145) = (   0.3142857   0.3142857   0.0000000), wk =   0.0047393
        k(  146) = (   0.3095238   0.3095238   0.0000000), wk =   0.0047393
        k(  147) = (   0.3047619   0.3047619   0.0000000), wk =   0.0047393
        k(  148) = (   0.3000000   0.3000000   0.0000000), wk =   0.0047393
        k(  149) = (   0.2952381   0.2952381   0.0000000), wk =   0.0047393
        k(  150) = (   0.2904762   0.2904762   0.0000000), wk =   0.0047393
        k(  151) = (   0.2857143   0.2857143   0.0000000), wk =   0.0047393
        k(  152) = (   0.2809524   0.2809524   0.0000000), wk =   0.0047393
        k(  153) = (   0.2761905   0.2761905   0.0000000), wk =   0.0047393
        k(  154) = (   0.2714286   0.2714286   0.0000000), wk =   0.0047393
        k(  155) = (   0.2666667   0.2666667   0.0000000), wk =   0.0047393
        k(  156) = (   0.2619048   0.2619048   0.0000000), wk =   0.0047393
        k(  157) = (   0.2571429   0.2571429   0.0000000), wk =   0.0047393
        k(  158) = (   0.2523810   0.2523810   0.0000000), wk =   0.0047393
        k(  159) = (   0.2476190   0.2476190   0.0000000), wk =   0.0047393
        k(  160) = (   0.2428571   0.2428571   0.0000000), wk =   0.0047393
        k(  161) = (   0.2380952   0.2380952   0.0000000), wk =   0.0047393
        k(  162) = (   0.2333333   0.2333333   0.0000000), wk =   0.0047393
        k(  163) = (   0.2285714   0.2285714   0.0000000), wk =   0.0047393
        k(  164) = (   0.2238095   0.2238095   0.0000000), wk =   0.0047393
        k(  165) = (   0.2190476   0.2190476   0.0000000), wk =   0.0047393
        k(  166) = (   0.2142857   0.2142857   0.0000000), wk =   0.0047393
        k(  167) = (   0.2095238   0.2095238   0.0000000), wk =   0.0047393
        k(  168) = (   0.2047619   0.2047619   0.0000000), wk =   0.0047393
        k(  169) = (   0.2000000   0.2000000   0.0000000), wk =   0.0047393
        k(  170) = (   0.1952381   0.1952381   0.0000000), wk =   0.0047393
        k(  171) = (   0.1904762   0.1904762   0.0000000), wk =   0.0047393
        k(  172) = (   0.1857143   0.1857143   0.0000000), wk =   0.0047393
        k(  173) = (   0.1809524   0.1809524   0.0000000), wk =   0.0047393
        k(  174) = (   0.1761905   0.1761905   0.0000000), wk =   0.0047393
        k(  175) = (   0.1714286   0.1714286   0.0000000), wk =   0.0047393
        k(  176) = (   0.1666667   0.1666667   0.0000000), wk =   0.0047393
        k(  177) = (   0.1619048   0.1619048   0.0000000), wk =   0.0047393
        k(  178) = (   0.1571429   0.1571429   0.0000000), wk =   0.0047393
        k(  179) = (   0.1523810   0.1523810   0.0000000), wk =   0.0047393
        k(  180) = (   0.1476190   0.1476190   0.0000000), wk =   0.0047393
        k(  181) = (   0.1428571   0.1428571   0.0000000), wk =   0.0047393
        k(  182) = (   0.1380952   0.1380952   0.0000000), wk =   0.0047393
        k(  183) = (   0.1333333   0.1333333   0.0000000), wk =   0.0047393
        k(  184) = (   0.1285714   0.1285714   0.0000000), wk =   0.0047393
        k(  185) = (   0.1238095   0.1238095   0.0000000), wk =   0.0047393
        k(  186) = (   0.1190476   0.1190476   0.0000000), wk =   0.0047393
        k(  187) = (   0.1142857   0.1142857   0.0000000), wk =   0.0047393
        k(  188) = (   0.1095238   0.1095238   0.0000000), wk =   0.0047393
        k(  189) = (   0.1047619   0.1047619   0.0000000), wk =   0.0047393
        k(  190) = (   0.1000000   0.1000000   0.0000000), wk =   0.0047393
        k(  191) = (   0.0952381   0.0952381   0.0000000), wk =   0.0047393
        k(  192) = (   0.0904762   0.0904762   0.0000000), wk =   0.0047393
        k(  193) = (   0.0857143   0.0857143   0.0000000), wk =   0.0047393
        k(  194) = (   0.0809524   0.0809524   0.0000000), wk =   0.0047393
        k(  195) = (   0.0761905   0.0761905   0.0000000), wk =   0.0047393
        k(  196) = (   0.0714286   0.0714286   0.0000000), wk =   0.0047393
        k(  197) = (   0.0666667   0.0666667   0.0000000), wk =   0.0047393
        k(  198) = (   0.0619048   0.0619048   0.0000000), wk =   0.0047393
        k(  199) = (   0.0571429   0.0571429   0.0000000), wk =   0.0047393
        k(  200) = (   0.0523810   0.0523810   0.0000000), wk =   0.0047393
        k(  201) = (   0.0476190   0.0476190   0.0000000), wk =   0.0047393
        k(  202) = (   0.0428571   0.0428571   0.0000000), wk =   0.0047393
        k(  203) = (   0.0380952   0.0380952   0.0000000), wk =   0.0047393
        k(  204) = (   0.0333333   0.0333333   0.0000000), wk =   0.0047393
        k(  205) = (   0.0285714   0.0285714   0.0000000), wk =   0.0047393
        k(  206) = (   0.0238095   0.0238095   0.0000000), wk =   0.0047393
        k(  207) = (   0.0190476   0.0190476   0.0000000), wk =   0.0047393
        k(  208) = (   0.0142857   0.0142857   0.0000000), wk =   0.0047393
        k(  209) = (   0.0095238   0.0095238   0.0000000), wk =   0.0047393
        k(  210) = (   0.0047619   0.0047619   0.0000000), wk =   0.0047393
        k(  211) = (   0.0000000   0.0000000   0.0000000), wk =   0.0047393

     Dense  grid:   477063 G-vectors     FFT dimensions: (  64,  60, 300)

     Smooth grid:   120743 G-vectors     FFT dimensions: (  40,  40, 192)

     Dynamical RAM for                 wfc:       1.92 MB

     Dynamical RAM for     wfc (w. buffer):       1.92 MB

     Dynamical RAM for           str. fact:       0.61 MB

     Dynamical RAM for           local pot:       0.00 MB

     Dynamical RAM for          nlocal pot:       1.63 MB

     Dynamical RAM for                qrad:       9.40 MB

     Dynamical RAM for          rho,v,vnew:       8.21 MB

     Dynamical RAM for           G-vectors:       1.18 MB

     Dynamical RAM for          h,s,v(r/c):       1.83 MB

     Dynamical RAM for          <psi|beta>:       0.52 MB

     Dynamical RAM for                 psi:       3.83 MB

     Dynamical RAM for                hpsi:       3.83 MB

     Dynamical RAM for      wfcinit/wfcrot:       3.10 MB

     Estimated static dynamical RAM per process >      26.90 MB

     Estimated max dynamical RAM per process >      36.91 MB

     Estimated total dynamical RAM >     885.89 MB

     The potential is recalculated from file :
     tmp/Sb2Te3-uatsx-c4-soc-5.0.save/charge-density

     Starting wfcs are random

     Band Structure Calculation
     Davidson diagonalization with overlap

     Computing kpt #:     1  of   211
     total cpu time spent up to now is        5.8 secs

     Computing kpt #:     2  of   211
     total cpu time spent up to now is        9.8 secs

     Computing kpt #:     3  of   211
     total cpu time spent up to now is       13.9 secs

     Computing kpt #:     4  of   211
     total cpu time spent up to now is       17.9 secs

     Computing kpt #:     5  of   211
     total cpu time spent up to now is       22.0 secs

     Computing kpt #:     6  of   211
     total cpu time spent up to now is       26.5 secs

     Computing kpt #:     7  of   211
     total cpu time spent up to now is       30.5 secs

     Computing kpt #:     8  of   211
     total cpu time spent up to now is       34.6 secs

     Computing kpt #:     9  of   211
     total cpu time spent up to now is       38.7 secs

     Computing kpt #:    10  of   211
     total cpu time spent up to now is       42.8 secs

     Computing kpt #:    11  of   211
     total cpu time spent up to now is       46.7 secs

     Computing kpt #:    12  of   211
     total cpu time spent up to now is       50.7 secs

     Computing kpt #:    13  of   211
     total cpu time spent up to now is       54.8 secs

     Computing kpt #:    14  of   211
     total cpu time spent up to now is       58.9 secs

     Computing kpt #:    15  of   211
     total cpu time spent up to now is       63.0 secs

     Computing kpt #:    16  of   211
     total cpu time spent up to now is       67.0 secs

     Computing kpt #:    17  of   211
     total cpu time spent up to now is       71.0 secs

     Computing kpt #:    18  of   211
     total cpu time spent up to now is       75.0 secs

     Computing kpt #:    19  of   211
     total cpu time spent up to now is       79.1 secs

     Computing kpt #:    20  of   211
     total cpu time spent up to now is       83.1 secs

     Computing kpt #:    21  of   211
     total cpu time spent up to now is       87.1 secs

     Computing kpt #:    22  of   211
     total cpu time spent up to now is       91.1 secs

     Computing kpt #:    23  of   211
     total cpu time spent up to now is       95.1 secs

     Computing kpt #:    24  of   211
     total cpu time spent up to now is       99.1 secs

     Computing kpt #:    25  of   211
     total cpu time spent up to now is      103.2 secs

     Computing kpt #:    26  of   211
     total cpu time spent up to now is      107.1 secs

     Computing kpt #:    27  of   211
     total cpu time spent up to now is      110.9 secs

     Computing kpt #:    28  of   211
     total cpu time spent up to now is      114.9 secs

     Computing kpt #:    29  of   211
     total cpu time spent up to now is      118.9 secs

     Computing kpt #:    30  of   211
     total cpu time spent up to now is      122.9 secs

     Computing kpt #:    31  of   211
     total cpu time spent up to now is      126.9 secs

     Computing kpt #:    32  of   211
     total cpu time spent up to now is      131.1 secs

     Computing kpt #:    33  of   211
     total cpu time spent up to now is      135.1 secs

     Computing kpt #:    34  of   211
     total cpu time spent up to now is      139.7 secs

     Computing kpt #:    35  of   211
     total cpu time spent up to now is      143.8 secs

     Computing kpt #:    36  of   211
     total cpu time spent up to now is      148.0 secs

     Computing kpt #:    37  of   211
     total cpu time spent up to now is      152.3 secs

     Computing kpt #:    38  of   211
     total cpu time spent up to now is      156.6 secs

     Computing kpt #:    39  of   211
     total cpu time spent up to now is      160.6 secs

     Computing kpt #:    40  of   211
     total cpu time spent up to now is      165.2 secs

     Computing kpt #:    41  of   211
     total cpu time spent up to now is      169.4 secs

     Computing kpt #:    42  of   211
     total cpu time spent up to now is      173.5 secs

     Computing kpt #:    43  of   211
     total cpu time spent up to now is      177.6 secs

     Computing kpt #:    44  of   211
     total cpu time spent up to now is      181.7 secs

     Computing kpt #:    45  of   211
     total cpu time spent up to now is      185.8 secs

     Computing kpt #:    46  of   211
     total cpu time spent up to now is      189.9 secs

     Computing kpt #:    47  of   211
     total cpu time spent up to now is      194.0 secs

     Computing kpt #:    48  of   211
     total cpu time spent up to now is      198.1 secs

     Computing kpt #:    49  of   211
     total cpu time spent up to now is      202.1 secs

     Computing kpt #:    50  of   211
     total cpu time spent up to now is      206.2 secs

     Computing kpt #:    51  of   211
     total cpu time spent up to now is      210.2 secs

     Computing kpt #:    52  of   211
     total cpu time spent up to now is      214.3 secs

     Computing kpt #:    53  of   211
     total cpu time spent up to now is      218.5 secs

     Computing kpt #:    54  of   211
     total cpu time spent up to now is      222.6 secs

     Computing kpt #:    55  of   211
     total cpu time spent up to now is      226.8 secs

     Computing kpt #:    56  of   211
     total cpu time spent up to now is      230.9 secs

     Computing kpt #:    57  of   211
     total cpu time spent up to now is      235.0 secs

     Computing kpt #:    58  of   211
     total cpu time spent up to now is      239.1 secs

     Computing kpt #:    59  of   211
     total cpu time spent up to now is      243.3 secs

     Computing kpt #:    60  of   211
     total cpu time spent up to now is      247.4 secs

     Computing kpt #:    61  of   211
     total cpu time spent up to now is      251.6 secs

     Computing kpt #:    62  of   211
     total cpu time spent up to now is      255.7 secs

     Computing kpt #:    63  of   211
     total cpu time spent up to now is      259.8 secs

     Computing kpt #:    64  of   211
     total cpu time spent up to now is      263.9 secs

     Computing kpt #:    65  of   211
     total cpu time spent up to now is      268.1 secs

     Computing kpt #:    66  of   211
     total cpu time spent up to now is      272.2 secs

     Computing kpt #:    67  of   211
     total cpu time spent up to now is      276.3 secs

     Computing kpt #:    68  of   211
     total cpu time spent up to now is      280.4 secs

     Computing kpt #:    69  of   211
     total cpu time spent up to now is      284.5 secs

     Computing kpt #:    70  of   211
     total cpu time spent up to now is      288.6 secs

     Computing kpt #:    71  of   211
     total cpu time spent up to now is      292.8 secs

     Computing kpt #:    72  of   211
     total cpu time spent up to now is      296.9 secs

     Computing kpt #:    73  of   211
     total cpu time spent up to now is      301.0 secs

     Computing kpt #:    74  of   211
     total cpu time spent up to now is      305.2 secs

     Computing kpt #:    75  of   211
     total cpu time spent up to now is      309.3 secs

     Computing kpt #:    76  of   211
     total cpu time spent up to now is      313.4 secs

     Computing kpt #:    77  of   211
     total cpu time spent up to now is      317.6 secs

     Computing kpt #:    78  of   211
     total cpu time spent up to now is      321.8 secs

     Computing kpt #:    79  of   211
     total cpu time spent up to now is      326.0 secs

     Computing kpt #:    80  of   211
     total cpu time spent up to now is      330.1 secs

     Computing kpt #:    81  of   211
     total cpu time spent up to now is      334.2 secs

     Computing kpt #:    82  of   211
     total cpu time spent up to now is      338.4 secs

     Computing kpt #:    83  of   211
     total cpu time spent up to now is      342.6 secs

     Computing kpt #:    84  of   211
     total cpu time spent up to now is      346.8 secs

     Computing kpt #:    85  of   211
     total cpu time spent up to now is      351.0 secs

     Computing kpt #:    86  of   211
     total cpu time spent up to now is      355.4 secs

     Computing kpt #:    87  of   211
     total cpu time spent up to now is      359.5 secs

     Computing kpt #:    88  of   211
     total cpu time spent up to now is      364.1 secs

     Computing kpt #:    89  of   211
     total cpu time spent up to now is      368.6 secs

     Computing kpt #:    90  of   211
     total cpu time spent up to now is      373.0 secs

     Computing kpt #:    91  of   211
     total cpu time spent up to now is      377.6 secs

     Computing kpt #:    92  of   211
     total cpu time spent up to now is      382.1 secs

     Computing kpt #:    93  of   211
     total cpu time spent up to now is      386.6 secs

     Computing kpt #:    94  of   211
     total cpu time spent up to now is      390.8 secs

     Computing kpt #:    95  of   211
     total cpu time spent up to now is      395.4 secs

     Computing kpt #:    96  of   211
     total cpu time spent up to now is      399.5 secs

     Computing kpt #:    97  of   211
     total cpu time spent up to now is      404.1 secs

     Computing kpt #:    98  of   211
     total cpu time spent up to now is      408.4 secs

     Computing kpt #:    99  of   211
     total cpu time spent up to now is      412.7 secs

     Computing kpt #:   100  of   211
     total cpu time spent up to now is      416.8 secs

     Computing kpt #:   101  of   211
     total cpu time spent up to now is      421.3 secs

     Computing kpt #:   102  of   211
     total cpu time spent up to now is      426.1 secs

     Computing kpt #:   103  of   211
     total cpu time spent up to now is      430.7 secs

     Computing kpt #:   104  of   211
     total cpu time spent up to now is      435.0 secs

     Computing kpt #:   105  of   211
     total cpu time spent up to now is      439.3 secs

     Computing kpt #:   106  of   211
     total cpu time spent up to now is      443.6 secs

     Computing kpt #:   107  of   211
     total cpu time spent up to now is      447.9 secs

     Computing kpt #:   108  of   211
     total cpu time spent up to now is      452.3 secs

     Computing kpt #:   109  of   211
     total cpu time spent up to now is      456.9 secs

     Computing kpt #:   110  of   211
     total cpu time spent up to now is      461.6 secs

     Computing kpt #:   111  of   211
     total cpu time spent up to now is      466.2 secs

     Computing kpt #:   112  of   211
     total cpu time spent up to now is      470.6 secs

     Computing kpt #:   113  of   211
     total cpu time spent up to now is      475.2 secs

     Computing kpt #:   114  of   211
     total cpu time spent up to now is      479.9 secs

     Computing kpt #:   115  of   211
     total cpu time spent up to now is      484.4 secs

     Computing kpt #:   116  of   211
     total cpu time spent up to now is      488.7 secs

     Computing kpt #:   117  of   211
     total cpu time spent up to now is      493.0 secs

     Computing kpt #:   118  of   211
     total cpu time spent up to now is      497.3 secs

     Computing kpt #:   119  of   211
     total cpu time spent up to now is      501.5 secs

     Computing kpt #:   120  of   211
     total cpu time spent up to now is      505.8 secs

     Computing kpt #:   121  of   211
     total cpu time spent up to now is      510.1 secs

     Computing kpt #:   122  of   211
     total cpu time spent up to now is      514.3 secs

     Computing kpt #:   123  of   211
     total cpu time spent up to now is      518.5 secs

     Computing kpt #:   124  of   211
     total cpu time spent up to now is      522.7 secs

     Computing kpt #:   125  of   211
     total cpu time spent up to now is      527.0 secs

     Computing kpt #:   126  of   211
     total cpu time spent up to now is      531.3 secs

     Computing kpt #:   127  of   211
     total cpu time spent up to now is      535.4 secs

     Computing kpt #:   128  of   211
     total cpu time spent up to now is      539.5 secs

     Computing kpt #:   129  of   211
     total cpu time spent up to now is      543.6 secs

     Computing kpt #:   130  of   211
     total cpu time spent up to now is      547.8 secs

     Computing kpt #:   131  of   211
     total cpu time spent up to now is      551.9 secs

     Computing kpt #:   132  of   211
     total cpu time spent up to now is      556.1 secs

     Computing kpt #:   133  of   211
     total cpu time spent up to now is      560.3 secs

     Computing kpt #:   134  of   211
     total cpu time spent up to now is      564.4 secs

     Computing kpt #:   135  of   211
     total cpu time spent up to now is      568.6 secs

     Computing kpt #:   136  of   211
     total cpu time spent up to now is      572.8 secs

     Computing kpt #:   137  of   211
     total cpu time spent up to now is      577.0 secs

     Computing kpt #:   138  of   211
     total cpu time spent up to now is      581.2 secs

     Computing kpt #:   139  of   211
     total cpu time spent up to now is      585.4 secs

     Computing kpt #:   140  of   211
     total cpu time spent up to now is      589.5 secs

     Computing kpt #:   141  of   211
     total cpu time spent up to now is      593.7 secs

     Computing kpt #:   142  of   211
     total cpu time spent up to now is      597.8 secs

     Computing kpt #:   143  of   211
     total cpu time spent up to now is      602.0 secs

     Computing kpt #:   144  of   211
     total cpu time spent up to now is      606.1 secs

     Computing kpt #:   145  of   211
     total cpu time spent up to now is      610.3 secs

     Computing kpt #:   146  of   211
     total cpu time spent up to now is      614.5 secs

     Computing kpt #:   147  of   211
     total cpu time spent up to now is      618.6 secs

     Computing kpt #:   148  of   211
     total cpu time spent up to now is      622.8 secs

     Computing kpt #:   149  of   211
     total cpu time spent up to now is      627.2 secs

     Computing kpt #:   150  of   211
     total cpu time spent up to now is      631.5 secs

     Computing kpt #:   151  of   211
     total cpu time spent up to now is      635.8 secs

     Computing kpt #:   152  of   211
     total cpu time spent up to now is      640.1 secs

     Computing kpt #:   153  of   211
     total cpu time spent up to now is      644.4 secs

     Computing kpt #:   154  of   211
     total cpu time spent up to now is      648.7 secs

     Computing kpt #:   155  of   211
     total cpu time spent up to now is      653.0 secs

     Computing kpt #:   156  of   211
     total cpu time spent up to now is      657.3 secs

     Computing kpt #:   157  of   211
     total cpu time spent up to now is      661.6 secs

     Computing kpt #:   158  of   211
     total cpu time spent up to now is      665.9 secs

     Computing kpt #:   159  of   211
     total cpu time spent up to now is      670.4 secs

     Computing kpt #:   160  of   211
     total cpu time spent up to now is      674.4 secs

     Computing kpt #:   161  of   211
     total cpu time spent up to now is      678.6 secs

     Computing kpt #:   162  of   211
     total cpu time spent up to now is      682.6 secs

     Computing kpt #:   163  of   211
     total cpu time spent up to now is      686.7 secs

     Computing kpt #:   164  of   211
     total cpu time spent up to now is      690.8 secs

     Computing kpt #:   165  of   211
     total cpu time spent up to now is      694.8 secs

     Computing kpt #:   166  of   211
     total cpu time spent up to now is      698.8 secs

     Computing kpt #:   167  of   211
     total cpu time spent up to now is      702.8 secs

     Computing kpt #:   168  of   211
     total cpu time spent up to now is      706.8 secs

     Computing kpt #:   169  of   211
     total cpu time spent up to now is      710.8 secs

     Computing kpt #:   170  of   211
     total cpu time spent up to now is      714.9 secs

     Computing kpt #:   171  of   211
     total cpu time spent up to now is      718.9 secs

     Computing kpt #:   172  of   211
     total cpu time spent up to now is      723.0 secs

     Computing kpt #:   173  of   211
     total cpu time spent up to now is      727.0 secs

     Computing kpt #:   174  of   211
     total cpu time spent up to now is      731.1 secs

     Computing kpt #:   175  of   211
     total cpu time spent up to now is      735.2 secs

     Computing kpt #:   176  of   211
     total cpu time spent up to now is      739.3 secs

     Computing kpt #:   177  of   211
     total cpu time spent up to now is      743.3 secs

     Computing kpt #:   178  of   211
     total cpu time spent up to now is      747.5 secs

     Computing kpt #:   179  of   211
     total cpu time spent up to now is      752.0 secs

     Computing kpt #:   180  of   211
     total cpu time spent up to now is      756.2 secs

     Computing kpt #:   181  of   211
     total cpu time spent up to now is      760.8 secs

     Computing kpt #:   182  of   211
     total cpu time spent up to now is      765.4 secs

     Computing kpt #:   183  of   211
     total cpu time spent up to now is      769.5 secs

     Computing kpt #:   184  of   211
     total cpu time spent up to now is      773.6 secs

     Computing kpt #:   185  of   211
     total cpu time spent up to now is      777.6 secs

     Computing kpt #:   186  of   211
     total cpu time spent up to now is      781.8 secs

     Computing kpt #:   187  of   211
     total cpu time spent up to now is      785.9 secs

     Computing kpt #:   188  of   211
     total cpu time spent up to now is      789.9 secs

     Computing kpt #:   189  of   211
     total cpu time spent up to now is      793.9 secs

     Computing kpt #:   190  of   211
     total cpu time spent up to now is      797.9 secs

     Computing kpt #:   191  of   211
     total cpu time spent up to now is      801.8 secs

     Computing kpt #:   192  of   211
     total cpu time spent up to now is      805.9 secs

     Computing kpt #:   193  of   211
     total cpu time spent up to now is      809.9 secs

     Computing kpt #:   194  of   211
     total cpu time spent up to now is      814.0 secs

     Computing kpt #:   195  of   211
     total cpu time spent up to now is      818.1 secs

     Computing kpt #:   196  of   211
     total cpu time spent up to now is      822.0 secs

     Computing kpt #:   197  of   211
     total cpu time spent up to now is      826.0 secs

     Computing kpt #:   198  of   211
     total cpu time spent up to now is      830.0 secs

     Computing kpt #:   199  of   211
     total cpu time spent up to now is      834.0 secs

     Computing kpt #:   200  of   211
     total cpu time spent up to now is      838.2 secs

     Computing kpt #:   201  of   211
     total cpu time spent up to now is      842.4 secs

     Computing kpt #:   202  of   211
     total cpu time spent up to now is      846.5 secs

     Computing kpt #:   203  of   211
     total cpu time spent up to now is      850.6 secs

     Computing kpt #:   204  of   211
     total cpu time spent up to now is      854.6 secs

     Computing kpt #:   205  of   211
     total cpu time spent up to now is      858.8 secs

     Computing kpt #:   206  of   211
     total cpu time spent up to now is      862.8 secs

     Computing kpt #:   207  of   211
     total cpu time spent up to now is      866.9 secs

     Computing kpt #:   208  of   211
     total cpu time spent up to now is      871.0 secs

     Computing kpt #:   209  of   211
     total cpu time spent up to now is      875.1 secs

     Computing kpt #:   210  of   211
     total cpu time spent up to now is      879.1 secs

     Computing kpt #:   211  of   211
     total cpu time spent up to now is      883.2 secs

     ethr =  1.28E-10,  avg # of iterations = 50.8

     total cpu time spent up to now is      883.2 secs

     End of band structure calculation

          k = 0.0000 0.0000 0.0000 ( 15117 PWs)   bands (ev):

   -35.7029 -35.7029 -35.7014 -35.7014 -35.6665 -35.6665 -35.6649 -35.6649
   -35.6020 -35.6020 -35.5719 -35.5719 -34.2450 -34.2450 -34.2434 -34.2434
   -34.2146 -34.2146 -34.2131 -34.2131 -34.1977 -34.1977 -34.1961 -34.1961
   -34.1411 -34.1411 -34.1222 -34.1222 -34.1015 -34.1015 -28.3614 -28.3614
   -28.3603 -28.3603 -28.3526 -28.3526 -28.3516 -28.3516 -27.1217 -27.1217
   -27.1206 -27.1206 -27.1138 -27.1138 -27.1127 -27.1127 -27.1095 -27.1095
   -27.1085 -27.1085 -10.7491 -10.7491 -10.2063 -10.2063  -9.1385  -9.1385
    -6.4121  -6.4121  -5.0954  -5.0954  -0.7290  -0.7290  -0.3272  -0.3272
    -0.0136  -0.0136   0.2171   0.2171   0.3353   0.3353   0.3900   0.3900
     0.7099   0.7099   0.9281   0.9281   1.1550   1.1550   1.7099   1.7099
     2.4304   2.4304   2.8342   2.8342   2.9764   2.9764   3.7018   3.7018
     3.9754   3.9754   6.0459   6.0459   6.2251   6.2251   6.8914   6.8914
     7.0743   7.0743   7.3885   7.3885

          k = 0.0071 0.0041 0.0000 ( 15121 PWs)   bands (ev):

   -35.7029 -35.7029 -35.7014 -35.7014 -35.6665 -35.6665 -35.6649 -35.6649
   -35.6020 -35.6020 -35.5719 -35.5719 -34.2450 -34.2450 -34.2434 -34.2434
   -34.2146 -34.2146 -34.2131 -34.2131 -34.1977 -34.1977 -34.1961 -34.1961
   -34.1411 -34.1411 -34.1222 -34.1222 -34.1015 -34.1015 -28.3614 -28.3614
   -28.3603 -28.3603 -28.3526 -28.3526 -28.3516 -28.3516 -27.1217 -27.1217
   -27.1206 -27.1206 -27.1138 -27.1137 -27.1127 -27.1127 -27.1095 -27.1095
   -27.1085 -27.1085 -10.7487 -10.7487 -10.2060 -10.2060  -9.1383  -9.1383
    -6.4122  -6.4122  -5.0963  -5.0963  -0.7298  -0.7298  -0.3337  -0.3336
    -0.0124  -0.0123   0.2085   0.2089   0.3289   0.3291   0.4007   0.4012
     0.7115   0.7117   0.9263   0.9264   1.1559   1.1559   1.7168   1.7169
     2.4287   2.4288   2.8266   2.8269   2.9859   2.9862   3.7034   3.7034
     3.9751   3.9751   6.0467   6.0467   6.2251   6.2251   6.8916   6.8916
     7.0725   7.0725   7.3881   7.3881

          k = 0.0143 0.0082 0.0000 ( 15123 PWs)   bands (ev):

   -35.7029 -35.7029 -35.7014 -35.7014 -35.6665 -35.6665 -35.6649 -35.6649
   -35.6020 -35.6020 -35.5719 -35.5719 -34.2450 -34.2450 -34.2434 -34.2434
   -34.2146 -34.2146 -34.2131 -34.2131 -34.1977 -34.1977 -34.1961 -34.1961
   -34.1411 -34.1411 -34.1222 -34.1222 -34.1015 -34.1015 -28.3614 -28.3614
   -28.3603 -28.3602 -28.3526 -28.3526 -28.3516 -28.3516 -27.1217 -27.1217
   -27.1206 -27.1206 -27.1138 -27.1137 -27.1127 -27.1126 -27.1095 -27.1095
   -27.1085 -27.1085 -10.7475 -10.7475 -10.2049 -10.2049  -9.1377  -9.1377
    -6.4126  -6.4126  -5.0989  -5.0989  -0.7324  -0.7324  -0.3524  -0.3522
    -0.0094  -0.0091   0.1855   0.1862   0.3190   0.3194   0.4223   0.4230
     0.7164   0.7167   0.9213   0.9215   1.1592   1.1593   1.7369   1.7370
     2.4236   2.4238   2.8092   2.8096   3.0096   3.0101   3.7082   3.7083
     3.9744   3.9745   6.0488   6.0488   6.2252   6.2252   6.8921   6.8921
     7.0671   7.0671   7.3872   7.3872

          k = 0.0214 0.0124 0.0000 ( 15119 PWs)   bands (ev):

   -35.7029 -35.7029 -35.7014 -35.7014 -35.6665 -35.6665 -35.6649 -35.6649
   -35.6020 -35.6020 -35.5719 -35.5719 -34.2450 -34.2450 -34.2434 -34.2434
   -34.2146 -34.2146 -34.2131 -34.2131 -34.1977 -34.1977 -34.1961 -34.1961
   -34.1411 -34.1411 -34.1222 -34.1222 -34.1015 -34.1015 -28.3614 -28.3614
   -28.3603 -28.3602 -28.3526 -28.3526 -28.3516 -28.3516 -27.1217 -27.1217
   -27.1206 -27.1206 -27.1138 -27.1137 -27.1127 -27.1126 -27.1095 -27.1095
   -27.1085 -27.1085 -10.7454 -10.7454 -10.2031 -10.2031  -9.1367  -9.1367
    -6.4133  -6.4133  -5.1032  -5.1032  -0.7367  -0.7367  -0.3815  -0.3812
    -0.0061  -0.0058   0.1528   0.1536   0.3111   0.3116   0.4439   0.4447
     0.7239   0.7242   0.9138   0.9140   1.1671   1.1672   1.7680   1.7682
     2.4151   2.4153   2.7899   2.7903   3.0402   3.0408   3.7160   3.7163
     3.9735   3.9736   6.0523   6.0524   6.2254   6.2254   6.8928   6.8928
     7.0583   7.0583   7.3858   7.3858

          k = 0.0286 0.0165 0.0000 ( 15117 PWs)   bands (ev):

   -35.7029 -35.7029 -35.7014 -35.7014 -35.6665 -35.6665 -35.6649 -35.6649
   -35.6020 -35.6020 -35.5719 -35.5719 -34.2450 -34.2450 -34.2434 -34.2434
   -34.2146 -34.2146 -34.2131 -34.2131 -34.1977 -34.1977 -34.1961 -34.1961
   -34.1411 -34.1411 -34.1222 -34.1222 -34.1015 -34.1015 -28.3614 -28.3614
   -28.3603 -28.3602 -28.3526 -28.3526 -28.3516 -28.3516 -27.1217 -27.1217
   -27.1206 -27.1206 -27.1138 -27.1137 -27.1127 -27.1126 -27.1095 -27.1095
   -27.1085 -27.1085 -10.7426 -10.7426 -10.2005 -10.2005  -9.1352  -9.1352
    -6.4142  -6.4142  -5.1093  -5.1093  -0.7427  -0.7427  -0.4191  -0.4187
    -0.0046  -0.0042   0.1152   0.1160   0.3045   0.3051   0.4613   0.4621
     0.7323   0.7328   0.9063   0.9066   1.1807   1.1810   1.8075   1.8078
     2.4032   2.4034   2.7731   2.7735   3.0732   3.0739   3.7267   3.7270
     3.9727   3.9728   6.0573   6.0573   6.2256   6.2256   6.8934   6.8934
     7.0464   7.0464   7.3841   7.3841

          k = 0.0357 0.0206 0.0000 ( 15107 PWs)   bands (ev):

   -35.7029 -35.7029 -35.7014 -35.7013 -35.6665 -35.6665 -35.6649 -35.6649
   -35.6020 -35.6020 -35.5719 -35.5719 -34.2450 -34.2450 -34.2434 -34.2434
   -34.2146 -34.2146 -34.2131 -34.2131 -34.1977 -34.1977 -34.1961 -34.1961
   -34.1411 -34.1411 -34.1222 -34.1222 -34.1015 -34.1015 -28.3614 -28.3614
   -28.3603 -28.3602 -28.3527 -28.3526 -28.3516 -28.3515 -27.1217 -27.1217
   -27.1206 -27.1206 -27.1138 -27.1137 -27.1127 -27.1126 -27.1095 -27.1095
   -27.1085 -27.1085 -10.7390 -10.7390 -10.1972 -10.1972  -9.1334  -9.1334
    -6.4153  -6.4153  -5.1171  -5.1171  -0.7505  -0.7504  -0.4633  -0.4629
    -0.0069  -0.0064   0.0762   0.0768   0.2979   0.2985   0.4725   0.4733
     0.7391   0.7396   0.9031   0.9035   1.2005   1.2008   1.8526   1.8530
     2.3885   2.3888   2.7613   2.7616   3.1066   3.1073   3.7398   3.7401
     3.9725   3.9726   6.0636   6.0636   6.2258   6.2259   6.8934   6.8934
     7.0321   7.0321   7.3823   7.3823

          k = 0.0429 0.0247 0.0000 ( 15117 PWs)   bands (ev):

   -35.7029 -35.7029 -35.7014 -35.7013 -35.6665 -35.6665 -35.6649 -35.6649
   -35.6020 -35.6020 -35.5719 -35.5719 -34.2450 -34.2450 -34.2434 -34.2434
   -34.2146 -34.2146 -34.2131 -34.2131 -34.1977 -34.1977 -34.1961 -34.1961
   -34.1411 -34.1411 -34.1222 -34.1222 -34.1014 -34.1014 -28.3614 -28.3613
   -28.3603 -28.3602 -28.3527 -28.3526 -28.3516 -28.3515 -27.1217 -27.1217
   -27.1206 -27.1206 -27.1138 -27.1137 -27.1127 -27.1126 -27.1096 -27.1095
   -27.1085 -27.1085 -10.7346 -10.7346 -10.1933 -10.1933  -9.1311  -9.1311
    -6.4168  -6.4168  -5.1267  -5.1267  -0.7601  -0.7600  -0.5127  -0.5123
    -0.0163  -0.0156   0.0398   0.0402   0.2901   0.2907   0.4770   0.4777
     0.7420   0.7425   0.9085   0.9089   1.2254   1.2257   1.9007   1.9011
     2.3726   2.3728   2.7553   2.7556   3.1391   3.1399   3.7545   3.7549
     3.9737   3.9738   6.0712   6.0713   6.2260   6.2260   6.8918   6.8919
     7.0166   7.0166   7.3808   7.3808

          k = 0.0500 0.0289 0.0000 ( 15109 PWs)   bands (ev):

   -35.7029 -35.7029 -35.7013 -35.7013 -35.6665 -35.6665 -35.6649 -35.6649
   -35.6020 -35.6020 -35.5719 -35.5719 -34.2450 -34.2450 -34.2434 -34.2434
   -34.2146 -34.2146 -34.2131 -34.2131 -34.1977 -34.1977 -34.1961 -34.1961
   -34.1411 -34.1411 -34.1222 -34.1222 -34.1014 -34.1014 -28.3614 -28.3613
   -28.3603 -28.3602 -28.3527 -28.3526 -28.3516 -28.3515 -27.1217 -27.1217
   -27.1206 -27.1206 -27.1138 -27.1137 -27.1127 -27.1126 -27.1096 -27.1095
   -27.1085 -27.1085 -10.7294 -10.7294 -10.1886 -10.1886  -9.1285  -9.1285
    -6.4185  -6.4185  -5.1379  -5.1379  -0.7716  -0.7715  -0.5660  -0.5655
    -0.0391  -0.0381   0.0127   0.0130   0.2801   0.2808   0.4745   0.4751
     0.7415   0.7420   0.9235   0.9239   1.2539   1.2543   1.9490   1.9494
     2.3578   2.3580   2.7552   2.7555   3.1702   3.1709   3.7701   3.7705
     3.9772   3.9773   6.0802   6.0802   6.2261   6.2261   6.8872   6.8873
     7.0017   7.0018   7.3797   7.3797

          k = 0.0571 0.0330 0.0000 ( 15111 PWs)   bands (ev):

   -35.7029 -35.7029 -35.7013 -35.7013 -35.6665 -35.6665 -35.6649 -35.6649
   -35.6020 -35.6020 -35.5719 -35.5719 -34.2450 -34.2450 -34.2434 -34.2434
   -34.2146 -34.2146 -34.2131 -34.2131 -34.1977 -34.1977 -34.1961 -34.1961
   -34.1411 -34.1411 -34.1222 -34.1222 -34.1014 -34.1014 -28.3614 -28.3613
   -28.3603 -28.3602 -28.3527 -28.3526 -28.3516 -28.3515 -27.1217 -27.1217
   -27.1206 -27.1206 -27.1138 -27.1137 -27.1127 -27.1126 -27.1096 -27.1095
   -27.1085 -27.1084 -10.7233 -10.7233 -10.1832 -10.1832  -9.1254  -9.1254
    -6.4206  -6.4206  -5.1508  -5.1508  -0.7854  -0.7853  -0.6218  -0.6213
    -0.0751  -0.0740  -0.0047  -0.0042   0.2670   0.2677   0.4658   0.4663
     0.7404   0.7408   0.9463   0.9467   1.2843   1.2847   1.9944   1.9948
     2.3476   2.3478   2.7608   2.7610   3.1994   3.2002   3.7854   3.7859
     3.9841   3.9842   6.0903   6.0904   6.2259   6.2260   6.8777   6.8777
     6.9899   6.9900   7.3791   7.3791

          k = 0.0643 0.0371 0.0000 ( 15104 PWs)   bands (ev):

   -35.7029 -35.7029 -35.7013 -35.7013 -35.6665 -35.6665 -35.6649 -35.6649
   -35.6020 -35.6020 -35.5719 -35.5719 -34.2450 -34.2450 -34.2434 -34.2434
   -34.2146 -34.2146 -34.2131 -34.2131 -34.1977 -34.1977 -34.1961 -34.1961
   -34.1411 -34.1411 -34.1222 -34.1222 -34.1014 -34.1014 -28.3614 -28.3613
   -28.3603 -28.3602 -28.3527 -28.3526 -28.3516 -28.3515 -27.1217 -27.1217
   -27.1206 -27.1205 -27.1138 -27.1137 -27.1127 -27.1126 -27.1096 -27.1095
   -27.1085 -27.1084 -10.7165 -10.7165 -10.1770 -10.1770  -9.1220  -9.1220
    -6.4229  -6.4229  -5.1654  -5.1654  -0.8025  -0.8022  -0.6785  -0.6778
    -0.1166  -0.1155  -0.0195  -0.0189   0.2499   0.2508   0.4523   0.4528
     0.7412   0.7415   0.9740   0.9744   1.3146   1.3150   2.0335   2.0340
     2.3463   2.3465   2.7714   2.7716   3.2267   3.2275   3.7993   3.7999
     3.9955   3.9956   6.1017   6.1017   6.2255   6.2255   6.8617   6.8617
     6.9831   6.9832   7.3791   7.3791

          k = 0.0714 0.0412 0.0000 ( 15100 PWs)   bands (ev):

   -35.7029 -35.7029 -35.7013 -35.7013 -35.6665 -35.6665 -35.6649 -35.6649
   -35.6020 -35.6020 -35.5719 -35.5719 -34.2450 -34.2450 -34.2434 -34.2434
   -34.2146 -34.2146 -34.2131 -34.2131 -34.1977 -34.1977 -34.1961 -34.1961
   -34.1411 -34.1411 -34.1222 -34.1222 -34.1014 -34.1014 -28.3614 -28.3613
   -28.3603 -28.3602 -28.3527 -28.3526 -28.3516 -28.3515 -27.1217 -27.1216
   -27.1206 -27.1205 -27.1138 -27.1137 -27.1127 -27.1126 -27.1096 -27.1095
   -27.1085 -27.1084 -10.7089 -10.7089 -10.1702 -10.1702  -9.1182  -9.1182
    -6.4256  -6.4256  -5.1817  -5.1817  -0.8253  -0.8249  -0.7327  -0.7320
    -0.1604  -0.1593  -0.0347  -0.0341   0.2284   0.2293   0.4362   0.4366
     0.7448   0.7452   1.0046   1.0050   1.3426   1.3430   2.0636   2.0641
     2.3577   2.3579   2.7866   2.7867   3.2522   3.2529   3.8112   3.8119
     4.0119   4.0121   6.1142   6.1142   6.2246   6.2246   6.8398   6.8399
     6.9814   6.9815   7.3799   7.3799

          k = 0.0786 0.0454 0.0000 ( 15102 PWs)   bands (ev):

   -35.7029 -35.7029 -35.7013 -35.7013 -35.6665 -35.6665 -35.6649 -35.6649
   -35.6020 -35.6020 -35.5719 -35.5719 -34.2450 -34.2450 -34.2434 -34.2434
   -34.2146 -34.2146 -34.2131 -34.2131 -34.1977 -34.1977 -34.1961 -34.1961
   -34.1411 -34.1411 -34.1222 -34.1222 -34.1014 -34.1014 -28.3614 -28.3613
   -28.3603 -28.3602 -28.3527 -28.3526 -28.3516 -28.3515 -27.1217 -27.1216
   -27.1205 -27.1205 -27.1138 -27.1137 -27.1127 -27.1126 -27.1096 -27.1095
   -27.1085 -27.1084 -10.7005 -10.7005 -10.1627 -10.1627  -9.1140  -9.1140
    -6.4286  -6.4286  -5.1996  -5.1996  -0.8596  -0.8592  -0.7781  -0.7773
    -0.2054  -0.2044  -0.0511  -0.0506   0.2024   0.2034   0.4191   0.4196
     0.7512   0.7516   1.0366   1.0370   1.3663   1.3667   2.0849   2.0854
     2.3831   2.3834   2.8057   2.8058   3.2759   3.2767   3.8211   3.8218
     4.0334   4.0336   6.1278   6.1278   6.2230   6.2231   6.8137   6.8138
     6.9837   6.9837   7.3814   7.3814

          k = 0.0857 0.0495 0.0000 ( 15095 PWs)   bands (ev):

   -35.7029 -35.7029 -35.7013 -35.7013 -35.6665 -35.6665 -35.6649 -35.6649
   -35.6020 -35.6020 -35.5719 -35.5719 -34.2450 -34.2450 -34.2434 -34.2434
   -34.2146 -34.2146 -34.2131 -34.2130 -34.1977 -34.1977 -34.1961 -34.1961
   -34.1411 -34.1411 -34.1222 -34.1222 -34.1014 -34.1014 -28.3614 -28.3613
   -28.3603 -28.3602 -28.3527 -28.3526 -28.3516 -28.3515 -27.1216 -27.1216
   -27.1205 -27.1205 -27.1138 -27.1137 -27.1127 -27.1126 -27.1096 -27.1095
   -27.1085 -27.1084 -10.6912 -10.6912 -10.1544 -10.1544  -9.1095  -9.1095
    -6.4320  -6.4320  -5.2192  -5.2192  -0.9091  -0.9088  -0.8103  -0.8096
    -0.2513  -0.2504  -0.0687  -0.0683   0.1725   0.1735   0.4025   0.4029
     0.7597   0.7600   1.0690   1.0694   1.3840   1.3844   2.1009   2.1013
     2.4199   2.4203   2.8284   2.8285   3.2983   3.2990   3.8296   3.8303
     4.0593   4.0595   6.1423   6.1424   6.2206   6.2207   6.7853   6.7854
     6.9887   6.9888   7.3838   7.3838

          k = 0.0929 0.0536 0.0000 ( 15093 PWs)   bands (ev):

   -35.7029 -35.7029 -35.7013 -35.7013 -35.6665 -35.6665 -35.6649 -35.6649
   -35.6020 -35.6020 -35.5719 -35.5719 -34.2450 -34.2450 -34.2434 -34.2434
   -34.2146 -34.2146 -34.2131 -34.2130 -34.1977 -34.1977 -34.1961 -34.1961
   -34.1411 -34.1411 -34.1222 -34.1222 -34.1014 -34.1014 -28.3614 -28.3613
   -28.3603 -28.3602 -28.3527 -28.3526 -28.3516 -28.3515 -27.1216 -27.1216
   -27.1205 -27.1205 -27.1138 -27.1137 -27.1127 -27.1126 -27.1096 -27.1095
   -27.1085 -27.1084 -10.6812 -10.6812 -10.1454 -10.1454  -9.1046  -9.1046
    -6.4359  -6.4358  -5.2403  -5.2403  -0.9684  -0.9682  -0.8344  -0.8337
    -0.2982  -0.2973  -0.0877  -0.0872   0.1397   0.1407   0.3868   0.3873
     0.7694   0.7696   1.1010   1.1014   1.3944   1.3948   2.1164   2.1168
     2.4642   2.4646   2.8540   2.8541   3.3198   3.3205   3.8376   3.8384
     4.0885   4.0887   6.1578   6.1579   6.2171   6.2172   6.7561   6.7562
     6.9957   6.9958   7.3871   7.3872

          k = 0.1000 0.0577 0.0000 ( 15091 PWs)   bands (ev):

   -35.7029 -35.7029 -35.7013 -35.7013 -35.6665 -35.6665 -35.6649 -35.6649
   -35.6020 -35.6020 -35.5719 -35.5719 -34.2450 -34.2450 -34.2434 -34.2434
   -34.2146 -34.2146 -34.2131 -34.2130 -34.1977 -34.1977 -34.1961 -34.1961
   -34.1411 -34.1411 -34.1222 -34.1222 -34.1014 -34.1014 -28.3614 -28.3613
   -28.3603 -28.3602 -28.3527 -28.3526 -28.3516 -28.3515 -27.1216 -27.1216
   -27.1205 -27.1205 -27.1138 -27.1137 -27.1127 -27.1126 -27.1096 -27.1095
   -27.1085 -27.1084 -10.6705 -10.6705 -10.1358 -10.1358  -9.0993  -9.0993
    -6.4401  -6.4401  -5.2629  -5.2629  -1.0321  -1.0320  -0.8553  -0.8547
    -0.3461  -0.3452  -0.1079  -0.1075   0.1051   0.1061   0.3722   0.3728
     0.7796   0.7799   1.1316   1.1320   1.3973   1.3977   2.1351   2.1355
     2.5124   2.5128   2.8819   2.8821   3.3410   3.3417   3.8463   3.8470
     4.1199   4.1201   6.1741   6.1742   6.2122   6.2123   6.7274   6.7274
     7.0042   7.0042   7.3915   7.3915

          k = 0.1071 0.0619 0.0000 ( 15089 PWs)   bands (ev):

   -35.7029 -35.7029 -35.7013 -35.7013 -35.6665 -35.6665 -35.6649 -35.6649
   -35.6020 -35.6020 -35.5719 -35.5719 -34.2450 -34.2450 -34.2434 -34.2434
   -34.2146 -34.2146 -34.2131 -34.2130 -34.1977 -34.1976 -34.1961 -34.1961
   -34.1411 -34.1411 -34.1222 -34.1222 -34.1014 -34.1014 -28.3614 -28.3613
   -28.3602 -28.3602 -28.3527 -28.3526 -28.3516 -28.3515 -27.1216 -27.1216
   -27.1205 -27.1205 -27.1139 -27.1137 -27.1128 -27.1126 -27.1096 -27.1095
   -27.1085 -27.1084 -10.6589 -10.6589 -10.1255 -10.1255  -9.0937  -9.0937
    -6.4447  -6.4447  -5.2871  -5.2871  -1.0978  -1.0977  -0.8751  -0.8745
    -0.3949  -0.3940  -0.1296  -0.1293   0.0700   0.0710   0.3586   0.3592
     0.7898   0.7901   1.1595   1.1600   1.3937   1.3941   2.1587   2.1590
     2.5621   2.5626   2.9114   2.9116   3.3626   3.3633   3.8565   3.8572
     4.1526   4.1529   6.1904   6.1909   6.2059   6.2063   6.7001   6.7001
     7.0137   7.0137   7.3970   7.3970

          k = 0.1143 0.0660 0.0000 ( 15091 PWs)   bands (ev):

   -35.7029 -35.7029 -35.7013 -35.7013 -35.6665 -35.6665 -35.6649 -35.6649
   -35.6020 -35.6020 -35.5719 -35.5719 -34.2450 -34.2449 -34.2434 -34.2434
   -34.2146 -34.2146 -34.2131 -34.2130 -34.1977 -34.1976 -34.1961 -34.1961
   -34.1411 -34.1411 -34.1222 -34.1222 -34.1014 -34.1014 -28.3614 -28.3613
   -28.3602 -28.3602 -28.3527 -28.3526 -28.3516 -28.3515 -27.1216 -27.1216
   -27.1205 -27.1205 -27.1139 -27.1137 -27.1128 -27.1126 -27.1096 -27.1095
   -27.1085 -27.1084 -10.6466 -10.6466 -10.1145 -10.1145  -9.0878  -9.0878
    -6.4499  -6.4499  -5.3128  -5.3128  -1.1643  -1.1642  -0.8944  -0.8939
    -0.4446  -0.4438  -0.1528  -0.1525   0.0353   0.0363   0.3458   0.3465
     0.7995   0.7997   1.1827   1.1832   1.3864   1.3869   2.1873   2.1876
     2.6121   2.6125   2.9416   2.9418   3.3855   3.3862   3.8688   3.8695
     4.1859   4.1861   6.1943   6.1946   6.2109   6.2112   6.6752   6.6752
     7.0241   7.0242   7.4037   7.4037

          k = 0.1214 0.0701 0.0000 ( 15089 PWs)   bands (ev):

   -35.7029 -35.7029 -35.7013 -35.7013 -35.6665 -35.6665 -35.6649 -35.6649
   -35.6020 -35.6020 -35.5719 -35.5719 -34.2449 -34.2449 -34.2434 -34.2434
   -34.2146 -34.2146 -34.2131 -34.2130 -34.1977 -34.1976 -34.1961 -34.1961
   -34.1411 -34.1411 -34.1222 -34.1222 -34.1014 -34.1014 -28.3614 -28.3613
   -28.3602 -28.3602 -28.3527 -28.3526 -28.3516 -28.3515 -27.1216 -27.1216
   -27.1205 -27.1204 -27.1139 -27.1137 -27.1128 -27.1126 -27.1096 -27.1095
   -27.1085 -27.1084 -10.6334 -10.6334 -10.1028 -10.1028  -9.0816  -9.0816
    -6.4555  -6.4555  -5.3399  -5.3399  -1.2312  -1.2311  -0.9135  -0.9131
    -0.4953  -0.4945  -0.1777  -0.1775   0.0020   0.0030   0.3338   0.3345
     0.8081   0.8083   1.1979   1.1984   1.3799   1.3804   2.2202   2.2204
     2.6615   2.6619   2.9713   2.9716   3.4106   3.4112   3.8841   3.8847
     4.2191   4.2193   6.1832   6.1833   6.2289   6.2290   6.6535   6.6536
     7.0354   7.0354   7.4118   7.4118

          k = 0.1286 0.0742 0.0000 ( 15083 PWs)   bands (ev):

   -35.7029 -35.7029 -35.7013 -35.7013 -35.6665 -35.6665 -35.6649 -35.6649
   -35.6020 -35.6020 -35.5719 -35.5719 -34.2449 -34.2449 -34.2434 -34.2434
   -34.2146 -34.2146 -34.2131 -34.2130 -34.1977 -34.1976 -34.1961 -34.1961
   -34.1411 -34.1411 -34.1222 -34.1222 -34.1014 -34.1014 -28.3613 -28.3613
   -28.3602 -28.3602 -28.3527 -28.3526 -28.3516 -28.3515 -27.1216 -27.1215
   -27.1205 -27.1204 -27.1139 -27.1137 -27.1128 -27.1126 -27.1096 -27.1095
   -27.1085 -27.1084 -10.6195 -10.6195 -10.0904 -10.0904  -9.0751  -9.0751
    -6.4617  -6.4617  -5.3684  -5.3683  -1.2980  -1.2979  -0.9325  -0.9320
    -0.5467  -0.5460  -0.2044  -0.2043  -0.0295  -0.0286   0.3225   0.3232
     0.8153   0.8155   1.2011   1.2015   1.3795   1.3800   2.2559   2.2561
     2.7100   2.7105   2.9997   3.0000   3.4385   3.4390   3.9025   3.9031
     4.2517   4.2519   6.1685   6.1686   6.2480   6.2480   6.6357   6.6358
     7.0474   7.0475   7.4213   7.4213

          k = 0.1357 0.0784 0.0000 ( 15092 PWs)   bands (ev):

   -35.7029 -35.7029 -35.7013 -35.7013 -35.6665 -35.6665 -35.6649 -35.6649
   -35.6020 -35.6020 -35.5719 -35.5719 -34.2449 -34.2449 -34.2434 -34.2433
   -34.2146 -34.2146 -34.2131 -34.2130 -34.1976 -34.1976 -34.1961 -34.1961
   -34.1411 -34.1411 -34.1222 -34.1222 -34.1014 -34.1014 -28.3613 -28.3613
   -28.3602 -28.3602 -28.3527 -28.3526 -28.3516 -28.3515 -27.1216 -27.1215
   -27.1204 -27.1204 -27.1139 -27.1137 -27.1128 -27.1126 -27.1096 -27.1095
   -27.1085 -27.1084 -10.6049 -10.6049 -10.0774 -10.0774  -9.0684  -9.0684
    -6.4684  -6.4684  -5.3982  -5.3982  -1.3646  -1.3644  -0.9513  -0.9508
    -0.5989  -0.5982  -0.2329  -0.2328  -0.0589  -0.0581   0.3118   0.3125
     0.8205   0.8209   1.1908   1.1912   1.3880   1.3884   2.2933   2.2935
     2.7578   2.7581   3.0260   3.0264   3.4697   3.4701   3.9246   3.9252
     4.2834   4.2835   6.1506   6.1506   6.2676   6.2676   6.6223   6.6223
[...]
    -6.4632  -6.4632  -5.3988  -5.3988  -1.2861  -1.2858  -0.9735  -0.9731
    -0.7728  -0.7724  -0.2820  -0.2813   0.0666   0.0670   0.1971   0.1972
     0.5857   0.5859   1.2056   1.2061   1.4189   1.4194   2.3292   2.3296
     2.5940   2.5941   3.0344   3.0347   3.6022   3.6029   3.9207   3.9213
     4.3805   4.3806   6.2290   6.2291   6.2998   6.2998   6.6781   6.6781
     6.9212   6.9213   7.4603   7.4603

          k = 0.0762 0.1364 0.0000 ( 15099 PWs)   bands (ev):

   -35.7029 -35.7028 -35.7013 -35.7013 -35.6665 -35.6665 -35.6649 -35.6649
   -35.6020 -35.6020 -35.5718 -35.5718 -34.2449 -34.2449 -34.2433 -34.2433
   -34.2146 -34.2146 -34.2131 -34.2130 -34.1976 -34.1976 -34.1961 -34.1961
   -34.1411 -34.1411 -34.1222 -34.1222 -34.1014 -34.1014 -28.3613 -28.3612
   -28.3602 -28.3601 -28.3527 -28.3526 -28.3516 -28.3515 -27.1215 -27.1215
   -27.1204 -27.1204 -27.1138 -27.1137 -27.1127 -27.1126 -27.1097 -27.1095
   -27.1086 -27.1084 -10.6060 -10.6060 -10.0772 -10.0772  -9.0659  -9.0659
    -6.4563  -6.4563  -5.3651  -5.3651  -1.2196  -1.2194  -0.9429  -0.9424
    -0.7053  -0.7050  -0.2423  -0.2415   0.0930   0.0934   0.2135   0.2136
     0.6018   0.6020   1.2036   1.2042   1.4044   1.4050   2.3084   2.3088
     2.5493   2.5493   3.0029   3.0032   3.5527   3.5534   3.8938   3.8944
     4.3412   4.3413   6.2282   6.2283   6.2777   6.2778   6.7053   6.7054
     6.9300   6.9300   7.4414   7.4414

          k = 0.0714 0.1278 0.0000 ( 15105 PWs)   bands (ev):

   -35.7029 -35.7029 -35.7013 -35.7013 -35.6665 -35.6665 -35.6649 -35.6649
   -35.6020 -35.6020 -35.5718 -35.5718 -34.2449 -34.2449 -34.2434 -34.2433
   -34.2146 -34.2146 -34.2131 -34.2130 -34.1977 -34.1976 -34.1961 -34.1961
   -34.1411 -34.1411 -34.1222 -34.1222 -34.1014 -34.1014 -28.3613 -28.3612
   -28.3602 -28.3601 -28.3527 -28.3526 -28.3516 -28.3515 -27.1215 -27.1215
   -27.1204 -27.1204 -27.1138 -27.1137 -27.1127 -27.1126 -27.1097 -27.1095
   -27.1086 -27.1084 -10.6232 -10.6232 -10.0926 -10.0926  -9.0743  -9.0743
    -6.4500  -6.4500  -5.3333  -5.3333  -1.1525  -1.1523  -0.9152  -0.9147
    -0.6351  -0.6348  -0.2030  -0.2022   0.1153   0.1157   0.2311   0.2311
     0.6186   0.6189   1.1924   1.1929   1.3956   1.3962   2.2789   2.2793
     2.5127   2.5129   2.9720   2.9722   3.4999   3.5007   3.8743   3.8749
     4.3009   4.3010   6.2233   6.2235   6.2596   6.2598   6.7324   6.7324
     6.9408   6.9408   7.4252   7.4252

          k = 0.0667 0.1193 0.0000 ( 15121 PWs)   bands (ev):

   -35.7029 -35.7029 -35.7013 -35.7013 -35.6665 -35.6665 -35.6649 -35.6649
   -35.6020 -35.6020 -35.5719 -35.5719 -34.2449 -34.2449 -34.2434 -34.2434
   -34.2146 -34.2146 -34.2131 -34.2130 -34.1977 -34.1976 -34.1961 -34.1961
   -34.1411 -34.1411 -34.1222 -34.1222 -34.1014 -34.1014 -28.3613 -28.3613
   -28.3602 -28.3602 -28.3527 -28.3526 -28.3516 -28.3515 -27.1216 -27.1215
   -27.1205 -27.1204 -27.1138 -27.1137 -27.1127 -27.1126 -27.1096 -27.1095
   -27.1086 -27.1084 -10.6394 -10.6394 -10.1072 -10.1072  -9.0823  -9.0823
    -6.4444  -6.4444  -5.3033  -5.3033  -1.0854  -1.0852  -0.8891  -0.8886
    -0.5641  -0.5638  -0.1643  -0.1635   0.1337   0.1341   0.2501   0.2502
     0.6359   0.6361   1.1713   1.1717   1.3925   1.3931   2.2405   2.2409
     2.4858   2.4860   2.9403   2.9405   3.4473   3.4480   3.8603   3.8609
     4.2597   4.2598   6.2115   6.2117   6.2487   6.2489   6.7591   6.7591
     6.9527   6.9528   7.4118   7.4119

          k = 0.0619 0.1108 0.0000 ( 15118 PWs)   bands (ev):

   -35.7029 -35.7029 -35.7013 -35.7013 -35.6665 -35.6665 -35.6649 -35.6649
   -35.6020 -35.6020 -35.5719 -35.5719 -34.2450 -34.2449 -34.2434 -34.2434
   -34.2146 -34.2146 -34.2131 -34.2130 -34.1977 -34.1976 -34.1961 -34.1961
   -34.1411 -34.1411 -34.1222 -34.1222 -34.1014 -34.1014 -28.3613 -28.3613
   -28.3602 -28.3602 -28.3527 -28.3526 -28.3516 -28.3515 -27.1216 -27.1216
   -27.1205 -27.1204 -27.1138 -27.1137 -27.1127 -27.1126 -27.1096 -27.1095
   -27.1086 -27.1084 -10.6544 -10.6544 -10.1207 -10.1207  -9.0898  -9.0898
    -6.4394  -6.4393  -5.2752  -5.2751  -1.0191  -1.0189  -0.8633  -0.8627
    -0.4934  -0.4930  -0.1264  -0.1256   0.1488   0.1492   0.2709   0.2711
     0.6531   0.6533   1.1418   1.1422   1.3926   1.3932   2.1960   2.1964
     2.4671   2.4673   2.9069   2.9072   3.3974   3.3981   3.8503   3.8509
     4.2178   4.2179   6.1944   6.1945   6.2437   6.2438   6.7850   6.7851
     6.9649   6.9650   7.4016   7.4016

          k = 0.0571 0.1023 0.0000 ( 15116 PWs)   bands (ev):

   -35.7029 -35.7029 -35.7013 -35.7013 -35.6665 -35.6665 -35.6649 -35.6649
   -35.6020 -35.6020 -35.5719 -35.5719 -34.2450 -34.2450 -34.2434 -34.2434
   -34.2146 -34.2146 -34.2131 -34.2131 -34.1977 -34.1976 -34.1961 -34.1961
   -34.1411 -34.1411 -34.1222 -34.1222 -34.1014 -34.1014 -28.3613 -28.3613
   -28.3602 -28.3602 -28.3527 -28.3526 -28.3516 -28.3515 -27.1216 -27.1216
   -27.1205 -27.1205 -27.1138 -27.1137 -27.1127 -27.1126 -27.1096 -27.1095
   -27.1085 -27.1084 -10.6684 -10.6684 -10.1333 -10.1333  -9.0967  -9.0967
    -6.4348  -6.4348  -5.2489  -5.2489  -0.9554  -0.9551  -0.8362  -0.8354
    -0.4237  -0.4234  -0.0901  -0.0893   0.1616   0.1621   0.2932   0.2935
     0.6701   0.6703   1.1065   1.1069   1.3921   1.3927   2.1491   2.1495
     2.4541   2.4544   2.8717   2.8719   3.3521   3.3528   3.8428   3.8434
     4.1757   4.1758   6.1757   6.1758   6.2408   6.2409   6.8097   6.8097
     6.9769   6.9770   7.3943   7.3944

          k = 0.0524 0.0938 0.0000 ( 15116 PWs)   bands (ev):

   -35.7029 -35.7029 -35.7013 -35.7013 -35.6665 -35.6665 -35.6649 -35.6649
   -35.6020 -35.6020 -35.5719 -35.5719 -34.2450 -34.2450 -34.2434 -34.2434
   -34.2146 -34.2146 -34.2131 -34.2131 -34.1977 -34.1976 -34.1961 -34.1961
   -34.1411 -34.1411 -34.1222 -34.1222 -34.1014 -34.1014 -28.3613 -28.3613
   -28.3602 -28.3602 -28.3527 -28.3526 -28.3516 -28.3515 -27.1216 -27.1216
   -27.1205 -27.1205 -27.1138 -27.1137 -27.1127 -27.1126 -27.1096 -27.1095
   -27.1085 -27.1084 -10.6812 -10.6812 -10.1448 -10.1448  -9.1033  -9.1033
    -6.4308  -6.4308  -5.2247  -5.2247  -0.8982  -0.8978  -0.8042  -0.8033
    -0.3557  -0.3553  -0.0563  -0.0555   0.1735   0.1739   0.3169   0.3173
     0.6867   0.6870   1.0678   1.0681   1.3876   1.3881   2.1032   2.1037
     2.4448   2.4451   2.8355   2.8356   3.3120   3.3127   3.8366   3.8372
     4.1344   4.1345   6.1571   6.1572   6.2386   6.2386   6.8323   6.8323
     6.9883   6.9884   7.3898   7.3898

          k = 0.0476 0.0852 0.0000 ( 15117 PWs)   bands (ev):

   -35.7029 -35.7029 -35.7013 -35.7013 -35.6665 -35.6665 -35.6649 -35.6649
   -35.6020 -35.6020 -35.5719 -35.5719 -34.2450 -34.2450 -34.2434 -34.2434
   -34.2146 -34.2146 -34.2131 -34.2131 -34.1977 -34.1976 -34.1961 -34.1961
   -34.1411 -34.1411 -34.1222 -34.1222 -34.1014 -34.1014 -28.3614 -28.3613
   -28.3602 -28.3602 -28.3527 -28.3526 -28.3516 -28.3515 -27.1216 -27.1216
   -27.1205 -27.1205 -27.1138 -27.1137 -27.1127 -27.1126 -27.1096 -27.1095
   -27.1085 -27.1084 -10.6929 -10.6929 -10.1555 -10.1554  -9.1093  -9.1093
    -6.4273  -6.4273  -5.2025  -5.2025  -0.8534  -0.8529  -0.7618  -0.7608
    -0.2896  -0.2892  -0.0263  -0.0255   0.1854   0.1858   0.3417   0.3422
     0.7030   0.7033   1.0277   1.0280   1.3763   1.3768   2.0602   2.0607
     2.4380   2.4383   2.8000   2.8002   3.2767   3.2773   3.8305   3.8310
     4.0951   4.0952   6.1394   6.1395   6.2366   6.2366   6.8519   6.8520
     6.9994   6.9995   7.3872   7.3872

          k = 0.0429 0.0767 0.0000 ( 15127 PWs)   bands (ev):

   -35.7029 -35.7029 -35.7013 -35.7013 -35.6665 -35.6665 -35.6649 -35.6649
   -35.6020 -35.6020 -35.5719 -35.5719 -34.2450 -34.2450 -34.2434 -34.2434
   -34.2146 -34.2146 -34.2131 -34.2131 -34.1977 -34.1977 -34.1961 -34.1961
   -34.1411 -34.1411 -34.1222 -34.1222 -34.1014 -34.1014 -28.3614 -28.3613
   -28.3602 -28.3602 -28.3527 -28.3526 -28.3516 -28.3515 -27.1216 -27.1216
   -27.1205 -27.1205 -27.1138 -27.1137 -27.1127 -27.1126 -27.1096 -27.1095
   -27.1085 -27.1084 -10.7036 -10.7036 -10.1651 -10.1651  -9.1147  -9.1147
    -6.4242  -6.4242  -5.1823  -5.1823  -0.8222  -0.8218  -0.7083  -0.7074
    -0.2255  -0.2251  -0.0016  -0.0009   0.1984   0.1988   0.3671   0.3678
     0.7190   0.7193   0.9879   0.9882   1.3569   1.3574   2.0201   2.0206
     2.4330   2.4334   2.7680   2.7682   3.2450   3.2456   3.8230   3.8234
     4.0595   4.0596   6.1228   6.1228   6.2347   6.2347   6.8679   6.8680
     7.0104   7.0105   7.3859   7.3859

          k = 0.0381 0.0682 0.0000 ( 15126 PWs)   bands (ev):

   -35.7029 -35.7029 -35.7013 -35.7013 -35.6665 -35.6665 -35.6649 -35.6649
   -35.6020 -35.6020 -35.5719 -35.5719 -34.2450 -34.2450 -34.2434 -34.2434
   -34.2146 -34.2146 -34.2131 -34.2131 -34.1977 -34.1977 -34.1961 -34.1961
   -34.1411 -34.1411 -34.1222 -34.1222 -34.1014 -34.1014 -28.3614 -28.3613
   -28.3602 -28.3602 -28.3527 -28.3526 -28.3516 -28.3515 -27.1217 -27.1216
   -27.1205 -27.1205 -27.1138 -27.1137 -27.1127 -27.1126 -27.1096 -27.1095
   -27.1085 -27.1084 -10.7131 -10.7131 -10.1737 -10.1737  -9.1197  -9.1197
    -6.4215  -6.4215  -5.1642  -5.1641  -0.7997  -0.7994  -0.6495  -0.6488
    -0.1638  -0.1634   0.0171   0.0178   0.2128   0.2132   0.3921   0.3929
     0.7342   0.7346   0.9506   0.9509   1.3299   1.3304   1.9818   1.9823
     2.4299   2.4302   2.7425   2.7427   3.2153   3.2159   3.8126   3.8129
     4.0295   4.0297   6.1074   6.1075   6.2329   6.2329   6.8797   6.8797
     7.0216   7.0217   7.3853   7.3853

          k = 0.0333 0.0597 0.0000 ( 15126 PWs)   bands (ev):

   -35.7029 -35.7029 -35.7013 -35.7013 -35.6665 -35.6665 -35.6649 -35.6649
   -35.6020 -35.6020 -35.5719 -35.5719 -34.2450 -34.2450 -34.2434 -34.2434
   -34.2146 -34.2146 -34.2131 -34.2131 -34.1977 -34.1977 -34.1961 -34.1961
   -34.1411 -34.1411 -34.1222 -34.1222 -34.1014 -34.1014 -28.3614 -28.3613
   -28.3603 -28.3602 -28.3527 -28.3526 -28.3516 -28.3515 -27.1217 -27.1217
   -27.1206 -27.1205 -27.1138 -27.1137 -27.1127 -27.1126 -27.1096 -27.1095
   -27.1085 -27.1084 -10.7216 -10.7216 -10.1813 -10.1813  -9.1240  -9.1240
    -6.4192  -6.4192  -5.1481  -5.1481  -0.7819  -0.7817  -0.5902  -0.5895
    -0.1051  -0.1047   0.0303   0.0309   0.2284   0.2288   0.4150   0.4160
     0.7474   0.7479   0.9186   0.9190   1.2970   1.2975   1.9432   1.9437
     2.4283   2.4286   2.7260   2.7263   3.1861   3.1866   3.7983   3.7986
     4.0067   4.0068   6.0936   6.0936   6.2312   6.2312   6.8873   6.8874
     7.0328   7.0329   7.3850   7.3850

          k = 0.0286 0.0511 0.0000 ( 15124 PWs)   bands (ev):

   -35.7029 -35.7029 -35.7013 -35.7013 -35.6665 -35.6665 -35.6649 -35.6649
   -35.6020 -35.6020 -35.5719 -35.5719 -34.2450 -34.2450 -34.2434 -34.2434
   -34.2146 -34.2146 -34.2131 -34.2131 -34.1977 -34.1977 -34.1961 -34.1961
   -34.1411 -34.1411 -34.1222 -34.1222 -34.1014 -34.1014 -28.3614 -28.3613
   -28.3603 -28.3602 -28.3527 -28.3526 -28.3516 -28.3515 -27.1217 -27.1217
   -27.1206 -27.1206 -27.1138 -27.1137 -27.1127 -27.1126 -27.1096 -27.1095
   -27.1085 -27.1084 -10.7289 -10.7289 -10.1880 -10.1880  -9.1278  -9.1278
    -6.4173  -6.4173  -5.1342  -5.1342  -0.7674  -0.7673  -0.5327  -0.5322
    -0.0520  -0.0516   0.0411   0.0416   0.2444   0.2449   0.4335   0.4347
     0.7552   0.7557   0.8969   0.8974   1.2612   1.2616   1.9027   1.9033
     2.4281   2.4284   2.7204   2.7208   3.1560   3.1565   3.7806   3.7808
     3.9913   3.9914   6.0813   6.0814   6.2297   6.2297   6.8916   6.8917
     7.0435   7.0436   7.3849   7.3849

          k = 0.0238 0.0426 0.0000 ( 15134 PWs)   bands (ev):

   -35.7029 -35.7029 -35.7013 -35.7013 -35.6665 -35.6665 -35.6649 -35.6649
   -35.6020 -35.6020 -35.5719 -35.5719 -34.2450 -34.2450 -34.2434 -34.2434
   -34.2146 -34.2146 -34.2131 -34.2131 -34.1977 -34.1977 -34.1961 -34.1961
   -34.1411 -34.1411 -34.1222 -34.1222 -34.1014 -34.1014 -28.3614 -28.3613
   -28.3603 -28.3602 -28.3527 -28.3526 -28.3516 -28.3515 -27.1217 -27.1217
   -27.1206 -27.1206 -27.1138 -27.1137 -27.1127 -27.1126 -27.1096 -27.1095
   -27.1085 -27.1084 -10.7350 -10.7350 -10.1936 -10.1936  -9.1311  -9.1311
    -6.4157  -6.4157  -5.1224  -5.1224  -0.7554  -0.7554  -0.4789  -0.4784
    -0.0135  -0.0131   0.0593   0.0600   0.2602   0.2606   0.4452   0.4464
     0.7534   0.7540   0.8903   0.8907   1.2262   1.2266   1.8602   1.8607
     2.4287   2.4289   2.7261   2.7266   3.1241   3.1246   3.7610   3.7612
     3.9822   3.9823   6.0707   6.0708   6.2283   6.2284   6.8934   6.8934
     7.0530   7.0531   7.3852   7.3852

          k = 0.0190 0.0341 0.0000 ( 15129 PWs)   bands (ev):

   -35.7029 -35.7029 -35.7014 -35.7014 -35.6665 -35.6665 -35.6649 -35.6649
   -35.6020 -35.6020 -35.5719 -35.5719 -34.2450 -34.2450 -34.2434 -34.2434
   -34.2146 -34.2146 -34.2131 -34.2131 -34.1977 -34.1977 -34.1961 -34.1961
   -34.1411 -34.1411 -34.1222 -34.1222 -34.1015 -34.1015 -28.3614 -28.3614
   -28.3603 -28.3602 -28.3527 -28.3526 -28.3516 -28.3515 -27.1217 -27.1217
   -27.1206 -27.1206 -27.1138 -27.1137 -27.1127 -27.1126 -27.1096 -27.1095
   -27.1085 -27.1084 -10.7401 -10.7401 -10.1982 -10.1982  -9.1338  -9.1338
    -6.4144  -6.4144  -5.1127  -5.1127  -0.7458  -0.7458  -0.4303  -0.4299
    -0.0001   0.0004   0.0957   0.0965   0.2753   0.2757   0.4478   0.4490
     0.7430   0.7435   0.8972   0.8976   1.1958   1.1961   1.8170   1.8174
     2.4294   2.4296   2.7423   2.7428   3.0900   3.0905   3.7418   3.7420
     3.9776   3.9777   6.0619   6.0620   6.2272   6.2272   6.8936   6.8936
     7.0609   7.0609   7.3859   7.3859

          k = 0.0143 0.0256 0.0000 ( 15133 PWs)   bands (ev):

   -35.7029 -35.7029 -35.7014 -35.7014 -35.6665 -35.6665 -35.6649 -35.6649
   -35.6020 -35.6020 -35.5719 -35.5719 -34.2450 -34.2450 -34.2434 -34.2434
   -34.2146 -34.2146 -34.2131 -34.2131 -34.1977 -34.1977 -34.1961 -34.1961
   -34.1411 -34.1411 -34.1222 -34.1222 -34.1015 -34.1015 -28.3614 -28.3614
   -28.3603 -28.3602 -28.3527 -28.3526 -28.3516 -28.3515 -27.1217 -27.1217
   -27.1206 -27.1206 -27.1138 -27.1137 -27.1127 -27.1126 -27.1096 -27.1095
   -27.1085 -27.1084 -10.7440 -10.7440 -10.2017 -10.2017  -9.1359  -9.1359
    -6.4134  -6.4134  -5.1051  -5.1051  -0.7384  -0.7384  -0.3886  -0.3882
    -0.0011  -0.0007   0.1398   0.1406   0.2901   0.2905   0.4405   0.4416
     0.7300   0.7304   0.9095   0.9098   1.1735   1.1737   1.7760   1.7764
     2.4299   2.4301   2.7667   2.7671   3.0544   3.0549   3.7251   3.7253
     3.9757   3.9758   6.0550   6.0550   6.2263   6.2263   6.8930   6.8930
     7.0669   7.0669   7.3867   7.3868

          k = 0.0095 0.0170 0.0000 ( 15125 PWs)   bands (ev):

   -35.7029 -35.7029 -35.7014 -35.7014 -35.6665 -35.6665 -35.6649 -35.6649
   -35.6020 -35.6020 -35.5719 -35.5719 -34.2450 -34.2450 -34.2434 -34.2434
   -34.2146 -34.2146 -34.2131 -34.2131 -34.1977 -34.1977 -34.1961 -34.1961
   -34.1411 -34.1411 -34.1222 -34.1222 -34.1015 -34.1015 -28.3614 -28.3614
   -28.3603 -28.3602 -28.3526 -28.3526 -28.3516 -28.3516 -27.1217 -27.1217
   -27.1206 -27.1206 -27.1138 -27.1137 -27.1127 -27.1126 -27.1096 -27.1095
   -27.1085 -27.1085 -10.7468 -10.7468 -10.2043 -10.2043  -9.1373  -9.1373
    -6.4127  -6.4127  -5.0997  -5.0997  -0.7332  -0.7331  -0.3558  -0.3556
    -0.0065  -0.0063   0.1796   0.1802   0.3059   0.3063   0.4241   0.4251
     0.7190   0.7193   0.9202   0.9203   1.1608   1.1609   1.7416   1.7418
     2.4302   2.4304   2.7954   2.7959   3.0191   3.0195   3.7124   3.7125
     3.9752   3.9753   6.0500   6.0500   6.2256   6.2256   6.8922   6.8922
     7.0711   7.0711   7.3876   7.3876

          k = 0.0048 0.0085 0.0000 ( 15127 PWs)   bands (ev):

   -35.7029 -35.7029 -35.7014 -35.7014 -35.6665 -35.6665 -35.6649 -35.6649
   -35.6020 -35.6020 -35.5719 -35.5719 -34.2450 -34.2450 -34.2434 -34.2434
   -34.2146 -34.2146 -34.2131 -34.2131 -34.1977 -34.1977 -34.1961 -34.1961
   -34.1411 -34.1411 -34.1222 -34.1222 -34.1015 -34.1015 -28.3614 -28.3614
   -28.3603 -28.3603 -28.3526 -28.3526 -28.3516 -28.3516 -27.1217 -27.1217
   -27.1206 -27.1206 -27.1138 -27.1137 -27.1127 -27.1127 -27.1095 -27.1095
   -27.1085 -27.1085 -10.7485 -10.7485 -10.2058 -10.2058  -9.1382  -9.1382
    -6.4123  -6.4123  -5.0965  -5.0965  -0.7300  -0.7300  -0.3346  -0.3345
    -0.0116  -0.0115   0.2072   0.2076   0.3238   0.3241   0.4027   0.4035
     0.7122   0.7123   0.9263   0.9263   1.1559   1.1560   1.7182   1.7183
     2.4304   2.4304   2.8220   2.8223   2.9893   2.9896   3.7044   3.7045
     3.9753   3.9753   6.0470   6.0470   6.2252   6.2252   6.8916   6.8916
     7.0735   7.0735   7.3882   7.3882

          k = 0.0000 0.0000 0.0000 ( 15117 PWs)   bands (ev):

   -35.7029 -35.7029 -35.7014 -35.7014 -35.6665 -35.6665 -35.6649 -35.6649
   -35.6020 -35.6020 -35.5719 -35.5719 -34.2450 -34.2450 -34.2434 -34.2434
   -34.2146 -34.2146 -34.2131 -34.2131 -34.1977 -34.1977 -34.1961 -34.1961
   -34.1411 -34.1411 -34.1222 -34.1222 -34.1015 -34.1015 -28.3614 -28.3614
   -28.3603 -28.3603 -28.3526 -28.3526 -28.3516 -28.3516 -27.1217 -27.1217
   -27.1206 -27.1206 -27.1138 -27.1138 -27.1127 -27.1127 -27.1095 -27.1095
   -27.1085 -27.1085 -10.7491 -10.7491 -10.2063 -10.2063  -9.1385  -9.1385
    -6.4121  -6.4121  -5.0954  -5.0954  -0.7290  -0.7290  -0.3272  -0.3272
    -0.0136  -0.0136   0.2171   0.2171   0.3353   0.3353   0.3900   0.3900
     0.7099   0.7099   0.9281   0.9281   1.1550   1.1550   1.7099   1.7099
     2.4304   2.4304   2.8342   2.8342   2.9764   2.9764   3.7018   3.7018
     3.9754   3.9754   6.0459   6.0459   6.2251   6.2251   6.8914   6.8914
     7.0743   7.0743   7.3885   7.3885

     Writing all to output data dir tmp/Sb2Te3-uatsx-c4-soc-5.0.save/ :
     XML data file, pseudopotentials, collected wavefunctions

     init_run     :      1.22s CPU      1.22s WALL (       1 calls)
     electrons    :   1631.19s CPU    881.45s WALL (       1 calls)

     Called by init_run:
     wfcinit      :      0.00s CPU      0.01s WALL (       1 calls)
     wfcinit:wfcr :     42.33s CPU     21.92s WALL (     211 calls)
     potinit      :      0.50s CPU      0.48s WALL (       1 calls)
     hinit0       :      0.61s CPU      0.62s WALL (       1 calls)

     Called by electrons:
     c_bands      :   1631.17s CPU    881.43s WALL (       1 calls)
     v_of_rho     :      0.05s CPU      0.03s WALL (       1 calls)
     v_h          :      0.01s CPU      0.00s WALL (       1 calls)
     v_xc         :      0.04s CPU      0.03s WALL (       1 calls)

     Called by c_bands:
     init_us_2    :      0.21s CPU      0.18s WALL (     211 calls)
     cegterg      :   1580.81s CPU    853.09s WALL (     651 calls)

     Called by sum_band:

     Called by *egterg:
     cdiaghg      :    247.96s CPU    167.05s WALL (   10938 calls)
     cegterg:over :    105.59s CPU     55.13s WALL (   10727 calls)
     cegterg:upda :     51.61s CPU     24.13s WALL (   10727 calls)
     cegterg:last :     83.17s CPU     41.92s WALL (    5692 calls)
     h_psi        :   1080.74s CPU    556.80s WALL (   11589 calls)
     g_psi        :      5.71s CPU      4.04s WALL (   10727 calls)

     Called by h_psi:
     h_psi:calbec :     58.34s CPU     29.65s WALL (   11589 calls)
     vloc_psi     :    960.86s CPU    488.97s WALL (   11589 calls)
     add_vuspsi   :     58.78s CPU     36.40s WALL (   11589 calls)

     General routines
     calbec       :     58.26s CPU     29.62s WALL (   11589 calls)
     fft          :      0.64s CPU      0.64s WALL (      17 calls)
     ffts         :      0.42s CPU      0.42s WALL (       4 calls)
     fftw         :    695.01s CPU    354.91s WALL ( 2418740 calls)
     interpolate  :      0.44s CPU      0.43s WALL (       4 calls)
     davcio       :      0.22s CPU      0.36s WALL (     422 calls)

     Parallel routines

     PWSCF        :  27m27.73s CPU  16m33.90s WALL


   This run was terminated on:   1: 9:27  15Aug2025            

=------------------------------------------------------------------------------=
   JOB DONE.
=------------------------------------------------------------------------------=
