
     Program PWSCF v.7.4.1 starts on 22Aug2025 at 18:56:34 

     This program is part of the open-source Quantum ESPRESSO suite
     for quantum simulation of materials; please cite
         "P. Giannozzi et al., J. Phys.:Condens. Matter 21 395502 (2009);
         "P. Giannozzi et al., J. Phys.:Condens. Matter 29 465901 (2017);
         "P. Giannozzi et al., J. Chem. Phys. 152 154105 (2020);
          URL http://www.quantum-espresso.org", 
     in publications or presentations arising from this work. More details at
     http://www.quantum-espresso.org/quote

     Parallel version (MPI & OpenMP), running on      48 processor cores
     Number of MPI processes:                24
     Threads/MPI process:                     2

     MPI processes distributed on     2 nodes
     52617 MiB available memory on the printing compute node when the environment starts

     Waiting for input...
     Reading input from standard input

     Current dimensions of program PWSCF are:
     Max number of different atomic species (ntypx) = 10
     Max number of k-points (npk) =  40000
     Max angular momentum in pseudopotentials (lmaxx) =  4
Error reading attribute index: expected integer, found *
Error reading attribute index: expected integer, found *

     IMPORTANT: XC functional enforced from input :
     Exchange-correlation= PBE
                           (   1   4   3   4   0   0   0)
     Any further DFT definition will be discarded
     Please, verify this is what you really want


     Atomic positions and unit cell read from directory:
     tmp/Sb2Te3-uatsx-c5-soc-2.0.save/

     Message from routine setup:
     no reason to have ecutrho>4*ecutwfc

     R & G space division:  proc/nbgrp/npool/nimage =      24
     Subspace diagonalization in iterative solution of the eigenvalue problem:
     one sub-group per band group will be used
     scalapack distributed-memory algorithm (size of sub-group:  2*  2 procs)


     Parallelization info
     --------------------
     sticks:   dense  smooth     PW     G-vecs:    dense   smooth      PW
     Min         135      54     15                31969     8086    1205
     Max         136      55     16                31992     8103    1220
     Sum        3263    1305    367               767663   194215   29049

     Using Slab Decomposition



     bravais-lattice index     =            0
     lattice parameter (alat)  =       8.3085  a.u.
     unit-cell volume          =    2454.7283 (a.u.)^3
     number of atoms/cell      =            5
     number of atomic types    =            2
     number of electrons       =        78.00
     number of Kohn-Sham states=          200
     kinetic-energy cutoff     =      70.0000  Ry
     charge density cutoff     =     700.0000  Ry
     Exchange-correlation= PBE
                           (   1   4   3   4   0   0   0)
     Non magnetic calculation with spin-orbit


     celldm(1)=   8.308546  celldm(2)=   0.000000  celldm(3)=   0.000000
     celldm(4)=   0.000000  celldm(5)=   0.000000  celldm(6)=   0.000000

     crystal axes: (cart. coord. in units of alat)
               a(1) = (   1.000000   0.000000   0.000000 )  
               a(2) = (  -0.490196   0.849036   0.000000 )  
               a(3) = (   0.000000   0.000000   5.040830 )  

     reciprocal axes: (cart. coord. in units 2 pi/alat)
               b(1) = (  1.000000  0.577356 -0.000000 )  
               b(2) = (  0.000000  1.177806  0.000000 )  
               b(3) = (  0.000000 -0.000000  0.198380 )  


     PseudoPot. # 1 for Sb read from file:
     /zfs-home/202401017n1/pseudos/Sb_ONCV_PBE_FR-1.1.upf
     MD5 check sum: 7dc1726f2158e3c51e4807d42b9c5c65
     Pseudo is Norm-conserving, Zval = 15.0
     Generated using ONCVPSP code by D. R. Hamann
     Using radial grid of  602 points, 10 beta functions with: 
                l(1) =   0
                l(2) =   0
                l(3) =   1
                l(4) =   1
                l(5) =   1
                l(6) =   1
                l(7) =   2
                l(8) =   2
                l(9) =   2
               l(10) =   2

     PseudoPot. # 2 for Te read from file:
     /zfs-home/202401017n1/pseudos/Te_ONCV_PBE_FR-1.1.upf
     MD5 check sum: c6e17480449037a9a9d16e6377b5c7c4
     Pseudo is Norm-conserving, Zval = 16.0
     Generated using ONCVPSP code by D. R. Hamann
     Using radial grid of  602 points, 10 beta functions with: 
                l(1) =   0
                l(2) =   0
                l(3) =   1
                l(4) =   1
                l(5) =   1
                l(6) =   1
                l(7) =   2
                l(8) =   2
                l(9) =   2
               l(10) =   2

     atomic species   valence    mass     pseudopotential
     Sb               15.00   121.76000     Sb( 1.00)
     Te               16.00   127.60000     Te( 1.00)

     No symmetry found


                                    s                        frac. trans.

      isym =  1     identity                                     

 cryst.   s( 1) = (     1          0          0      )
                  (     0          1          0      )
                  (     0          0          1      )

 cart.    s( 1) = (  1.0000000  0.0000000  0.0000000 )
                  (  0.0000000  1.0000000  0.0000000 )
                  (  0.0000000  0.0000000  1.0000000 )


   Cartesian axes

     site n.     atom                  positions (alat units)
         1        Sb     tau(   1) = (   0.5829733   0.4189608   2.9724649  )
         2        Te     tau(   2) = (   0.5752175   0.4057666   1.6850437  )
         3        Sb     tau(   3) = (   0.0736071   0.1257310   2.0683360  )
         4        Te     tau(   4) = (   0.0811854   0.1390911   3.3558017  )
         5        Te     tau(   5) = (   0.0831178   0.6970014   2.5203330  )

     -------------------------------------------------
     Parameters for Dispersion (Grimme-D2) Correction:
     -------------------------------------------------
       atom      VdW radius       C_6     

        Sb         3.555       1333.532
        Te         3.575       1101.101

   Crystallographic axes

     site n.     atom                  positions (cryst. coord.)
         1        Sb     tau(   1) = (  0.8248627  0.4934545  0.5896776  )
         2        Te     tau(   2) = (  0.8094892  0.4779143  0.3342790  )
         3        Sb     tau(   3) = (  0.1461986  0.1480867  0.4103165  )
         4        Te     tau(   4) = (  0.1614904  0.1638223  0.6657240  )
         5        Te     tau(   5) = (  0.4855356  0.8209324  0.4999837  )

     number of k points=   211
                       cart. coord. in units 2pi/alat
        k(    1) = (   0.0000000   0.0000000   0.0000000), wk =   0.0047393
        k(    2) = (   0.0071429   0.0041240   0.0000000), wk =   0.0047393
        k(    3) = (   0.0142857   0.0082479   0.0000000), wk =   0.0047393
        k(    4) = (   0.0214286   0.0123719   0.0000000), wk =   0.0047393
        k(    5) = (   0.0285714   0.0164959   0.0000000), wk =   0.0047393
        k(    6) = (   0.0357143   0.0206199   0.0000000), wk =   0.0047393
        k(    7) = (   0.0428571   0.0247438   0.0000000), wk =   0.0047393
        k(    8) = (   0.0500000   0.0288678   0.0000000), wk =   0.0047393
        k(    9) = (   0.0571429   0.0329918   0.0000000), wk =   0.0047393
        k(   10) = (   0.0642857   0.0371157   0.0000000), wk =   0.0047393
        k(   11) = (   0.0714286   0.0412397   0.0000000), wk =   0.0047393
        k(   12) = (   0.0785714   0.0453637   0.0000000), wk =   0.0047393
        k(   13) = (   0.0857143   0.0494876   0.0000000), wk =   0.0047393
        k(   14) = (   0.0928571   0.0536116   0.0000000), wk =   0.0047393
        k(   15) = (   0.1000000   0.0577356   0.0000000), wk =   0.0047393
        k(   16) = (   0.1071429   0.0618596   0.0000000), wk =   0.0047393
        k(   17) = (   0.1142857   0.0659835   0.0000000), wk =   0.0047393
        k(   18) = (   0.1214286   0.0701075   0.0000000), wk =   0.0047393
        k(   19) = (   0.1285714   0.0742315   0.0000000), wk =   0.0047393
        k(   20) = (   0.1357143   0.0783554   0.0000000), wk =   0.0047393
        k(   21) = (   0.1428571   0.0824794   0.0000000), wk =   0.0047393
        k(   22) = (   0.1500000   0.0866034   0.0000000), wk =   0.0047393
        k(   23) = (   0.1571429   0.0907273   0.0000000), wk =   0.0047393
        k(   24) = (   0.1642857   0.0948513   0.0000000), wk =   0.0047393
        k(   25) = (   0.1714286   0.0989753   0.0000000), wk =   0.0047393
        k(   26) = (   0.1785714   0.1030993   0.0000000), wk =   0.0047393
        k(   27) = (   0.1857143   0.1072232   0.0000000), wk =   0.0047393
        k(   28) = (   0.1928571   0.1113472   0.0000000), wk =   0.0047393
        k(   29) = (   0.2000000   0.1154712   0.0000000), wk =   0.0047393
        k(   30) = (   0.2071429   0.1195951   0.0000000), wk =   0.0047393
        k(   31) = (   0.2142857   0.1237191   0.0000000), wk =   0.0047393
        k(   32) = (   0.2214286   0.1278431   0.0000000), wk =   0.0047393
        k(   33) = (   0.2285714   0.1319671   0.0000000), wk =   0.0047393
        k(   34) = (   0.2357143   0.1360910   0.0000000), wk =   0.0047393
        k(   35) = (   0.2428571   0.1402150   0.0000000), wk =   0.0047393
        k(   36) = (   0.2500000   0.1443390   0.0000000), wk =   0.0047393
        k(   37) = (   0.2571429   0.1484629   0.0000000), wk =   0.0047393
        k(   38) = (   0.2642857   0.1525869   0.0000000), wk =   0.0047393
        k(   39) = (   0.2714286   0.1567109   0.0000000), wk =   0.0047393
        k(   40) = (   0.2785714   0.1608348   0.0000000), wk =   0.0047393
        k(   41) = (   0.2857143   0.1649588   0.0000000), wk =   0.0047393
        k(   42) = (   0.2928571   0.1690828   0.0000000), wk =   0.0047393
        k(   43) = (   0.3000000   0.1732068   0.0000000), wk =   0.0047393
        k(   44) = (   0.3071429   0.1773307   0.0000000), wk =   0.0047393
        k(   45) = (   0.3142857   0.1814547   0.0000000), wk =   0.0047393
        k(   46) = (   0.3214286   0.1855787   0.0000000), wk =   0.0047393
        k(   47) = (   0.3285714   0.1897026   0.0000000), wk =   0.0047393
        k(   48) = (   0.3357143   0.1938266   0.0000000), wk =   0.0047393
        k(   49) = (   0.3428571   0.1979506   0.0000000), wk =   0.0047393
        k(   50) = (   0.3500000   0.2020745   0.0000000), wk =   0.0047393
        k(   51) = (   0.3571429   0.2061985   0.0000000), wk =   0.0047393
        k(   52) = (   0.3642857   0.2103225   0.0000000), wk =   0.0047393
        k(   53) = (   0.3714286   0.2144465   0.0000000), wk =   0.0047393
        k(   54) = (   0.3785714   0.2185704   0.0000000), wk =   0.0047393
        k(   55) = (   0.3857143   0.2226944   0.0000000), wk =   0.0047393
        k(   56) = (   0.3928571   0.2268184   0.0000000), wk =   0.0047393
        k(   57) = (   0.4000000   0.2309423   0.0000000), wk =   0.0047393
        k(   58) = (   0.4071429   0.2350663   0.0000000), wk =   0.0047393
        k(   59) = (   0.4142857   0.2391903   0.0000000), wk =   0.0047393
        k(   60) = (   0.4214286   0.2433143   0.0000000), wk =   0.0047393
        k(   61) = (   0.4285714   0.2474382   0.0000000), wk =   0.0047393
        k(   62) = (   0.4357143   0.2515622   0.0000000), wk =   0.0047393
        k(   63) = (   0.4428571   0.2556862   0.0000000), wk =   0.0047393
        k(   64) = (   0.4500000   0.2598101   0.0000000), wk =   0.0047393
        k(   65) = (   0.4571429   0.2639341   0.0000000), wk =   0.0047393
        k(   66) = (   0.4642857   0.2680581   0.0000000), wk =   0.0047393
        k(   67) = (   0.4714286   0.2721820   0.0000000), wk =   0.0047393
        k(   68) = (   0.4785714   0.2763060   0.0000000), wk =   0.0047393
        k(   69) = (   0.4857143   0.2804300   0.0000000), wk =   0.0047393
        k(   70) = (   0.4928571   0.2845540   0.0000000), wk =   0.0047393
        k(   71) = (   0.5000000   0.2886779   0.0000000), wk =   0.0047393
        k(   72) = (   0.4976190   0.2929119   0.0000000), wk =   0.0047393
        k(   73) = (   0.4952381   0.2971458   0.0000000), wk =   0.0047393
        k(   74) = (   0.4928571   0.3013798   0.0000000), wk =   0.0047393
        k(   75) = (   0.4904762   0.3056137   0.0000000), wk =   0.0047393
        k(   76) = (   0.4880952   0.3098476   0.0000000), wk =   0.0047393
        k(   77) = (   0.4857143   0.3140816   0.0000000), wk =   0.0047393
        k(   78) = (   0.4833333   0.3183155   0.0000000), wk =   0.0047393
        k(   79) = (   0.4809524   0.3225495   0.0000000), wk =   0.0047393
        k(   80) = (   0.4785714   0.3267834   0.0000000), wk =   0.0047393
        k(   81) = (   0.4761905   0.3310174   0.0000000), wk =   0.0047393
        k(   82) = (   0.4738095   0.3352513   0.0000000), wk =   0.0047393
        k(   83) = (   0.4714286   0.3394852   0.0000000), wk =   0.0047393
        k(   84) = (   0.4690476   0.3437192   0.0000000), wk =   0.0047393
        k(   85) = (   0.4666667   0.3479531   0.0000000), wk =   0.0047393
        k(   86) = (   0.4642857   0.3521871   0.0000000), wk =   0.0047393
        k(   87) = (   0.4619048   0.3564210   0.0000000), wk =   0.0047393
        k(   88) = (   0.4595238   0.3606550   0.0000000), wk =   0.0047393
        k(   89) = (   0.4571429   0.3648889   0.0000000), wk =   0.0047393
        k(   90) = (   0.4547619   0.3691228   0.0000000), wk =   0.0047393
        k(   91) = (   0.4523810   0.3733568   0.0000000), wk =   0.0047393
        k(   92) = (   0.4500000   0.3775907   0.0000000), wk =   0.0047393
        k(   93) = (   0.4476190   0.3818247   0.0000000), wk =   0.0047393
        k(   94) = (   0.4452381   0.3860586   0.0000000), wk =   0.0047393
        k(   95) = (   0.4428571   0.3902926   0.0000000), wk =   0.0047393
        k(   96) = (   0.4404762   0.3945265   0.0000000), wk =   0.0047393
        k(   97) = (   0.4380952   0.3987604   0.0000000), wk =   0.0047393
        k(   98) = (   0.4357143   0.4029944   0.0000000), wk =   0.0047393
        k(   99) = (   0.4333333   0.4072283   0.0000000), wk =   0.0047393
        k(  100) = (   0.4309524   0.4114623   0.0000000), wk =   0.0047393
        k(  101) = (   0.4285714   0.4156962   0.0000000), wk =   0.0047393
        k(  102) = (   0.4261905   0.4199302   0.0000000), wk =   0.0047393
        k(  103) = (   0.4238095   0.4241641   0.0000000), wk =   0.0047393
        k(  104) = (   0.4214286   0.4283980   0.0000000), wk =   0.0047393
        k(  105) = (   0.4190476   0.4326320   0.0000000), wk =   0.0047393
        k(  106) = (   0.4166667   0.4368659   0.0000000), wk =   0.0047393
        k(  107) = (   0.4142857   0.4410999   0.0000000), wk =   0.0047393
        k(  108) = (   0.4119048   0.4453338   0.0000000), wk =   0.0047393
        k(  109) = (   0.4095238   0.4495678   0.0000000), wk =   0.0047393
        k(  110) = (   0.4071429   0.4538017   0.0000000), wk =   0.0047393
        k(  111) = (   0.4047619   0.4580356   0.0000000), wk =   0.0047393
        k(  112) = (   0.4023810   0.4622696   0.0000000), wk =   0.0047393
        k(  113) = (   0.4000000   0.4665035   0.0000000), wk =   0.0047393
        k(  114) = (   0.3976190   0.4707375   0.0000000), wk =   0.0047393
        k(  115) = (   0.3952381   0.4749714   0.0000000), wk =   0.0047393
        k(  116) = (   0.3928571   0.4792054   0.0000000), wk =   0.0047393
        k(  117) = (   0.3904762   0.4834393   0.0000000), wk =   0.0047393
        k(  118) = (   0.3880952   0.4876732   0.0000000), wk =   0.0047393
        k(  119) = (   0.3857143   0.4919072   0.0000000), wk =   0.0047393
        k(  120) = (   0.3833333   0.4961411   0.0000000), wk =   0.0047393
        k(  121) = (   0.3809524   0.5003751   0.0000000), wk =   0.0047393
        k(  122) = (   0.3785714   0.5046090   0.0000000), wk =   0.0047393
        k(  123) = (   0.3761905   0.5088430   0.0000000), wk =   0.0047393
        k(  124) = (   0.3738095   0.5130769   0.0000000), wk =   0.0047393
        k(  125) = (   0.3714286   0.5173108   0.0000000), wk =   0.0047393
        k(  126) = (   0.3690476   0.5215448   0.0000000), wk =   0.0047393
        k(  127) = (   0.3666667   0.5257787   0.0000000), wk =   0.0047393
        k(  128) = (   0.3642857   0.5300127   0.0000000), wk =   0.0047393
        k(  129) = (   0.3619048   0.5342466   0.0000000), wk =   0.0047393
        k(  130) = (   0.3595238   0.5384806   0.0000000), wk =   0.0047393
        k(  131) = (   0.3571429   0.5427145   0.0000000), wk =   0.0047393
        k(  132) = (   0.3547619   0.5469484   0.0000000), wk =   0.0047393
        k(  133) = (   0.3523810   0.5511824   0.0000000), wk =   0.0047393
        k(  134) = (   0.3500000   0.5554163   0.0000000), wk =   0.0047393
        k(  135) = (   0.3476190   0.5596503   0.0000000), wk =   0.0047393
        k(  136) = (   0.3452381   0.5638842   0.0000000), wk =   0.0047393
        k(  137) = (   0.3428571   0.5681182   0.0000000), wk =   0.0047393
        k(  138) = (   0.3404762   0.5723521   0.0000000), wk =   0.0047393
        k(  139) = (   0.3380952   0.5765860   0.0000000), wk =   0.0047393
        k(  140) = (   0.3357143   0.5808200   0.0000000), wk =   0.0047393
        k(  141) = (   0.3333333   0.5850539   0.0000000), wk =   0.0047393
        k(  142) = (   0.3285714   0.5766960   0.0000000), wk =   0.0047393
        k(  143) = (   0.3238095   0.5683381   0.0000000), wk =   0.0047393
        k(  144) = (   0.3190476   0.5599802   0.0000000), wk =   0.0047393
        k(  145) = (   0.3142857   0.5516223   0.0000000), wk =   0.0047393
        k(  146) = (   0.3095238   0.5432644   0.0000000), wk =   0.0047393
        k(  147) = (   0.3047619   0.5349065   0.0000000), wk =   0.0047393
        k(  148) = (   0.3000000   0.5265485   0.0000000), wk =   0.0047393
        k(  149) = (   0.2952381   0.5181906   0.0000000), wk =   0.0047393
        k(  150) = (   0.2904762   0.5098327   0.0000000), wk =   0.0047393
        k(  151) = (   0.2857143   0.5014748   0.0000000), wk =   0.0047393
        k(  152) = (   0.2809524   0.4931169   0.0000000), wk =   0.0047393
        k(  153) = (   0.2761905   0.4847590   0.0000000), wk =   0.0047393
        k(  154) = (   0.2714286   0.4764011   0.0000000), wk =   0.0047393
        k(  155) = (   0.2666667   0.4680431   0.0000000), wk =   0.0047393
        k(  156) = (   0.2619048   0.4596852   0.0000000), wk =   0.0047393
        k(  157) = (   0.2571429   0.4513273   0.0000000), wk =   0.0047393
        k(  158) = (   0.2523810   0.4429694   0.0000000), wk =   0.0047393
        k(  159) = (   0.2476190   0.4346115   0.0000000), wk =   0.0047393
        k(  160) = (   0.2428571   0.4262536   0.0000000), wk =   0.0047393
        k(  161) = (   0.2380952   0.4178957   0.0000000), wk =   0.0047393
        k(  162) = (   0.2333333   0.4095378   0.0000000), wk =   0.0047393
        k(  163) = (   0.2285714   0.4011798   0.0000000), wk =   0.0047393
        k(  164) = (   0.2238095   0.3928219   0.0000000), wk =   0.0047393
        k(  165) = (   0.2190476   0.3844640   0.0000000), wk =   0.0047393
        k(  166) = (   0.2142857   0.3761061   0.0000000), wk =   0.0047393
        k(  167) = (   0.2095238   0.3677482   0.0000000), wk =   0.0047393
        k(  168) = (   0.2047619   0.3593903   0.0000000), wk =   0.0047393
        k(  169) = (   0.2000000   0.3510324   0.0000000), wk =   0.0047393
        k(  170) = (   0.1952381   0.3426744   0.0000000), wk =   0.0047393
        k(  171) = (   0.1904762   0.3343165   0.0000000), wk =   0.0047393
        k(  172) = (   0.1857143   0.3259586   0.0000000), wk =   0.0047393
        k(  173) = (   0.1809524   0.3176007   0.0000000), wk =   0.0047393
        k(  174) = (   0.1761905   0.3092428   0.0000000), wk =   0.0047393
        k(  175) = (   0.1714286   0.3008849   0.0000000), wk =   0.0047393
        k(  176) = (   0.1666667   0.2925270   0.0000000), wk =   0.0047393
        k(  177) = (   0.1619048   0.2841691   0.0000000), wk =   0.0047393
        k(  178) = (   0.1571429   0.2758111   0.0000000), wk =   0.0047393
        k(  179) = (   0.1523810   0.2674532   0.0000000), wk =   0.0047393
        k(  180) = (   0.1476190   0.2590953   0.0000000), wk =   0.0047393
        k(  181) = (   0.1428571   0.2507374   0.0000000), wk =   0.0047393
        k(  182) = (   0.1380952   0.2423795   0.0000000), wk =   0.0047393
        k(  183) = (   0.1333333   0.2340216   0.0000000), wk =   0.0047393
        k(  184) = (   0.1285714   0.2256637   0.0000000), wk =   0.0047393
        k(  185) = (   0.1238095   0.2173057   0.0000000), wk =   0.0047393
        k(  186) = (   0.1190476   0.2089478   0.0000000), wk =   0.0047393
        k(  187) = (   0.1142857   0.2005899   0.0000000), wk =   0.0047393
        k(  188) = (   0.1095238   0.1922320   0.0000000), wk =   0.0047393
        k(  189) = (   0.1047619   0.1838741   0.0000000), wk =   0.0047393
        k(  190) = (   0.1000000   0.1755162   0.0000000), wk =   0.0047393
        k(  191) = (   0.0952381   0.1671583   0.0000000), wk =   0.0047393
        k(  192) = (   0.0904762   0.1588004   0.0000000), wk =   0.0047393
        k(  193) = (   0.0857143   0.1504424   0.0000000), wk =   0.0047393
        k(  194) = (   0.0809524   0.1420845   0.0000000), wk =   0.0047393
        k(  195) = (   0.0761905   0.1337266   0.0000000), wk =   0.0047393
        k(  196) = (   0.0714286   0.1253687   0.0000000), wk =   0.0047393
        k(  197) = (   0.0666667   0.1170108   0.0000000), wk =   0.0047393
        k(  198) = (   0.0619048   0.1086529   0.0000000), wk =   0.0047393
        k(  199) = (   0.0571429   0.1002950   0.0000000), wk =   0.0047393
        k(  200) = (   0.0523810   0.0919370   0.0000000), wk =   0.0047393
        k(  201) = (   0.0476190   0.0835791   0.0000000), wk =   0.0047393
        k(  202) = (   0.0428571   0.0752212   0.0000000), wk =   0.0047393
        k(  203) = (   0.0380952   0.0668633   0.0000000), wk =   0.0047393
        k(  204) = (   0.0333333   0.0585054   0.0000000), wk =   0.0047393
        k(  205) = (   0.0285714   0.0501475   0.0000000), wk =   0.0047393
        k(  206) = (   0.0238095   0.0417896   0.0000000), wk =   0.0047393
        k(  207) = (   0.0190476   0.0334317   0.0000000), wk =   0.0047393
        k(  208) = (   0.0142857   0.0250737   0.0000000), wk =   0.0047393
        k(  209) = (   0.0095238   0.0167158   0.0000000), wk =   0.0047393
        k(  210) = (   0.0047619   0.0083579   0.0000000), wk =   0.0047393
        k(  211) = (   0.0000000   0.0000000   0.0000000), wk =   0.0047393

                       cryst. coord.
        k(    1) = (   0.0000000   0.0000000   0.0000000), wk =   0.0047393
        k(    2) = (   0.0071429   0.0000000   0.0000000), wk =   0.0047393
        k(    3) = (   0.0142857   0.0000000   0.0000000), wk =   0.0047393
        k(    4) = (   0.0214286   0.0000000   0.0000000), wk =   0.0047393
        k(    5) = (   0.0285714   0.0000000   0.0000000), wk =   0.0047393
        k(    6) = (   0.0357143   0.0000000   0.0000000), wk =   0.0047393
        k(    7) = (   0.0428571   0.0000000   0.0000000), wk =   0.0047393
        k(    8) = (   0.0500000   0.0000000   0.0000000), wk =   0.0047393
        k(    9) = (   0.0571429   0.0000000   0.0000000), wk =   0.0047393
        k(   10) = (   0.0642857   0.0000000   0.0000000), wk =   0.0047393
        k(   11) = (   0.0714286   0.0000000   0.0000000), wk =   0.0047393
        k(   12) = (   0.0785714   0.0000000   0.0000000), wk =   0.0047393
        k(   13) = (   0.0857143   0.0000000   0.0000000), wk =   0.0047393
        k(   14) = (   0.0928571   0.0000000   0.0000000), wk =   0.0047393
        k(   15) = (   0.1000000   0.0000000   0.0000000), wk =   0.0047393
        k(   16) = (   0.1071429   0.0000000   0.0000000), wk =   0.0047393
        k(   17) = (   0.1142857   0.0000000   0.0000000), wk =   0.0047393
        k(   18) = (   0.1214286   0.0000000   0.0000000), wk =   0.0047393
        k(   19) = (   0.1285714   0.0000000   0.0000000), wk =   0.0047393
        k(   20) = (   0.1357143   0.0000000   0.0000000), wk =   0.0047393
        k(   21) = (   0.1428571   0.0000000   0.0000000), wk =   0.0047393
        k(   22) = (   0.1500000   0.0000000   0.0000000), wk =   0.0047393
        k(   23) = (   0.1571429   0.0000000   0.0000000), wk =   0.0047393
        k(   24) = (   0.1642857   0.0000000   0.0000000), wk =   0.0047393
        k(   25) = (   0.1714286   0.0000000   0.0000000), wk =   0.0047393
        k(   26) = (   0.1785714   0.0000000   0.0000000), wk =   0.0047393
        k(   27) = (   0.1857143   0.0000000   0.0000000), wk =   0.0047393
        k(   28) = (   0.1928571   0.0000000   0.0000000), wk =   0.0047393
        k(   29) = (   0.2000000   0.0000000   0.0000000), wk =   0.0047393
        k(   30) = (   0.2071429   0.0000000   0.0000000), wk =   0.0047393
        k(   31) = (   0.2142857   0.0000000   0.0000000), wk =   0.0047393
        k(   32) = (   0.2214286   0.0000000   0.0000000), wk =   0.0047393
        k(   33) = (   0.2285714   0.0000000   0.0000000), wk =   0.0047393
        k(   34) = (   0.2357143   0.0000000   0.0000000), wk =   0.0047393
        k(   35) = (   0.2428571   0.0000000   0.0000000), wk =   0.0047393
        k(   36) = (   0.2500000   0.0000000   0.0000000), wk =   0.0047393
        k(   37) = (   0.2571429   0.0000000   0.0000000), wk =   0.0047393
        k(   38) = (   0.2642857   0.0000000   0.0000000), wk =   0.0047393
        k(   39) = (   0.2714286   0.0000000   0.0000000), wk =   0.0047393
        k(   40) = (   0.2785714   0.0000000   0.0000000), wk =   0.0047393
        k(   41) = (   0.2857143   0.0000000   0.0000000), wk =   0.0047393
        k(   42) = (   0.2928571   0.0000000   0.0000000), wk =   0.0047393
        k(   43) = (   0.3000000   0.0000000   0.0000000), wk =   0.0047393
        k(   44) = (   0.3071429   0.0000000   0.0000000), wk =   0.0047393
        k(   45) = (   0.3142857   0.0000000   0.0000000), wk =   0.0047393
        k(   46) = (   0.3214286   0.0000000   0.0000000), wk =   0.0047393
        k(   47) = (   0.3285714   0.0000000   0.0000000), wk =   0.0047393
        k(   48) = (   0.3357143   0.0000000   0.0000000), wk =   0.0047393
        k(   49) = (   0.3428571   0.0000000   0.0000000), wk =   0.0047393
        k(   50) = (   0.3500000   0.0000000   0.0000000), wk =   0.0047393
        k(   51) = (   0.3571429   0.0000000   0.0000000), wk =   0.0047393
        k(   52) = (   0.3642857   0.0000000   0.0000000), wk =   0.0047393
        k(   53) = (   0.3714286   0.0000000   0.0000000), wk =   0.0047393
        k(   54) = (   0.3785714   0.0000000   0.0000000), wk =   0.0047393
        k(   55) = (   0.3857143   0.0000000   0.0000000), wk =   0.0047393
        k(   56) = (   0.3928571   0.0000000   0.0000000), wk =   0.0047393
        k(   57) = (   0.4000000   0.0000000   0.0000000), wk =   0.0047393
        k(   58) = (   0.4071429   0.0000000   0.0000000), wk =   0.0047393
        k(   59) = (   0.4142857   0.0000000   0.0000000), wk =   0.0047393
        k(   60) = (   0.4214286   0.0000000   0.0000000), wk =   0.0047393
        k(   61) = (   0.4285714   0.0000000   0.0000000), wk =   0.0047393
        k(   62) = (   0.4357143   0.0000000   0.0000000), wk =   0.0047393
        k(   63) = (   0.4428571   0.0000000   0.0000000), wk =   0.0047393
        k(   64) = (   0.4500000   0.0000000   0.0000000), wk =   0.0047393
        k(   65) = (   0.4571429   0.0000000   0.0000000), wk =   0.0047393
        k(   66) = (   0.4642857   0.0000000   0.0000000), wk =   0.0047393
        k(   67) = (   0.4714286   0.0000000   0.0000000), wk =   0.0047393
        k(   68) = (   0.4785714   0.0000000   0.0000000), wk =   0.0047393
        k(   69) = (   0.4857143   0.0000000   0.0000000), wk =   0.0047393
        k(   70) = (   0.4928571   0.0000000   0.0000000), wk =   0.0047393
        k(   71) = (   0.5000000   0.0000000   0.0000000), wk =   0.0047393
        k(   72) = (   0.4976190   0.0047619   0.0000000), wk =   0.0047393
        k(   73) = (   0.4952381   0.0095238   0.0000000), wk =   0.0047393
        k(   74) = (   0.4928571   0.0142857   0.0000000), wk =   0.0047393
        k(   75) = (   0.4904762   0.0190476   0.0000000), wk =   0.0047393
        k(   76) = (   0.4880952   0.0238095   0.0000000), wk =   0.0047393
        k(   77) = (   0.4857143   0.0285714   0.0000000), wk =   0.0047393
        k(   78) = (   0.4833333   0.0333333   0.0000000), wk =   0.0047393
        k(   79) = (   0.4809524   0.0380952   0.0000000), wk =   0.0047393
        k(   80) = (   0.4785714   0.0428571   0.0000000), wk =   0.0047393
        k(   81) = (   0.4761905   0.0476190   0.0000000), wk =   0.0047393
        k(   82) = (   0.4738095   0.0523810   0.0000000), wk =   0.0047393
        k(   83) = (   0.4714286   0.0571429   0.0000000), wk =   0.0047393
        k(   84) = (   0.4690476   0.0619048   0.0000000), wk =   0.0047393
        k(   85) = (   0.4666667   0.0666667   0.0000000), wk =   0.0047393
        k(   86) = (   0.4642857   0.0714286   0.0000000), wk =   0.0047393
        k(   87) = (   0.4619048   0.0761905   0.0000000), wk =   0.0047393
        k(   88) = (   0.4595238   0.0809524   0.0000000), wk =   0.0047393
        k(   89) = (   0.4571429   0.0857143   0.0000000), wk =   0.0047393
        k(   90) = (   0.4547619   0.0904762   0.0000000), wk =   0.0047393
        k(   91) = (   0.4523810   0.0952381   0.0000000), wk =   0.0047393
        k(   92) = (   0.4500000   0.1000000   0.0000000), wk =   0.0047393
        k(   93) = (   0.4476190   0.1047619   0.0000000), wk =   0.0047393
        k(   94) = (   0.4452381   0.1095238   0.0000000), wk =   0.0047393
        k(   95) = (   0.4428571   0.1142857   0.0000000), wk =   0.0047393
        k(   96) = (   0.4404762   0.1190476   0.0000000), wk =   0.0047393
        k(   97) = (   0.4380952   0.1238095   0.0000000), wk =   0.0047393
        k(   98) = (   0.4357143   0.1285714   0.0000000), wk =   0.0047393
        k(   99) = (   0.4333333   0.1333333   0.0000000), wk =   0.0047393
        k(  100) = (   0.4309524   0.1380952   0.0000000), wk =   0.0047393
        k(  101) = (   0.4285714   0.1428571   0.0000000), wk =   0.0047393
        k(  102) = (   0.4261905   0.1476190   0.0000000), wk =   0.0047393
        k(  103) = (   0.4238095   0.1523810   0.0000000), wk =   0.0047393
        k(  104) = (   0.4214286   0.1571429   0.0000000), wk =   0.0047393
        k(  105) = (   0.4190476   0.1619048   0.0000000), wk =   0.0047393
        k(  106) = (   0.4166667   0.1666667   0.0000000), wk =   0.0047393
        k(  107) = (   0.4142857   0.1714286   0.0000000), wk =   0.0047393
        k(  108) = (   0.4119048   0.1761905   0.0000000), wk =   0.0047393
        k(  109) = (   0.4095238   0.1809524   0.0000000), wk =   0.0047393
        k(  110) = (   0.4071429   0.1857143   0.0000000), wk =   0.0047393
        k(  111) = (   0.4047619   0.1904762   0.0000000), wk =   0.0047393
        k(  112) = (   0.4023810   0.1952381   0.0000000), wk =   0.0047393
        k(  113) = (   0.4000000   0.2000000   0.0000000), wk =   0.0047393
        k(  114) = (   0.3976190   0.2047619   0.0000000), wk =   0.0047393
        k(  115) = (   0.3952381   0.2095238   0.0000000), wk =   0.0047393
        k(  116) = (   0.3928571   0.2142857   0.0000000), wk =   0.0047393
        k(  117) = (   0.3904762   0.2190476   0.0000000), wk =   0.0047393
        k(  118) = (   0.3880952   0.2238095   0.0000000), wk =   0.0047393
        k(  119) = (   0.3857143   0.2285714   0.0000000), wk =   0.0047393
        k(  120) = (   0.3833333   0.2333333   0.0000000), wk =   0.0047393
        k(  121) = (   0.3809524   0.2380952   0.0000000), wk =   0.0047393
        k(  122) = (   0.3785714   0.2428571   0.0000000), wk =   0.0047393
        k(  123) = (   0.3761905   0.2476190   0.0000000), wk =   0.0047393
        k(  124) = (   0.3738095   0.2523810   0.0000000), wk =   0.0047393
        k(  125) = (   0.3714286   0.2571429   0.0000000), wk =   0.0047393
        k(  126) = (   0.3690476   0.2619048   0.0000000), wk =   0.0047393
        k(  127) = (   0.3666667   0.2666667   0.0000000), wk =   0.0047393
        k(  128) = (   0.3642857   0.2714286   0.0000000), wk =   0.0047393
        k(  129) = (   0.3619048   0.2761905   0.0000000), wk =   0.0047393
        k(  130) = (   0.3595238   0.2809524   0.0000000), wk =   0.0047393
        k(  131) = (   0.3571429   0.2857143   0.0000000), wk =   0.0047393
        k(  132) = (   0.3547619   0.2904762   0.0000000), wk =   0.0047393
        k(  133) = (   0.3523810   0.2952381   0.0000000), wk =   0.0047393
        k(  134) = (   0.3500000   0.3000000   0.0000000), wk =   0.0047393
        k(  135) = (   0.3476190   0.3047619   0.0000000), wk =   0.0047393
        k(  136) = (   0.3452381   0.3095238   0.0000000), wk =   0.0047393
        k(  137) = (   0.3428571   0.3142857   0.0000000), wk =   0.0047393
        k(  138) = (   0.3404762   0.3190476   0.0000000), wk =   0.0047393
        k(  139) = (   0.3380952   0.3238095   0.0000000), wk =   0.0047393
        k(  140) = (   0.3357143   0.3285714   0.0000000), wk =   0.0047393
        k(  141) = (   0.3333333   0.3333333   0.0000000), wk =   0.0047393
        k(  142) = (   0.3285714   0.3285714   0.0000000), wk =   0.0047393
        k(  143) = (   0.3238095   0.3238095   0.0000000), wk =   0.0047393
        k(  144) = (   0.3190476   0.3190476   0.0000000), wk =   0.0047393
        k(  145) = (   0.3142857   0.3142857   0.0000000), wk =   0.0047393
        k(  146) = (   0.3095238   0.3095238   0.0000000), wk =   0.0047393
        k(  147) = (   0.3047619   0.3047619   0.0000000), wk =   0.0047393
        k(  148) = (   0.3000000   0.3000000   0.0000000), wk =   0.0047393
        k(  149) = (   0.2952381   0.2952381   0.0000000), wk =   0.0047393
        k(  150) = (   0.2904762   0.2904762   0.0000000), wk =   0.0047393
        k(  151) = (   0.2857143   0.2857143   0.0000000), wk =   0.0047393
        k(  152) = (   0.2809524   0.2809524   0.0000000), wk =   0.0047393
        k(  153) = (   0.2761905   0.2761905   0.0000000), wk =   0.0047393
        k(  154) = (   0.2714286   0.2714286   0.0000000), wk =   0.0047393
        k(  155) = (   0.2666667   0.2666667   0.0000000), wk =   0.0047393
        k(  156) = (   0.2619048   0.2619048   0.0000000), wk =   0.0047393
        k(  157) = (   0.2571429   0.2571429   0.0000000), wk =   0.0047393
        k(  158) = (   0.2523810   0.2523810   0.0000000), wk =   0.0047393
        k(  159) = (   0.2476190   0.2476190   0.0000000), wk =   0.0047393
        k(  160) = (   0.2428571   0.2428571   0.0000000), wk =   0.0047393
        k(  161) = (   0.2380952   0.2380952   0.0000000), wk =   0.0047393
        k(  162) = (   0.2333333   0.2333333   0.0000000), wk =   0.0047393
        k(  163) = (   0.2285714   0.2285714   0.0000000), wk =   0.0047393
        k(  164) = (   0.2238095   0.2238095   0.0000000), wk =   0.0047393
        k(  165) = (   0.2190476   0.2190476   0.0000000), wk =   0.0047393
        k(  166) = (   0.2142857   0.2142857   0.0000000), wk =   0.0047393
        k(  167) = (   0.2095238   0.2095238   0.0000000), wk =   0.0047393
        k(  168) = (   0.2047619   0.2047619   0.0000000), wk =   0.0047393
        k(  169) = (   0.2000000   0.2000000   0.0000000), wk =   0.0047393
        k(  170) = (   0.1952381   0.1952381   0.0000000), wk =   0.0047393
        k(  171) = (   0.1904762   0.1904762   0.0000000), wk =   0.0047393
        k(  172) = (   0.1857143   0.1857143   0.0000000), wk =   0.0047393
        k(  173) = (   0.1809524   0.1809524   0.0000000), wk =   0.0047393
        k(  174) = (   0.1761905   0.1761905   0.0000000), wk =   0.0047393
        k(  175) = (   0.1714286   0.1714286   0.0000000), wk =   0.0047393
        k(  176) = (   0.1666667   0.1666667   0.0000000), wk =   0.0047393
        k(  177) = (   0.1619048   0.1619048   0.0000000), wk =   0.0047393
        k(  178) = (   0.1571429   0.1571429   0.0000000), wk =   0.0047393
        k(  179) = (   0.1523810   0.1523810   0.0000000), wk =   0.0047393
        k(  180) = (   0.1476190   0.1476190   0.0000000), wk =   0.0047393
        k(  181) = (   0.1428571   0.1428571   0.0000000), wk =   0.0047393
        k(  182) = (   0.1380952   0.1380952   0.0000000), wk =   0.0047393
        k(  183) = (   0.1333333   0.1333333   0.0000000), wk =   0.0047393
        k(  184) = (   0.1285714   0.1285714   0.0000000), wk =   0.0047393
        k(  185) = (   0.1238095   0.1238095   0.0000000), wk =   0.0047393
        k(  186) = (   0.1190476   0.1190476   0.0000000), wk =   0.0047393
        k(  187) = (   0.1142857   0.1142857   0.0000000), wk =   0.0047393
        k(  188) = (   0.1095238   0.1095238   0.0000000), wk =   0.0047393
        k(  189) = (   0.1047619   0.1047619   0.0000000), wk =   0.0047393
        k(  190) = (   0.1000000   0.1000000   0.0000000), wk =   0.0047393
        k(  191) = (   0.0952381   0.0952381   0.0000000), wk =   0.0047393
        k(  192) = (   0.0904762   0.0904762   0.0000000), wk =   0.0047393
        k(  193) = (   0.0857143   0.0857143   0.0000000), wk =   0.0047393
        k(  194) = (   0.0809524   0.0809524   0.0000000), wk =   0.0047393
        k(  195) = (   0.0761905   0.0761905   0.0000000), wk =   0.0047393
        k(  196) = (   0.0714286   0.0714286   0.0000000), wk =   0.0047393
        k(  197) = (   0.0666667   0.0666667   0.0000000), wk =   0.0047393
        k(  198) = (   0.0619048   0.0619048   0.0000000), wk =   0.0047393
        k(  199) = (   0.0571429   0.0571429   0.0000000), wk =   0.0047393
        k(  200) = (   0.0523810   0.0523810   0.0000000), wk =   0.0047393
        k(  201) = (   0.0476190   0.0476190   0.0000000), wk =   0.0047393
        k(  202) = (   0.0428571   0.0428571   0.0000000), wk =   0.0047393
        k(  203) = (   0.0380952   0.0380952   0.0000000), wk =   0.0047393
        k(  204) = (   0.0333333   0.0333333   0.0000000), wk =   0.0047393
        k(  205) = (   0.0285714   0.0285714   0.0000000), wk =   0.0047393
        k(  206) = (   0.0238095   0.0238095   0.0000000), wk =   0.0047393
        k(  207) = (   0.0190476   0.0190476   0.0000000), wk =   0.0047393
        k(  208) = (   0.0142857   0.0142857   0.0000000), wk =   0.0047393
        k(  209) = (   0.0095238   0.0095238   0.0000000), wk =   0.0047393
        k(  210) = (   0.0047619   0.0047619   0.0000000), wk =   0.0047393
        k(  211) = (   0.0000000   0.0000000   0.0000000), wk =   0.0047393

     Dense  grid:   767663 G-vectors     FFT dimensions: (  72,  72, 360)

     Smooth grid:   194215 G-vectors     FFT dimensions: (  45,  45, 225)

     Dynamical RAM for                 wfc:       6.17 MB

     Dynamical RAM for     wfc (w. buffer):       6.17 MB

     Dynamical RAM for           str. fact:       0.98 MB

     Dynamical RAM for           local pot:       0.00 MB

     Dynamical RAM for          nlocal pot:       2.62 MB

     Dynamical RAM for                qrad:      11.12 MB

     Dynamical RAM for          rho,v,vnew:      12.98 MB

     Dynamical RAM for           G-vectors:       1.89 MB

     Dynamical RAM for          h,s,v(r/c):       1.83 MB

     Dynamical RAM for          <psi|beta>:       1.04 MB

     Dynamical RAM for                 psi:      12.34 MB

     Dynamical RAM for                hpsi:      12.34 MB

     Dynamical RAM for      wfcinit/wfcrot:      10.17 MB

     Estimated static dynamical RAM per process >      41.96 MB

     Estimated max dynamical RAM per process >      69.52 MB

     Estimated total dynamical RAM >       1.63 GB

     The potential is recalculated from file :
     tmp/Sb2Te3-uatsx-c5-soc-2.0.save/charge-density

     Starting wfcs are random

     Band Structure Calculation
     Davidson diagonalization with overlap

     Computing kpt #:     1  of   211
     total cpu time spent up to now is       19.0 secs

     Computing kpt #:     2  of   211
     total cpu time spent up to now is       35.1 secs

     Computing kpt #:     3  of   211
     total cpu time spent up to now is       50.9 secs

     Computing kpt #:     4  of   211
     total cpu time spent up to now is       67.3 secs

     Computing kpt #:     5  of   211
     total cpu time spent up to now is       82.5 secs

     Computing kpt #:     6  of   211
     total cpu time spent up to now is       97.5 secs

     Computing kpt #:     7  of   211
     total cpu time spent up to now is      112.0 secs

     Computing kpt #:     8  of   211
     total cpu time spent up to now is      126.6 secs

     Computing kpt #:     9  of   211
     total cpu time spent up to now is      140.1 secs

     Computing kpt #:    10  of   211
     total cpu time spent up to now is      153.7 secs

     Computing kpt #:    11  of   211
     total cpu time spent up to now is      167.3 secs

     Computing kpt #:    12  of   211
     total cpu time spent up to now is      180.7 secs

     Computing kpt #:    13  of   211
     total cpu time spent up to now is      195.1 secs

     Computing kpt #:    14  of   211
     total cpu time spent up to now is      208.7 secs

     Computing kpt #:    15  of   211
     total cpu time spent up to now is      223.5 secs

     Computing kpt #:    16  of   211
     total cpu time spent up to now is      238.4 secs

     Computing kpt #:    17  of   211
     total cpu time spent up to now is      254.4 secs

     Computing kpt #:    18  of   211
     total cpu time spent up to now is      269.4 secs

     Computing kpt #:    19  of   211
     total cpu time spent up to now is      285.8 secs

     Computing kpt #:    20  of   211
     total cpu time spent up to now is      300.8 secs

     Computing kpt #:    21  of   211
     total cpu time spent up to now is      315.5 secs

     Computing kpt #:    22  of   211
     total cpu time spent up to now is      331.6 secs

     Computing kpt #:    23  of   211
     total cpu time spent up to now is      346.6 secs

     Computing kpt #:    24  of   211
     total cpu time spent up to now is      361.8 secs

     Computing kpt #:    25  of   211
     total cpu time spent up to now is      377.2 secs

     Computing kpt #:    26  of   211
     total cpu time spent up to now is      392.7 secs

     Computing kpt #:    27  of   211
     total cpu time spent up to now is      407.9 secs

     Computing kpt #:    28  of   211
     total cpu time spent up to now is      423.0 secs

     Computing kpt #:    29  of   211
     total cpu time spent up to now is      439.6 secs

     Computing kpt #:    30  of   211
     total cpu time spent up to now is      455.8 secs

     Computing kpt #:    31  of   211
     total cpu time spent up to now is      472.1 secs

     Computing kpt #:    32  of   211
     total cpu time spent up to now is      488.5 secs

     Computing kpt #:    33  of   211
     total cpu time spent up to now is      503.7 secs

     Computing kpt #:    34  of   211
     total cpu time spent up to now is      518.7 secs

     Computing kpt #:    35  of   211
     total cpu time spent up to now is      533.8 secs

     Computing kpt #:    36  of   211
     total cpu time spent up to now is      549.9 secs

     Computing kpt #:    37  of   211
     total cpu time spent up to now is      565.7 secs

     Computing kpt #:    38  of   211
     total cpu time spent up to now is      582.0 secs

     Computing kpt #:    39  of   211
     total cpu time spent up to now is      597.1 secs

     Computing kpt #:    40  of   211
     total cpu time spent up to now is      613.1 secs

     Computing kpt #:    41  of   211
     total cpu time spent up to now is      627.9 secs

     Computing kpt #:    42  of   211
     total cpu time spent up to now is      642.6 secs

     Computing kpt #:    43  of   211
     total cpu time spent up to now is      657.4 secs

     Computing kpt #:    44  of   211
     total cpu time spent up to now is      671.9 secs

     Computing kpt #:    45  of   211
     total cpu time spent up to now is      686.5 secs

     Computing kpt #:    46  of   211
     total cpu time spent up to now is      700.9 secs

     Computing kpt #:    47  of   211
     total cpu time spent up to now is      714.6 secs

     Computing kpt #:    48  of   211
     total cpu time spent up to now is      729.0 secs

     Computing kpt #:    49  of   211
     total cpu time spent up to now is      742.7 secs

     Computing kpt #:    50  of   211
     total cpu time spent up to now is      756.2 secs

     Computing kpt #:    51  of   211
     total cpu time spent up to now is      769.8 secs

     Computing kpt #:    52  of   211
     total cpu time spent up to now is      784.3 secs

     Computing kpt #:    53  of   211
     total cpu time spent up to now is      798.1 secs

     Computing kpt #:    54  of   211
     total cpu time spent up to now is      812.5 secs

     Computing kpt #:    55  of   211
     total cpu time spent up to now is      827.1 secs

     Computing kpt #:    56  of   211
     total cpu time spent up to now is      841.9 secs

     Computing kpt #:    57  of   211
     total cpu time spent up to now is      856.4 secs

     Computing kpt #:    58  of   211
     total cpu time spent up to now is      870.9 secs

     Computing kpt #:    59  of   211
     total cpu time spent up to now is      885.4 secs

     Computing kpt #:    60  of   211
     total cpu time spent up to now is      899.8 secs

     Computing kpt #:    61  of   211
     total cpu time spent up to now is      914.3 secs

     Computing kpt #:    62  of   211
     total cpu time spent up to now is      928.8 secs

     Computing kpt #:    63  of   211
     total cpu time spent up to now is      943.5 secs

     Computing kpt #:    64  of   211
     total cpu time spent up to now is      959.4 secs

     Computing kpt #:    65  of   211
     total cpu time spent up to now is      975.6 secs

     Computing kpt #:    66  of   211
     total cpu time spent up to now is      990.6 secs

     Computing kpt #:    67  of   211
     total cpu time spent up to now is     1005.6 secs

     Computing kpt #:    68  of   211
     total cpu time spent up to now is     1020.6 secs

     Computing kpt #:    69  of   211
     total cpu time spent up to now is     1035.6 secs

     Computing kpt #:    70  of   211
     total cpu time spent up to now is     1050.5 secs

     Computing kpt #:    71  of   211
     total cpu time spent up to now is     1066.8 secs

     Computing kpt #:    72  of   211
     total cpu time spent up to now is     1083.5 secs

     Computing kpt #:    73  of   211
     total cpu time spent up to now is     1099.7 secs

     Computing kpt #:    74  of   211
     total cpu time spent up to now is     1115.2 secs

     Computing kpt #:    75  of   211
     total cpu time spent up to now is     1131.3 secs

     Computing kpt #:    76  of   211
     total cpu time spent up to now is     1147.5 secs

     Computing kpt #:    77  of   211
     total cpu time spent up to now is     1163.6 secs

     Computing kpt #:    78  of   211
     total cpu time spent up to now is     1179.0 secs

     Computing kpt #:    79  of   211
     total cpu time spent up to now is     1195.4 secs

     Computing kpt #:    80  of   211
     total cpu time spent up to now is     1212.1 secs

     Computing kpt #:    81  of   211
     total cpu time spent up to now is     1228.2 secs

     Computing kpt #:    82  of   211
     total cpu time spent up to now is     1243.6 secs

     Computing kpt #:    83  of   211
     total cpu time spent up to now is     1258.6 secs

     Computing kpt #:    84  of   211
     total cpu time spent up to now is     1273.9 secs

     Computing kpt #:    85  of   211
     total cpu time spent up to now is     1289.1 secs

     Computing kpt #:    86  of   211
     total cpu time spent up to now is     1304.7 secs

     Computing kpt #:    87  of   211
     total cpu time spent up to now is     1321.0 secs

     Computing kpt #:    88  of   211
     total cpu time spent up to now is     1336.5 secs

     Computing kpt #:    89  of   211
     total cpu time spent up to now is     1351.5 secs

     Computing kpt #:    90  of   211
     total cpu time spent up to now is     1367.3 secs

     Computing kpt #:    91  of   211
     total cpu time spent up to now is     1383.4 secs

     Computing kpt #:    92  of   211
     total cpu time spent up to now is     1399.0 secs

     Computing kpt #:    93  of   211
     total cpu time spent up to now is     1415.5 secs

     Computing kpt #:    94  of   211
     total cpu time spent up to now is     1431.1 secs

     Computing kpt #:    95  of   211
     total cpu time spent up to now is     1447.5 secs

     Computing kpt #:    96  of   211
     total cpu time spent up to now is     1463.1 secs

     Computing kpt #:    97  of   211
     total cpu time spent up to now is     1478.5 secs

     Computing kpt #:    98  of   211
     total cpu time spent up to now is     1494.1 secs

     Computing kpt #:    99  of   211
     total cpu time spent up to now is     1509.1 secs

     Computing kpt #:   100  of   211
     total cpu time spent up to now is     1525.4 secs

     Computing kpt #:   101  of   211
     total cpu time spent up to now is     1541.7 secs

     Computing kpt #:   102  of   211
     total cpu time spent up to now is     1558.0 secs

     Computing kpt #:   103  of   211
     total cpu time spent up to now is     1574.5 secs

     Computing kpt #:   104  of   211
     total cpu time spent up to now is     1593.8 secs

     Computing kpt #:   105  of   211
     total cpu time spent up to now is     1610.2 secs

     Computing kpt #:   106  of   211
     total cpu time spent up to now is     1626.4 secs

     Computing kpt #:   107  of   211
     total cpu time spent up to now is     1643.0 secs

     Computing kpt #:   108  of   211
     total cpu time spent up to now is     1659.7 secs

     Computing kpt #:   109  of   211
     total cpu time spent up to now is     1675.7 secs

     Computing kpt #:   110  of   211
     total cpu time spent up to now is     1690.9 secs

     Computing kpt #:   111  of   211
     total cpu time spent up to now is     1706.9 secs

     Computing kpt #:   112  of   211
     total cpu time spent up to now is     1721.8 secs

     Computing kpt #:   113  of   211
     total cpu time spent up to now is     1736.8 secs

     Computing kpt #:   114  of   211
     total cpu time spent up to now is     1751.5 secs

     Computing kpt #:   115  of   211
     total cpu time spent up to now is     1766.4 secs

     Computing kpt #:   116  of   211
     total cpu time spent up to now is     1781.3 secs

     Computing kpt #:   117  of   211
     total cpu time spent up to now is     1796.3 secs

     Computing kpt #:   118  of   211
     total cpu time spent up to now is     1811.6 secs

     Computing kpt #:   119  of   211
     total cpu time spent up to now is     1827.7 secs

     Computing kpt #:   120  of   211
     total cpu time spent up to now is     1844.2 secs

     Computing kpt #:   121  of   211
     total cpu time spent up to now is     1860.8 secs

     Computing kpt #:   122  of   211
     total cpu time spent up to now is     1877.4 secs

     Computing kpt #:   123  of   211
     total cpu time spent up to now is     1893.9 secs

     Computing kpt #:   124  of   211
     total cpu time spent up to now is     1910.4 secs

     Computing kpt #:   125  of   211
     total cpu time spent up to now is     1927.2 secs

     Computing kpt #:   126  of   211
     total cpu time spent up to now is     1943.5 secs

     Computing kpt #:   127  of   211
     total cpu time spent up to now is     1959.9 secs

     Computing kpt #:   128  of   211
     total cpu time spent up to now is     1976.4 secs

     Computing kpt #:   129  of   211
     total cpu time spent up to now is     1992.6 secs

     Computing kpt #:   130  of   211
     total cpu time spent up to now is     2009.0 secs

     Computing kpt #:   131  of   211
     total cpu time spent up to now is     2025.4 secs

     Computing kpt #:   132  of   211
     total cpu time spent up to now is     2040.7 secs

     Computing kpt #:   133  of   211
     total cpu time spent up to now is     2057.1 secs

     Computing kpt #:   134  of   211
     total cpu time spent up to now is     2073.7 secs

     Computing kpt #:   135  of   211
     total cpu time spent up to now is     2090.2 secs

     Computing kpt #:   136  of   211
     total cpu time spent up to now is     2107.2 secs

     Computing kpt #:   137  of   211
     total cpu time spent up to now is     2124.0 secs

     Computing kpt #:   138  of   211
     total cpu time spent up to now is     2140.8 secs

     Computing kpt #:   139  of   211
     total cpu time spent up to now is     2156.4 secs

     Computing kpt #:   140  of   211
     total cpu time spent up to now is     2172.8 secs

     Computing kpt #:   141  of   211
     total cpu time spent up to now is     2189.2 secs

     Computing kpt #:   142  of   211
     total cpu time spent up to now is     2205.7 secs

     Computing kpt #:   143  of   211
     total cpu time spent up to now is     2222.0 secs

     Computing kpt #:   144  of   211
     total cpu time spent up to now is     2238.3 secs

     Computing kpt #:   145  of   211
     total cpu time spent up to now is     2255.0 secs

     Computing kpt #:   146  of   211
     total cpu time spent up to now is     2271.4 secs

     Computing kpt #:   147  of   211
     total cpu time spent up to now is     2286.9 secs

     Computing kpt #:   148  of   211
     total cpu time spent up to now is     2302.6 secs

     Computing kpt #:   149  of   211
     total cpu time spent up to now is     2318.4 secs

     Computing kpt #:   150  of   211
     total cpu time spent up to now is     2335.1 secs

     Computing kpt #:   151  of   211
     total cpu time spent up to now is     2352.0 secs

     Computing kpt #:   152  of   211
     total cpu time spent up to now is     2368.7 secs

     Computing kpt #:   153  of   211
     total cpu time spent up to now is     2386.9 secs

     Computing kpt #:   154  of   211
     total cpu time spent up to now is     2406.7 secs

     Computing kpt #:   155  of   211
     total cpu time spent up to now is     2426.2 secs

     Computing kpt #:   156  of   211
     total cpu time spent up to now is     2442.9 secs

     Computing kpt #:   157  of   211
     total cpu time spent up to now is     2459.7 secs

     Computing kpt #:   158  of   211
     total cpu time spent up to now is     2476.0 secs

     Computing kpt #:   159  of   211
     total cpu time spent up to now is     2491.8 secs

     Computing kpt #:   160  of   211
     total cpu time spent up to now is     2507.0 secs

     Computing kpt #:   161  of   211
     total cpu time spent up to now is     2523.6 secs

     Computing kpt #:   162  of   211
     total cpu time spent up to now is     2539.1 secs

     Computing kpt #:   163  of   211
     total cpu time spent up to now is     2554.1 secs

     Computing kpt #:   164  of   211
     total cpu time spent up to now is     2569.0 secs

     Computing kpt #:   165  of   211
     total cpu time spent up to now is     2584.1 secs

     Computing kpt #:   166  of   211
     total cpu time spent up to now is     2599.0 secs

     Computing kpt #:   167  of   211
     total cpu time spent up to now is     2615.1 secs

     Computing kpt #:   168  of   211
     total cpu time spent up to now is     2631.5 secs

     Computing kpt #:   169  of   211
     total cpu time spent up to now is     2646.4 secs

     Computing kpt #:   170  of   211
     total cpu time spent up to now is     2661.3 secs

     Computing kpt #:   171  of   211
     total cpu time spent up to now is     2676.1 secs

     Computing kpt #:   172  of   211
     total cpu time spent up to now is     2690.7 secs

     Computing kpt #:   173  of   211
     total cpu time spent up to now is     2705.2 secs

     Computing kpt #:   174  of   211
     total cpu time spent up to now is     2719.8 secs

     Computing kpt #:   175  of   211
     total cpu time spent up to now is     2734.3 secs

     Computing kpt #:   176  of   211
     total cpu time spent up to now is     2748.8 secs

     Computing kpt #:   177  of   211
     total cpu time spent up to now is     2763.4 secs

     Computing kpt #:   178  of   211
     total cpu time spent up to now is     2778.2 secs

     Computing kpt #:   179  of   211
     total cpu time spent up to now is     2794.6 secs

     Computing kpt #:   180  of   211
     total cpu time spent up to now is     2812.2 secs

     Computing kpt #:   181  of   211
     total cpu time spent up to now is     2828.6 secs

     Computing kpt #:   182  of   211
     total cpu time spent up to now is     2844.7 secs

     Computing kpt #:   183  of   211
     total cpu time spent up to now is     2860.7 secs

     Computing kpt #:   184  of   211
     total cpu time spent up to now is     2876.9 secs

     Computing kpt #:   185  of   211
     total cpu time spent up to now is     2893.2 secs

     Computing kpt #:   186  of   211
     total cpu time spent up to now is     2909.2 secs

     Computing kpt #:   187  of   211
     total cpu time spent up to now is     2925.5 secs

     Computing kpt #:   188  of   211
     total cpu time spent up to now is     2941.9 secs

     Computing kpt #:   189  of   211
     total cpu time spent up to now is     2958.1 secs

     Computing kpt #:   190  of   211
     total cpu time spent up to now is     2974.3 secs

     Computing kpt #:   191  of   211
     total cpu time spent up to now is     2989.4 secs

     Computing kpt #:   192  of   211
     total cpu time spent up to now is     3004.2 secs

     Computing kpt #:   193  of   211
     total cpu time spent up to now is     3019.1 secs

     Computing kpt #:   194  of   211
     total cpu time spent up to now is     3035.5 secs

     Computing kpt #:   195  of   211
     total cpu time spent up to now is     3050.8 secs

     Computing kpt #:   196  of   211
     total cpu time spent up to now is     3066.8 secs

     Computing kpt #:   197  of   211
     total cpu time spent up to now is     3082.0 secs

     Computing kpt #:   198  of   211
     total cpu time spent up to now is     3097.2 secs

     Computing kpt #:   199  of   211
     total cpu time spent up to now is     3112.4 secs

     Computing kpt #:   200  of   211
     total cpu time spent up to now is     3128.5 secs

     Computing kpt #:   201  of   211
     total cpu time spent up to now is     3143.7 secs

     Computing kpt #:   202  of   211
     total cpu time spent up to now is     3158.9 secs

     Computing kpt #:   203  of   211
     total cpu time spent up to now is     3174.9 secs

     Computing kpt #:   204  of   211
     total cpu time spent up to now is     3190.9 secs

     Computing kpt #:   205  of   211
     total cpu time spent up to now is     3206.9 secs

     Computing kpt #:   206  of   211
     total cpu time spent up to now is     3223.2 secs

     Computing kpt #:   207  of   211
     total cpu time spent up to now is     3239.6 secs

     Computing kpt #:   208  of   211
     total cpu time spent up to now is     3256.2 secs

     Computing kpt #:   209  of   211
     total cpu time spent up to now is     3272.7 secs

     Computing kpt #:   210  of   211
     total cpu time spent up to now is     3289.2 secs

     Computing kpt #:   211  of   211
     total cpu time spent up to now is     3305.7 secs

     ethr =  1.28E-10,  avg # of iterations = 59.0

     total cpu time spent up to now is     3305.7 secs

     End of band structure calculation

          k = 0.0000 0.0000 0.0000 ( 24159 PWs)   bands (ev):

   -35.5040 -35.5040 -35.4974 -35.4974 -35.4754 -35.4754 -35.4688 -35.4688
   -35.3947 -35.3947 -35.3612 -35.3612 -34.0447 -34.0447 -34.0381 -34.0381
   -34.0205 -34.0205 -34.0139 -34.0139 -34.0076 -34.0076 -34.0009 -34.0009
   -33.9323 -33.9323 -33.9169 -33.9169 -33.8887 -33.8887 -28.1367 -28.1367
   -28.1321 -28.1321 -28.1281 -28.1281 -28.1236 -28.1236 -26.8975 -26.8975
   -26.8929 -26.8929 -26.8880 -26.8880 -26.8863 -26.8863 -26.8835 -26.8835
   -26.8817 -26.8817 -10.6321 -10.6321 -10.0998 -10.0998  -9.0202  -9.0202
    -6.2671  -6.2671  -4.8728  -4.8728  -0.5051  -0.5051  -0.0254  -0.0254
     0.2361   0.2361   0.4952   0.4952   0.5719   0.5719   0.6834   0.6834
     0.9295   0.9295   1.2725   1.2725   1.4246   1.4246   2.1112   2.1112
     2.7384   2.7384   3.0780   3.0780   3.2970   3.2970   4.0395   4.0395
     4.1897   4.1897   6.2097   6.2097   6.4019   6.4019   6.9915   6.9915
     7.5455   7.5455   7.6161   7.6161   7.8408   7.8408   8.3980   8.3980
     8.6321   8.6321   8.7615   8.7615   8.8808   8.8808   9.1644   9.1644
     9.6104   9.6104   9.7152   9.7152  10.0335  10.0335  10.1277  10.1277
    10.5357  10.5357  11.0549  11.0549  11.3350  11.3350  11.5077  11.5077
    11.5493  11.5493  11.7044  11.7044  12.8171  12.8171  12.8667  12.8667
    13.8823  13.8823  14.1327  14.1327  14.1507  14.1507  14.2655  14.2655
    14.4108  14.4108  15.0815  15.0815  15.7448  15.7448  16.0061  16.0061
    16.0574  16.0574  16.0856  16.0856  16.2552  16.2552  16.3571  16.3571
    16.6907  16.6907  17.0787  17.0787  17.1016  17.1016  17.1369  17.1369
    17.3457  17.3457  17.3528  17.3528  17.4463  17.4463  17.4761  17.4761
    17.5457  17.5457  17.6373  17.6373  17.6995  17.6995  17.8157  17.8157
    17.8903  17.8903  18.1565  18.1565  18.9956  18.9956  19.0761  19.0761
    19.1450  19.1450  19.2611  19.2611  19.3127  19.3127  19.4124  19.4124

          k = 0.0071 0.0041 0.0000 ( 24167 PWs)   bands (ev):

   -35.5040 -35.5040 -35.4974 -35.4974 -35.4754 -35.4754 -35.4688 -35.4688
   -35.3947 -35.3947 -35.3612 -35.3612 -34.0447 -34.0447 -34.0381 -34.0381
   -34.0205 -34.0205 -34.0139 -34.0139 -34.0076 -34.0076 -34.0009 -34.0009
   -33.9323 -33.9323 -33.9169 -33.9169 -33.8887 -33.8887 -28.1367 -28.1367
   -28.1321 -28.1321 -28.1281 -28.1281 -28.1236 -28.1236 -26.8975 -26.8975
   -26.8929 -26.8929 -26.8880 -26.8880 -26.8863 -26.8863 -26.8835 -26.8835
   -26.8817 -26.8817 -10.6317 -10.6317 -10.0994 -10.0994  -9.0199  -9.0199
    -6.2671  -6.2671  -4.8736  -4.8735  -0.5058  -0.5057  -0.0318  -0.0313
     0.2368   0.2373   0.4925   0.4929   0.5575   0.5585   0.6926   0.6938
     0.9324   0.9327   1.2691   1.2693   1.4277   1.4278   2.1173   2.1174
     2.7380   2.7382   3.0719   3.0722   3.3035   3.3040   4.0418   4.0419
     4.1893   4.1894   6.2105   6.2106   6.4020   6.4020   6.9917   6.9917
     7.5427   7.5427   7.6158   7.6158   7.8411   7.8411   8.4010   8.4010
     8.6306   8.6310   8.7595   8.7602   8.8808   8.8811   9.1633   9.1633
     9.6162   9.6162   9.7175   9.7175  10.0321  10.0321  10.1302  10.1302
    10.5380  10.5380  11.0542  11.0542  11.3284  11.3287  11.4714  11.4719
    11.5886  11.5889  11.7122  11.7123  12.8163  12.8163  12.8681  12.8681
    13.8692  13.8692  14.1123  14.1125  14.1657  14.1660  14.2791  14.2792
    14.4146  14.4147  15.0846  15.0846  15.7243  15.7244  15.9816  15.9818
    16.0448  16.0449  16.1262  16.1265  16.2670  16.2671  16.3584  16.3584
    16.6933  16.6934  16.9887  16.9887  17.0865  17.0865  17.2192  17.2192
    17.3080  17.3081  17.3422  17.3423  17.4067  17.4068  17.5401  17.5402
    17.5599  17.5600  17.6372  17.6373  17.7057  17.7057  17.8347  17.8348
    17.9011  17.9012  18.1678  18.1678  18.9346  18.9347  19.0348  19.0349
    19.1888  19.1889  19.2434  19.2435  19.3295  19.3295  19.3850  19.3851

          k = 0.0143 0.0082 0.0000 ( 24161 PWs)   bands (ev):

   -35.5040 -35.5040 -35.4974 -35.4974 -35.4754 -35.4754 -35.4688 -35.4688
   -35.3947 -35.3947 -35.3612 -35.3612 -34.0447 -34.0447 -34.0381 -34.0381
   -34.0205 -34.0205 -34.0139 -34.0139 -34.0076 -34.0076 -34.0009 -34.0009
   -33.9323 -33.9323 -33.9169 -33.9169 -33.8886 -33.8886 -28.1367 -28.1367
   -28.1321 -28.1321 -28.1281 -28.1281 -28.1236 -28.1236 -26.8975 -26.8975
   -26.8929 -26.8929 -26.8880 -26.8880 -26.8863 -26.8863 -26.8835 -26.8835
   -26.8817 -26.8817 -10.6304 -10.6304 -10.0982 -10.0982  -9.0192  -9.0192
    -6.2673  -6.2673  -4.8759  -4.8759  -0.5080  -0.5079  -0.0499  -0.0490
     0.2389   0.2399   0.4820   0.4831   0.5289   0.5302   0.7115   0.7133
     0.9412   0.9418   1.2592   1.2596   1.4373   1.4376   2.1350   2.1354
     2.7369   2.7372   3.0566   3.0571   3.3214   3.3221   4.0486   4.0489
     4.1882   4.1884   6.2129   6.2129   6.4025   6.4025   6.9923   6.9923
     7.5344   7.5344   7.6151   7.6152   7.8422   7.8422   8.4098   8.4098
     8.6264   8.6271   8.7538   8.7551   8.8820   8.8825   9.1601   9.1601
     9.6328   9.6328   9.7243   9.7243  10.0280  10.0281  10.1378  10.1379
    10.5452  10.5452  11.0518  11.0519  11.3102  11.3107  11.4257  11.4262
    11.6445  11.6448  11.7346  11.7349  12.8138  12.8139  12.8724  12.8724
    13.8349  13.8350  14.0760  14.0762  14.1911  14.1914  14.3093  14.3096
    14.4276  14.4277  15.0922  15.0922  15.6732  15.6734  15.9421  15.9423
    16.0261  16.0262  16.1912  16.1914  16.2945  16.2946  16.3649  16.3650
    16.7008  16.7009  16.8748  16.8749  17.0413  17.0414  17.2355  17.2355
    17.2568  17.2568  17.3683  17.3684  17.4030  17.4030  17.5218  17.5219
    17.6096  17.6096  17.6833  17.6833  17.7319  17.7319  17.8846  17.8847
    17.9345  17.9346  18.1984  18.1985  18.8283  18.8283  18.9510  18.9510
    19.1465  19.1466  19.3083  19.3084  19.3288  19.3288  19.3803  19.3804

          k = 0.0214 0.0124 0.0000 ( 24167 PWs)   bands (ev):

   -35.5040 -35.5040 -35.4974 -35.4974 -35.4754 -35.4754 -35.4688 -35.4688
   -35.3947 -35.3947 -35.3612 -35.3612 -34.0447 -34.0447 -34.0381 -34.0381
   -34.0205 -34.0205 -34.0139 -34.0139 -34.0076 -34.0076 -34.0009 -34.0009
   -33.9323 -33.9323 -33.9169 -33.9169 -33.8886 -33.8886 -28.1367 -28.1367
   -28.1321 -28.1321 -28.1281 -28.1281 -28.1236 -28.1236 -26.8975 -26.8975
   -26.8929 -26.8929 -26.8880 -26.8880 -26.8863 -26.8863 -26.8835 -26.8835
   -26.8817 -26.8817 -10.6282 -10.6282 -10.0962 -10.0962  -9.0180  -9.0180
    -6.2677  -6.2677  -4.8798  -4.8798  -0.5116  -0.5115  -0.0779  -0.0767
     0.2406   0.2420   0.4546   0.4565   0.5065   0.5079   0.7288   0.7307
     0.9550   0.9558   1.2444   1.2449   1.4542   1.4545   2.1624   2.1629
     2.7349   2.7354   3.0373   3.0379   3.3458   3.3468   4.0597   4.0601
     4.1868   4.1870   6.2168   6.2169   6.4033   6.4033   6.9931   6.9931
     7.5203   7.5203   7.6146   7.6146   7.8444   7.8444   8.4237   8.4237
     8.6189   8.6200   8.7442   8.7459   8.8866   8.8872   9.1555   9.1555
     9.6576   9.6576   9.7353   9.7353  10.0223  10.0223  10.1504  10.1505
    10.5572  10.5573  11.0464  11.0465  11.2838  11.2844  11.3860  11.3866
    11.7005  11.7011  11.7698  11.7704  12.8102  12.8103  12.8790  12.8790
    13.7887  13.7888  14.0345  14.0346  14.2166  14.2169  14.3450  14.3452
    14.4521  14.4523  15.0993  15.0994  15.6115  15.6116  15.9007  15.9008
    16.0042  16.0043  16.2521  16.2524  16.3202  16.3203  16.3860  16.3861
    16.7017  16.7019  16.7783  16.7786  16.9592  16.9592  17.1800  17.1801
    17.2275  17.2275  17.3699  17.3699  17.4555  17.4556  17.5014  17.5015
    17.6631  17.6631  17.6842  17.6842  17.8300  17.8300  17.9558  17.9560
    17.9874  17.9876  18.2421  18.2422  18.7181  18.7181  18.8466  18.8466
    19.0819  19.0820  19.2870  19.2870  19.3482  19.3482  19.3985  19.3985

          k = 0.0286 0.0165 0.0000 ( 24161 PWs)   bands (ev):

   -35.5040 -35.5040 -35.4974 -35.4974 -35.4754 -35.4754 -35.4688 -35.4688
   -35.3947 -35.3947 -35.3612 -35.3612 -34.0447 -34.0447 -34.0381 -34.0381
   -34.0205 -34.0205 -34.0139 -34.0139 -34.0076 -34.0076 -34.0009 -34.0009
   -33.9323 -33.9323 -33.9169 -33.9169 -33.8886 -33.8886 -28.1367 -28.1367
   -28.1321 -28.1321 -28.1281 -28.1281 -28.1236 -28.1236 -26.8975 -26.8975
   -26.8929 -26.8929 -26.8880 -26.8880 -26.8863 -26.8862 -26.8835 -26.8834
   -26.8817 -26.8817 -10.6252 -10.6252 -10.0935 -10.0935  -9.0163  -9.0163
    -6.2681  -6.2681  -4.8852  -4.8852  -0.5168  -0.5167  -0.1139  -0.1124
     0.2403   0.2418   0.4121   0.4143   0.4942   0.4954   0.7404   0.7424
     0.9716   0.9726   1.2276   1.2283   1.4778   1.4782   2.1967   2.1973
     2.7321   2.7326   3.0188   3.0195   3.3732   3.3743   4.0742   4.0747
     4.1858   4.1861   6.2223   6.2224   6.4043   6.4044   6.9942   6.9942
     7.5010   7.5010   7.6144   7.6145   7.8480   7.8481   8.4417   8.4417
     8.6072   8.6085   8.7322   8.7341   8.8961   8.8967   9.1501   9.1501
     9.6870   9.6871   9.7501   9.7502  10.0166  10.0166  10.1680  10.1681
    10.5744  10.5745  11.0360  11.0362  11.2538  11.2544  11.3540  11.3545
    11.7542  11.7549  11.8159  11.8166  12.8058  12.8058  12.8876  12.8876
    13.7368  13.7369  13.9913  13.9914  14.2361  14.2363  14.3838  14.3841
    14.4877  14.4879  15.0973  15.0974  15.5572  15.5574  15.8581  15.8582
    15.9791  15.9792  16.2897  16.2899  16.3395  16.3395  16.4266  16.4268
    16.6335  16.6337  16.7628  16.7629  16.8653  16.8653  17.1218  17.1218
    17.2086  17.2086  17.3342  17.3342  17.4262  17.4262  17.5860  17.5860
    17.6651  17.6652  17.7445  17.7445  17.9293  17.9293  18.0437  18.0439
    18.0550  18.0552  18.2911  18.2911  18.6165  18.6165  18.7332  18.7333
    19.0169  19.0169  19.2400  19.2400  19.3257  19.3257  19.3909  19.3909

          k = 0.0357 0.0206 0.0000 ( 24162 PWs)   bands (ev):

   -35.5040 -35.5040 -35.4974 -35.4974 -35.4754 -35.4754 -35.4688 -35.4688
   -35.3947 -35.3947 -35.3612 -35.3612 -34.0447 -34.0447 -34.0381 -34.0381
   -34.0205 -34.0205 -34.0139 -34.0139 -34.0076 -34.0076 -34.0009 -34.0009
   -33.9323 -33.9323 -33.9169 -33.9169 -33.8886 -33.8886 -28.1367 -28.1367
   -28.1321 -28.1321 -28.1281 -28.1281 -28.1236 -28.1236 -26.8975 -26.8974
   -26.8929 -26.8929 -26.8880 -26.8880 -26.8863 -26.8862 -26.8835 -26.8834
   -26.8817 -26.8817 -10.6213 -10.6213 -10.0899 -10.0899  -9.0142  -9.0142
    -6.2687  -6.2687  -4.8922  -4.8922  -0.5236  -0.5234  -0.1562  -0.1545
     0.2364   0.2380   0.3642   0.3665   0.4844   0.4853   0.7454   0.7474
     0.9876   0.9888   1.2137   1.2146   1.5068   1.5074   2.2346   2.2354
     2.7289   2.7294   3.0045   3.0051   3.4011   3.4024   4.0905   4.0912
     4.1867   4.1872   6.2293   6.2294   6.4057   6.4058   6.9952   6.9952
     7.4770   7.4771   7.6147   7.6148   7.8535   7.8535   8.4623   8.4623
     8.5903   8.5917   8.7207   8.7225   8.9105   8.9110   9.1446   9.1446
     9.7166   9.7167   9.7681   9.7683  10.0135  10.0136  10.1906  10.1907
    10.5970  10.5971  11.0187  11.0189  11.2248  11.2253  11.3296  11.3300
    11.8054  11.8062  11.8696  11.8703  12.8006  12.8007  12.8982  12.8982
    13.6828  13.6830  13.9482  13.9482  14.2487  14.2489  14.4260  14.4262
    14.5306  14.5308  15.0756  15.0757  15.5250  15.5251  15.8157  15.8158
    15.9495  15.9496  16.2889  16.2889  16.3602  16.3603  16.4758  16.4759
    16.5488  16.5489  16.7204  16.7205  16.8414  16.8415  17.0681  17.0681
    17.1833  17.1833  17.2954  17.2954  17.3845  17.3846  17.6581  17.6583
    17.6814  17.6816  17.8298  17.8299  18.0150  18.0150  18.1162  18.1162
    18.1552  18.1552  18.3324  18.3324  18.5436  18.5437  18.6173  18.6174
    18.9528  18.9528  19.1897  19.1897  19.2872  19.2872  19.3520  19.3520

          k = 0.0429 0.0247 0.0000 ( 24153 PWs)   bands (ev):

   -35.5040 -35.5040 -35.4974 -35.4974 -35.4754 -35.4754 -35.4688 -35.4688
   -35.3947 -35.3947 -35.3612 -35.3612 -34.0447 -34.0447 -34.0381 -34.0381
   -34.0205 -34.0205 -34.0139 -34.0139 -34.0076 -34.0076 -34.0009 -34.0009
   -33.9323 -33.9323 -33.9169 -33.9169 -33.8886 -33.8886 -28.1367 -28.1366
   -28.1321 -28.1321 -28.1281 -28.1281 -28.1236 -28.1236 -26.8974 -26.8974
   -26.8929 -26.8929 -26.8880 -26.8880 -26.8863 -26.8862 -26.8835 -26.8834
   -26.8817 -26.8817 -10.6166 -10.6166 -10.0856 -10.0856  -9.0115  -9.0115
    -6.2695  -6.2695  -4.9008  -4.9007  -0.5322  -0.5320  -0.2036  -0.2017
     0.2280   0.2294   0.3151   0.3176   0.4742   0.4750   0.7435   0.7455
     0.9993   1.0006   1.2080   1.2090   1.5395   1.5401   2.2730   2.2739
     2.7266   2.7270   2.9964   2.9970   3.4283   3.4298   4.1059   4.1067
     4.1923   4.1928   6.2378   6.2379   6.4073   6.4074   6.9959   6.9959
     7.4497   7.4498   7.6156   7.6156   7.8609   7.8610   8.4840   8.4840
     8.5684   8.5697   8.7122   8.7138   8.9290   8.9294   9.1395   9.1396
     9.7412   9.7413   9.7889   9.7891  10.0170  10.0171  10.2180  10.2181
    10.6250  10.6251  10.9937  10.9940  11.1992  11.1995  11.3128  11.3130
    11.8555  11.8563  11.9272  11.9279  12.7949  12.7950  12.9105  12.9106
    13.6292  13.6293  13.9058  13.9058  14.2574  14.2575  14.4700  14.4701
    14.5760  14.5762  15.0303  15.0304  15.5202  15.5203  15.7750  15.7751
    15.9141  15.9141  16.2536  16.2536  16.3693  16.3694  16.4770  16.4770
    16.5312  16.5312  16.6354  16.6354  16.8832  16.8833  17.0253  17.0254
    17.1481  17.1481  17.2555  17.2555  17.3453  17.3454  17.6702  17.6703
    17.7654  17.7655  17.9204  17.9205  18.0838  18.0838  18.1643  18.1643
    18.2649  18.2649  18.3568  18.3568  18.4930  18.4932  18.5473  18.5474
    18.8900  18.8900  19.1388  19.1388  19.2439  19.2439  19.3038  19.3039

          k = 0.0500 0.0289 0.0000 ( 24152 PWs)   bands (ev):

   -35.5040 -35.5040 -35.4974 -35.4974 -35.4754 -35.4754 -35.4688 -35.4688
   -35.3947 -35.3947 -35.3612 -35.3612 -34.0447 -34.0447 -34.0381 -34.0381
   -34.0205 -34.0205 -34.0139 -34.0139 -34.0076 -34.0076 -34.0009 -34.0009
   -33.9323 -33.9323 -33.9169 -33.9169 -33.8886 -33.8886 -28.1367 -28.1366
   -28.1321 -28.1321 -28.1281 -28.1281 -28.1236 -28.1236 -26.8974 -26.8974
   -26.8928 -26.8928 -26.8880 -26.8880 -26.8863 -26.8862 -26.8835 -26.8835
   -26.8817 -26.8817 -10.6110 -10.6110 -10.0805 -10.0805  -9.0084  -9.0084
    -6.2704  -6.2704  -4.9109  -4.9108  -0.5427  -0.5426  -0.2550  -0.2529
     0.2132   0.2143   0.2680   0.2706   0.4628   0.4633   0.7346   0.7364
     1.0050   1.0062   1.2140   1.2149   1.5737   1.5743   2.3085   2.3097
     2.7276   2.7279   2.9954   2.9959   3.4543   3.4558   4.1168   4.1176
     4.2061   4.2066   6.2476   6.2478   6.4091   6.4092   6.9958   6.9959
     7.4204   7.4205   7.6167   7.6168   7.8704   7.8704   8.5019   8.5020
     8.5465   8.5476   8.7075   8.7089   8.9509   8.9512   9.1354   9.1354
     9.7557   9.7558   9.8121   9.8123  10.0310  10.0312  10.2499  10.2500
    10.6587  10.6588  10.9626  10.9629  11.1771  11.1773  11.3032  11.3033
    11.9057  11.9064  11.9857  11.9863  12.7888  12.7889  12.9245  12.9246
    13.5777  13.5778  13.8646  13.8647  14.2653  14.2654  14.5133  14.5134
    14.6182  14.6184  14.9699  14.9701  15.5355  15.5356  15.7375  15.7376
    15.8717  15.8718  16.1900  16.1901  16.3689  16.3690  16.4076  16.4076
    16.5622  16.5624  16.5994  16.5995  16.9078  16.9079  17.0169  17.0170
    17.1072  17.1073  17.2178  17.2178  17.3071  17.3071  17.6958  17.6958
    17.8436  17.8437  18.0085  18.0085  18.0923  18.0923  18.2043  18.2043
    18.3568  18.3569  18.3877  18.3878  18.4186  18.4187  18.6023  18.6023
    18.8293  18.8293  19.0892  19.0892  19.2007  19.2007  19.2539  19.2540

          k = 0.0571 0.0330 0.0000 ( 24161 PWs)   bands (ev):

   -35.5040 -35.5040 -35.4974 -35.4974 -35.4754 -35.4754 -35.4688 -35.4688
   -35.3947 -35.3947 -35.3611 -35.3611 -34.0447 -34.0447 -34.0381 -34.0381
   -34.0205 -34.0205 -34.0139 -34.0139 -34.0076 -34.0076 -34.0009 -34.0009
   -33.9323 -33.9323 -33.9169 -33.9169 -33.8886 -33.8886 -28.1366 -28.1366
   -28.1321 -28.1321 -28.1281 -28.1281 -28.1236 -28.1236 -26.8974 -26.8974
   -26.8928 -26.8928 -26.8880 -26.8880 -26.8863 -26.8862 -26.8835 -26.8835
   -26.8817 -26.8817 -10.6046 -10.6046 -10.0746 -10.0746  -9.0049  -9.0049
    -6.2715  -6.2715  -4.9225  -4.9225  -0.5555  -0.5554  -0.3092  -0.3070
     0.1867   0.1875   0.2293   0.2316   0.4495   0.4498   0.7187   0.7204
     1.0060   1.0071   1.2311   1.2320   1.6073   1.6079   2.3385   2.3398
     2.7348   2.7350   3.0018   3.0021   3.4786   3.4802   4.1218   4.1227
     4.2291   4.2296   6.2588   6.2590   6.4110   6.4112   6.9946   6.9946
     7.3906   7.3906   7.6181   7.6182   7.8819   7.8819   8.4951   8.4957
     8.5467   8.5472   8.7059   8.7071   8.9753   8.9755   9.1327   9.1328
     9.7579   9.7580   9.8374   9.8375  10.0573  10.0575  10.2856  10.2857
    10.6978  10.6980  10.9280  10.9284  11.1579  11.1581  11.2998  11.3000
    11.9562  11.9568  12.0430  12.0436  12.7825  12.7825  12.9400  12.9400
    13.5298  13.5299  13.8250  13.8251  14.2742  14.2743  14.5530  14.5531
    14.6464  14.6466  14.9138  14.9139  15.5557  15.5558  15.7056  15.7057
    15.8221  15.8222  16.1185  16.1185  16.3043  16.3043  16.3778  16.3779
    16.5587  16.5588  16.6303  16.6304  16.8938  16.8939  17.0373  17.0376
    17.0747  17.0749  17.1912  17.1913  17.2726  17.2727  17.7276  17.7276
    17.9096  17.9097  18.0331  18.0331  18.0939  18.0940  18.2586  18.2587
    18.2869  18.2870  18.4768  18.4769  18.4970  18.4970  18.6846  18.6846
    18.7740  18.7740  19.0423  19.0424  19.1615  19.1615  19.2061  19.2062

          k = 0.0643 0.0371 0.0000 ( 24168 PWs)   bands (ev):

   -35.5040 -35.5040 -35.4974 -35.4974 -35.4754 -35.4754 -35.4688 -35.4688
   -35.3947 -35.3947 -35.3611 -35.3611 -34.0447 -34.0447 -34.0381 -34.0380
   -34.0205 -34.0205 -34.0139 -34.0139 -34.0076 -34.0076 -34.0009 -34.0009
   -33.9323 -33.9323 -33.9169 -33.9169 -33.8886 -33.8886 -28.1366 -28.1366
   -28.1321 -28.1321 -28.1281 -28.1281 -28.1236 -28.1236 -26.8974 -26.8974
   -26.8928 -26.8928 -26.8881 -26.8880 -26.8863 -26.8862 -26.8835 -26.8835
   -26.8817 -26.8817 -10.5973 -10.5973 -10.0679 -10.0679  -9.0008  -9.0008
    -6.2728  -6.2728  -4.9357  -4.9357  -0.5713  -0.5712  -0.3652  -0.3627
     0.1451   0.1464   0.2027   0.2046   0.4335   0.4340   0.6968   0.6983
     1.0058   1.0068   1.2563   1.2570   1.6380   1.6386   2.3617   2.3631
     2.7502   2.7507   3.0149   3.0152   3.5014   3.5031   4.1231   4.1239
     4.2591   4.2596   6.2713   6.2715   6.4131   6.4133   6.9914   6.9915
     7.3616   7.3617   7.6197   7.6197   7.8953   7.8953   8.4675   8.4681
     8.5664   8.5666   8.7066   8.7075   9.0015   9.0018   9.1321   9.1322
     9.7495   9.7496   9.8640   9.8640  10.0945  10.0947  10.3241  10.3242
    10.7416  10.7419  10.8934  10.8939  11.1414  11.1416  11.3013  11.3014
    12.0068  12.0074  12.0979  12.0984  12.7762  12.7762  12.9565  12.9565
    13.4871  13.4872  13.7874  13.7875  14.2847  14.2848  14.5818  14.5820
    14.6447  14.6449  14.8901  14.8902  15.5604  15.5605  15.6833  15.6835
    15.7676  15.7678  16.0580  16.0580  16.1999  16.1999  16.3806  16.3807
    16.5626  16.5627  16.6517  16.6518  16.8802  16.8803  17.0076  17.0077
    17.0745  17.0746  17.1782  17.1783  17.2656  17.2656  17.7401  17.7402
    17.9350  17.9350  18.0259  18.0260  18.0966  18.0967  18.2477  18.2478
    18.3486  18.3487  18.5647  18.5648  18.5924  18.5925  18.7088  18.7088
    18.7906  18.7907  19.0004  19.0004  19.1290  19.1291  19.1691  19.1692

          k = 0.0714 0.0412 0.0000 ( 24166 PWs)   bands (ev):

   -35.5040 -35.5040 -35.4974 -35.4973 -35.4754 -35.4754 -35.4688 -35.4688
   -35.3947 -35.3947 -35.3611 -35.3611 -34.0447 -34.0447 -34.0380 -34.0380
   -34.0205 -34.0205 -34.0139 -34.0139 -34.0076 -34.0076 -34.0009 -34.0009
   -33.9323 -33.9323 -33.9169 -33.9169 -33.8886 -33.8886 -28.1366 -28.1366
   -28.1321 -28.1320 -28.1282 -28.1281 -28.1236 -28.1236 -26.8974 -26.8974
   -26.8928 -26.8928 -26.8881 -26.8880 -26.8863 -26.8862 -26.8835 -26.8835
[...]
   -35.3947 -35.3947 -35.3611 -35.3611 -34.0447 -34.0447 -34.0381 -34.0380
   -34.0205 -34.0205 -34.0139 -34.0139 -34.0076 -34.0076 -34.0009 -34.0009
   -33.9323 -33.9323 -33.9169 -33.9169 -33.8886 -33.8886 -28.1366 -28.1366
   -28.1321 -28.1320 -28.1282 -28.1281 -28.1236 -28.1236 -26.8974 -26.8974
   -26.8928 -26.8928 -26.8880 -26.8880 -26.8863 -26.8862 -26.8835 -26.8835
   -26.8818 -26.8817 -10.5947 -10.5947 -10.0655 -10.0655  -8.9991  -8.9991
    -6.2722  -6.2722  -4.9367  -4.9367  -0.5700  -0.5699  -0.3501  -0.3478
     0.0787   0.0806   0.2584   0.2598   0.3959   0.3970   0.6697   0.6713
     1.0100   1.0103   1.2407   1.2414   1.6427   1.6431   2.3682   2.3694
     2.7597   2.7602   3.0069   3.0077   3.5104   3.5120   4.1145   4.1152
     4.2878   4.2882   6.2756   6.2758   6.4164   6.4166   6.9943   6.9944
     7.4034   7.4034   7.6095   7.6096   7.8202   7.8203   8.5217   8.5230
     8.5825   8.5826   8.6580   8.6595   8.9588   8.9591   9.1895   9.1896
     9.7634   9.7635   9.7915   9.7917  10.1637  10.1639  10.3504  10.3505
    10.7673  10.7676  10.8585  10.8590  11.1218  11.1220  11.3512  11.3514
    11.9699  11.9703  12.1368  12.1371  12.8033  12.8033  12.9880  12.9881
    13.4693  13.4695  13.7141  13.7142  14.3365  14.3368  14.4552  14.4556
    14.7750  14.7753  14.9369  14.9371  15.3462  15.3463  15.7958  15.7959
    15.9377  15.9379  16.0731  16.0732  16.2886  16.2886  16.3328  16.3329
    16.5094  16.5094  16.5389  16.5390  16.7136  16.7137  16.7662  16.7663
    17.2118  17.2120  17.3770  17.3770  17.5148  17.5149  17.5934  17.5935
    17.6842  17.6842  17.9464  17.9465  18.1365  18.1367  18.2109  18.2110
    18.3902  18.3904  18.4700  18.4701  18.6148  18.6148  18.7171  18.7172
    18.8267  18.8267  19.0910  19.0911  19.3631  19.3631  19.4824  19.4825

          k = 0.0333 0.0585 0.0000 ( 24169 PWs)   bands (ev):

   -35.5040 -35.5040 -35.4974 -35.4974 -35.4754 -35.4754 -35.4688 -35.4688
   -35.3947 -35.3947 -35.3611 -35.3611 -34.0447 -34.0447 -34.0381 -34.0381
   -34.0205 -34.0205 -34.0139 -34.0139 -34.0076 -34.0076 -34.0009 -34.0009
   -33.9323 -33.9323 -33.9169 -33.9169 -33.8886 -33.8886 -28.1366 -28.1366
   -28.1321 -28.1321 -28.1281 -28.1281 -28.1236 -28.1236 -26.8974 -26.8974
   -26.8928 -26.8928 -26.8880 -26.8880 -26.8863 -26.8862 -26.8835 -26.8835
   -26.8818 -26.8817 -10.6035 -10.6035 -10.0735 -10.0735  -9.0040  -9.0040
    -6.2709  -6.2709  -4.9218  -4.9217  -0.5529  -0.5529  -0.2901  -0.2880
     0.1374   0.1389   0.2848   0.2857   0.4150   0.4161   0.6934   0.6950
     1.0208   1.0212   1.2098   1.2106   1.6114   1.6117   2.3307   2.3317
     2.7576   2.7581   2.9871   2.9876   3.4795   3.4811   4.1146   4.1154
     4.2500   4.2504   6.2607   6.2609   6.4132   6.4134   6.9960   6.9961
     7.4379   7.4379   7.6117   7.6118   7.8061   7.8062   8.5302   8.5308
     8.5791   8.5805   8.6641   8.6662   8.9384   8.9387   9.1742   9.1743
     9.7540   9.7541   9.7853   9.7856  10.1096  10.1098  10.3053  10.3055
    10.7239  10.7241  10.8915  10.8919  11.1302  11.1305  11.3607  11.3609
    11.9052  11.9056  12.0781  12.0784  12.8017  12.8017  12.9624  12.9625
    13.5341  13.5342  13.7608  13.7609  14.3203  14.3207  14.4182  14.4186
    14.7481  14.7484  14.9925  14.9927  15.4028  15.4028  15.7540  15.7542
    15.9941  15.9943  16.1137  16.1139  16.3517  16.3518  16.3925  16.3926
    16.5164  16.5164  16.5723  16.5724  16.7595  16.7595  16.8239  16.8240
    17.1389  17.1391  17.3703  17.3703  17.4811  17.4812  17.5518  17.5519
    17.6756  17.6756  17.9541  17.9541  18.1457  18.1458  18.2285  18.2286
    18.3784  18.3785  18.4786  18.4787  18.6265  18.6266  18.6836  18.6837
    18.7682  18.7683  18.9630  18.9630  19.3553  19.3553  19.4649  19.4650

          k = 0.0286 0.0501 0.0000 ( 24159 PWs)   bands (ev):

   -35.5040 -35.5040 -35.4974 -35.4974 -35.4754 -35.4754 -35.4688 -35.4688
   -35.3947 -35.3947 -35.3612 -35.3612 -34.0447 -34.0447 -34.0381 -34.0381
   -34.0205 -34.0205 -34.0139 -34.0139 -34.0076 -34.0076 -34.0009 -34.0009
   -33.9323 -33.9323 -33.9169 -33.9169 -33.8886 -33.8886 -28.1367 -28.1366
   -28.1321 -28.1321 -28.1281 -28.1281 -28.1236 -28.1236 -26.8974 -26.8974
   -26.8928 -26.8928 -26.8880 -26.8880 -26.8863 -26.8862 -26.8835 -26.8834
   -26.8818 -26.8817 -10.6111 -10.6111 -10.0804 -10.0804  -9.0083  -9.0083
    -6.2698  -6.2698  -4.9088  -4.9087  -0.5393  -0.5392  -0.2322  -0.2304
     0.1872   0.1881   0.3120   0.3126   0.4347   0.4359   0.7131   0.7147
     1.0211   1.0218   1.1940   1.1949   1.5745   1.5748   2.2921   2.2929
     2.7551   2.7557   2.9789   2.9792   3.4494   3.4511   4.1106   4.1115
     4.2197   4.2200   6.2476   6.2477   6.4103   6.4104   6.9963   6.9964
     7.4691   7.4691   7.6134   7.6135   7.7991   7.7992   8.5181   8.5182
     8.5850   8.5869   8.6813   8.6835   8.9184   8.9187   9.1639   9.1640
     9.7318   9.7319   9.7851   9.7853  10.0681  10.0682  10.2624  10.2626
    10.6765  10.6766  10.9338  10.9341  11.1479  11.1483  11.3705  11.3708
    11.8421  11.8425  12.0158  12.0161  12.8026  12.8026  12.9391  12.9391
    13.5965  13.5966  13.8174  13.8175  14.2994  14.2999  14.3833  14.3837
    14.6971  14.6973  15.0535  15.0537  15.4598  15.4599  15.7331  15.7332
    16.0116  16.0118  16.1669  16.1671  16.3973  16.3976  16.4235  16.4238
    16.5143  16.5143  16.6437  16.6437  16.8244  16.8245  16.8881  16.8882
    17.0921  17.0922  17.3654  17.3655  17.4464  17.4465  17.5149  17.5150
    17.6670  17.6671  17.9147  17.9148  18.0547  18.0547  18.2729  18.2729
    18.3735  18.3735  18.4798  18.4798  18.5535  18.5535  18.6989  18.6990
    18.8293  18.8293  18.8961  18.8961  19.3518  19.3518  19.4483  19.4484

          k = 0.0238 0.0418 0.0000 ( 24154 PWs)   bands (ev):

   -35.5040 -35.5040 -35.4974 -35.4974 -35.4754 -35.4754 -35.4688 -35.4688
   -35.3947 -35.3947 -35.3612 -35.3612 -34.0447 -34.0447 -34.0381 -34.0381
   -34.0205 -34.0205 -34.0139 -34.0139 -34.0076 -34.0076 -34.0009 -34.0009
   -33.9323 -33.9323 -33.9169 -33.9169 -33.8886 -33.8886 -28.1367 -28.1366
   -28.1321 -28.1321 -28.1281 -28.1281 -28.1236 -28.1236 -26.8974 -26.8974
   -26.8929 -26.8929 -26.8880 -26.8880 -26.8863 -26.8862 -26.8835 -26.8834
   -26.8818 -26.8817 -10.6175 -10.6175 -10.0863 -10.0863  -9.0119  -9.0119
    -6.2689  -6.2689  -4.8978  -4.8978  -0.5283  -0.5282  -0.1782  -0.1766
     0.2205   0.2215   0.3475   0.3490   0.4540   0.4553   0.7264   0.7281
     1.0083   1.0090   1.1969   1.1978   1.5353   1.5356   2.2519   2.2525
     2.7517   2.7523   2.9834   2.9837   3.4191   3.4207   4.1000   4.1009
     4.2002   4.2006   6.2362   6.2363   6.4078   6.4079   6.9957   6.9958
     7.4955   7.4956   7.6144   7.6145   7.7995   7.7996   8.4930   8.4930
     8.5982   8.6000   8.7019   8.7041   8.9013   8.9018   9.1581   9.1582
     9.7065   9.7065   9.7778   9.7780  10.0419  10.0420  10.2237  10.2238
    10.6339  10.6340  10.9728  10.9731  11.1763  11.1767  11.3817  11.3820
    11.7816  11.7819  11.9510  11.9513  12.8049  12.8050  12.9185  12.9185
    13.6569  13.6570  13.8813  13.8813  14.2752  14.2757  14.3522  14.3527
    14.6355  14.6357  15.1015  15.1016  15.5052  15.5053  15.7526  15.7527
    16.0102  16.0104  16.2113  16.2114  16.3745  16.3746  16.4590  16.4591
    16.5420  16.5420  16.7440  16.7441  16.8792  16.8794  16.9180  16.9182
    17.1225  17.1226  17.3626  17.3627  17.4132  17.4133  17.4837  17.4838
    17.6591  17.6591  17.8632  17.8633  17.9312  17.9313  18.2390  18.2390
    18.3034  18.3035  18.4867  18.4868  18.5972  18.5973  18.6666  18.6667
    18.8610  18.8610  18.9943  18.9944  19.3532  19.3532  19.4301  19.4301

          k = 0.0190 0.0334 0.0000 ( 24163 PWs)   bands (ev):

   -35.5040 -35.5040 -35.4974 -35.4974 -35.4754 -35.4754 -35.4688 -35.4688
   -35.3947 -35.3947 -35.3612 -35.3612 -34.0447 -34.0447 -34.0381 -34.0381
   -34.0205 -34.0205 -34.0139 -34.0139 -34.0076 -34.0076 -34.0009 -34.0009
   -33.9323 -33.9323 -33.9169 -33.9169 -33.8886 -33.8886 -28.1367 -28.1367
   -28.1321 -28.1321 -28.1281 -28.1281 -28.1236 -28.1236 -26.8975 -26.8975
   -26.8929 -26.8929 -26.8880 -26.8880 -26.8863 -26.8862 -26.8835 -26.8834
   -26.8818 -26.8817 -10.6227 -10.6227 -10.0912 -10.0912  -9.0149  -9.0149
    -6.2682  -6.2682  -4.8888  -4.8888  -0.5197  -0.5196  -0.1294  -0.1280
     0.2361   0.2374   0.3935   0.3957   0.4721   0.4735   0.7314   0.7331
     0.9869   0.9877   1.2136   1.2143   1.4978   1.4980   2.2111   2.2116
     2.7477   2.7483   2.9990   2.9994   3.3881   3.3896   4.0838   4.0845
     4.1913   4.1916   6.2268   6.2269   6.4057   6.4058   6.9947   6.9947
     7.5161   7.5161   7.6149   7.6149   7.8062   7.8063   8.4651   8.4651
     8.6108   8.6124   8.7222   8.7241   8.8889   8.8894   9.1563   9.1563
     9.6799   9.6800   9.7631   9.7632  10.0300  10.0301  10.1904  10.1906
    10.5984  10.5985  11.0041  11.0043  11.2145  11.2150  11.3955  11.3959
    11.7245  11.7249  11.8854  11.8857  12.8080  12.8080  12.9009  12.9009
    13.7158  13.7159  13.9486  13.9487  14.2474  14.2480  14.3258  14.3263
    14.5717  14.5719  15.1233  15.1234  15.5488  15.5489  15.8086  15.8087
    16.0050  16.0052  16.2365  16.2366  16.3284  16.3285  16.4471  16.4472
    16.6277  16.6278  16.8250  16.8251  16.8635  16.8636  17.0181  17.0181
    17.1912  17.1912  17.3580  17.3582  17.4015  17.4016  17.4561  17.4561
    17.6511  17.6511  17.7960  17.7963  17.8226  17.8229  18.1208  18.1209
    18.2169  18.2169  18.4610  18.4610  18.6342  18.6343  18.7251  18.7252
    18.9557  18.9557  19.0999  19.0999  19.3611  19.3611  19.4058  19.4059

          k = 0.0143 0.0251 0.0000 ( 24173 PWs)   bands (ev):

   -35.5040 -35.5040 -35.4974 -35.4974 -35.4754 -35.4754 -35.4688 -35.4688
   -35.3947 -35.3947 -35.3612 -35.3612 -34.0447 -34.0447 -34.0381 -34.0381
   -34.0205 -34.0205 -34.0139 -34.0139 -34.0076 -34.0076 -34.0009 -34.0009
   -33.9323 -33.9323 -33.9169 -33.9169 -33.8886 -33.8886 -28.1367 -28.1367
   -28.1321 -28.1321 -28.1281 -28.1281 -28.1236 -28.1236 -26.8975 -26.8975
   -26.8929 -26.8929 -26.8880 -26.8880 -26.8863 -26.8862 -26.8835 -26.8835
   -26.8818 -26.8817 -10.6268 -10.6268 -10.0949 -10.0949  -9.0172  -9.0172
    -6.2677  -6.2677  -4.8818  -4.8818  -0.5132  -0.5131  -0.0875  -0.0863
     0.2404   0.2417   0.4422   0.4444   0.4903   0.4917   0.7269   0.7285
     0.9643   0.9650   1.2355   1.2360   1.4657   1.4659   2.1727   2.1730
     2.7438   2.7444   3.0222   3.0227   3.3570   3.3583   4.0664   4.0669
     4.1887   4.1889   6.2194   6.2195   6.4040   6.4041   6.9935   6.9935
     7.5305   7.5305   7.6151   7.6152   7.8170   7.8171   8.4389   8.4389
     8.6206   8.6218   8.7393   8.7410   8.8820   8.8825   9.1575   9.1576
     9.6539   9.6540   9.7453   9.7455  10.0277  10.0278  10.1636  10.1637
    10.5708  10.5708  11.0270  11.0272  11.2580  11.2585  11.4142  11.4147
    11.6719  11.6722  11.8214  11.8217  12.8112  12.8112  12.8866  12.8866
    13.7729  13.7730  14.0149  14.0150  14.2159  14.2165  14.3044  14.3048
    14.5116  14.5117  15.1195  15.1196  15.6047  15.6048  15.8804  15.8805
    16.0020  16.0021  16.2354  16.2357  16.2815  16.2816  16.4210  16.4210
    16.7129  16.7132  16.8049  16.8051  16.9634  16.9634  17.1232  17.1233
    17.2335  17.2336  17.3454  17.3455  17.4191  17.4192  17.4540  17.4541
    17.6385  17.6385  17.7015  17.7016  17.7514  17.7515  18.0164  18.0165
    18.1023  18.1024  18.3656  18.3656  18.7164  18.7165  18.8450  18.8451
    19.0532  19.0532  19.1896  19.1896  19.3538  19.3538  19.3937  19.3938

          k = 0.0095 0.0167 0.0000 ( 24165 PWs)   bands (ev):

   -35.5040 -35.5040 -35.4974 -35.4974 -35.4754 -35.4754 -35.4688 -35.4688
   -35.3947 -35.3947 -35.3612 -35.3612 -34.0447 -34.0447 -34.0381 -34.0381
   -34.0205 -34.0205 -34.0139 -34.0139 -34.0076 -34.0076 -34.0009 -34.0009
   -33.9323 -33.9323 -33.9169 -33.9169 -33.8886 -33.8886 -28.1367 -28.1367
   -28.1321 -28.1321 -28.1281 -28.1281 -28.1236 -28.1236 -26.8975 -26.8975
   -26.8929 -26.8929 -26.8880 -26.8880 -26.8863 -26.8862 -26.8835 -26.8835
   -26.8818 -26.8817 -10.6297 -10.6297 -10.0976 -10.0976  -9.0189  -9.0188
    -6.2674  -6.2674  -4.8768  -4.8768  -0.5087  -0.5086  -0.0546  -0.0537
     0.2394   0.2404   0.4776   0.4788   0.5177   0.5187   0.7130   0.7145
     0.9455   0.9461   1.2552   1.2556   1.4422   1.4423   2.1405   2.1407
     2.7408   2.7412   3.0479   3.0484   3.3279   3.3290   4.0519   4.0523
     4.1887   4.1889   6.2140   6.2141   6.4028   6.4029   6.9924   6.9925
     7.5394   7.5395   7.6155   7.6156   7.8286   7.8287   8.4173   8.4173
     8.6271   8.6279   8.7518   8.7530   8.8798   8.8802   9.1605   9.1605
     9.6314   9.6315   9.7295   9.7296  10.0298  10.0298  10.1439  10.1440
    10.5512  10.5512  11.0426  11.0427  11.2980  11.2985  11.4411  11.4417
    11.6240  11.6243  11.7636  11.7639  12.8141  12.8142  12.8759  12.8759
    13.8253  13.8254  14.0751  14.0754  14.1827  14.1832  14.2869  14.2871
    14.4603  14.4604  15.1031  15.1032  15.6682  15.6683  15.9494  15.9495
    16.0068  16.0069  16.1844  16.1847  16.2676  16.2678  16.3912  16.3913
    16.7158  16.7160  16.8807  16.8808  17.0467  17.0467  17.2154  17.2155
    17.2575  17.2575  17.3306  17.3306  17.3898  17.3898  17.5358  17.5359
    17.6018  17.6019  17.6543  17.6544  17.6698  17.6699  17.9337  17.9338
    17.9946  17.9948  18.2634  18.2634  18.8246  18.8246  18.9576  18.9577
    19.1394  19.1395  19.2460  19.2461  19.3005  19.3005  19.4098  19.4098

          k = 0.0048 0.0084 0.0000 ( 24167 PWs)   bands (ev):

   -35.5040 -35.5040 -35.4974 -35.4974 -35.4754 -35.4754 -35.4688 -35.4688
   -35.3947 -35.3947 -35.3612 -35.3612 -34.0447 -34.0447 -34.0381 -34.0381
   -34.0205 -34.0205 -34.0139 -34.0139 -34.0076 -34.0076 -34.0009 -34.0009
   -33.9323 -33.9323 -33.9169 -33.9169 -33.8887 -33.8887 -28.1367 -28.1367
   -28.1321 -28.1321 -28.1281 -28.1281 -28.1236 -28.1236 -26.8975 -26.8975
   -26.8929 -26.8929 -26.8880 -26.8880 -26.8863 -26.8863 -26.8835 -26.8835
   -26.8817 -26.8817 -10.6315 -10.6315 -10.0992 -10.0992  -9.0198  -9.0198
    -6.2671  -6.2671  -4.8738  -4.8738  -0.5060  -0.5059  -0.0331  -0.0326
     0.2370   0.2376   0.4916   0.4919   0.5536   0.5545   0.6939   0.6950
     0.9335   0.9338   1.2681   1.2683   1.4287   1.4288   2.1188   2.1189
     2.7390   2.7392   3.0693   3.0696   3.3055   3.3062   4.0427   4.0428
     4.1894   4.1895   6.2108   6.2108   6.4021   6.4021   6.9917   6.9917
     7.5441   7.5441   7.6159   7.6160   7.8375   7.8375   8.4030   8.4030
     8.6308   8.6312   8.7590   8.7596   8.8802   8.8804   9.1633   9.1633
     9.6159   9.6159   9.7189   9.7190  10.0324  10.0324  10.1317  10.1318
    10.5395  10.5395  11.0518  11.0519  11.3254  11.3257  11.4777  11.4782
    11.5798  11.5800  11.7207  11.7209  12.8163  12.8163  12.8690  12.8690
    13.8660  13.8660  14.1205  14.1211  14.1551  14.1558  14.2725  14.2726
    14.4241  14.4242  15.0876  15.0877  15.7224  15.7225  15.9917  15.9919
    16.0327  16.0329  16.1222  16.1224  16.2604  16.2605  16.3666  16.3666
    16.6976  16.6977  16.9929  16.9930  17.0877  17.0877  17.2091  17.2091
    17.3104  17.3104  17.3446  17.3447  17.3873  17.3874  17.5488  17.5489
    17.5718  17.5718  17.6348  17.6349  17.6518  17.6519  17.8625  17.8627
    17.9173  17.9174  18.1860  18.1860  18.9315  18.9315  19.0454  19.0455
    19.1845  19.1846  19.2297  19.2298  19.3032  19.3033  19.4069  19.4069

          k = 0.0000 0.0000 0.0000 ( 24159 PWs)   bands (ev):

   -35.5040 -35.5040 -35.4974 -35.4974 -35.4754 -35.4754 -35.4688 -35.4688
   -35.3947 -35.3947 -35.3612 -35.3612 -34.0447 -34.0447 -34.0381 -34.0381
   -34.0205 -34.0205 -34.0139 -34.0139 -34.0076 -34.0076 -34.0009 -34.0009
   -33.9323 -33.9323 -33.9169 -33.9169 -33.8887 -33.8887 -28.1367 -28.1367
   -28.1321 -28.1321 -28.1281 -28.1281 -28.1236 -28.1236 -26.8975 -26.8975
   -26.8929 -26.8929 -26.8880 -26.8880 -26.8863 -26.8863 -26.8835 -26.8835
   -26.8817 -26.8817 -10.6321 -10.6321 -10.0998 -10.0998  -9.0202  -9.0202
    -6.2671  -6.2671  -4.8728  -4.8728  -0.5051  -0.5051  -0.0254  -0.0254
     0.2361   0.2361   0.4952   0.4952   0.5719   0.5719   0.6834   0.6834
     0.9295   0.9295   1.2725   1.2725   1.4246   1.4246   2.1112   2.1112
     2.7384   2.7384   3.0780   3.0780   3.2970   3.2970   4.0395   4.0395
     4.1897   4.1897   6.2097   6.2097   6.4019   6.4019   6.9915   6.9915
     7.5455   7.5455   7.6161   7.6161   7.8408   7.8408   8.3980   8.3980
     8.6321   8.6321   8.7615   8.7615   8.8808   8.8808   9.1644   9.1644
     9.6104   9.6104   9.7152   9.7152  10.0335  10.0335  10.1277  10.1277
    10.5357  10.5357  11.0549  11.0549  11.3350  11.3350  11.5077  11.5077
    11.5493  11.5493  11.7044  11.7044  12.8171  12.8171  12.8667  12.8667
    13.8823  13.8823  14.1327  14.1327  14.1507  14.1507  14.2655  14.2655
    14.4108  14.4108  15.0815  15.0815  15.7448  15.7448  16.0061  16.0061
    16.0574  16.0574  16.0856  16.0856  16.2552  16.2552  16.3571  16.3571
    16.6907  16.6907  17.0787  17.0787  17.1016  17.1016  17.1369  17.1369
    17.3457  17.3457  17.3528  17.3528  17.4463  17.4463  17.4761  17.4761
    17.5457  17.5457  17.6373  17.6373  17.6995  17.6995  17.8157  17.8157
    17.8903  17.8903  18.1565  18.1565  18.9956  18.9956  19.0761  19.0761
    19.1450  19.1450  19.2611  19.2611  19.3127  19.3127  19.4124  19.4124

     Writing all to output data dir tmp/Sb2Te3-uatsx-c5-soc-2.0.save/ :
     XML data file, pseudopotentials, collected wavefunctions

     init_run     :      1.30s CPU      1.30s WALL (       1 calls)
     electrons    :   6105.39s CPU   3303.91s WALL (       1 calls)

     Called by init_run:
     wfcinit      :      0.00s CPU      0.01s WALL (       1 calls)
     wfcinit:wfcr :    144.97s CPU     76.09s WALL (     211 calls)
     potinit      :      0.27s CPU      0.24s WALL (       1 calls)
     hinit0       :      0.84s CPU      0.86s WALL (       1 calls)

     Called by electrons:
     c_bands      :   6105.36s CPU   3303.87s WALL (       1 calls)
     v_of_rho     :      0.07s CPU      0.05s WALL (       1 calls)
     v_h          :      0.01s CPU      0.01s WALL (       1 calls)
     v_xc         :      0.07s CPU      0.05s WALL (       1 calls)

     Called by c_bands:
     init_us_2    :      0.34s CPU      0.28s WALL (     211 calls)
     cegterg      :   5946.82s CPU   3214.95s WALL (     730 calls)

     Called by sum_band:

     Called by *egterg:
     cdiaghg      :    882.53s CPU    559.85s WALL (   12666 calls)
     cegterg:over :    541.98s CPU    289.41s WALL (   12455 calls)
     cegterg:upda :    376.19s CPU    203.56s WALL (   12455 calls)
     cegterg:last :    605.99s CPU    337.70s WALL (    5847 calls)
     cdiaghg:chol :     59.24s CPU     34.37s WALL (   12666 calls)
     cdiaghg:inve :     11.73s CPU      8.65s WALL (   12666 calls)
     cdiaghg:para :    147.31s CPU     76.96s WALL (   25332 calls)
     h_psi        :   3565.06s CPU   1833.30s WALL (   13396 calls)
     g_psi        :     20.56s CPU     10.73s WALL (   12455 calls)

     Called by h_psi:
     h_psi:calbec :    160.87s CPU     90.11s WALL (   13396 calls)
     vloc_psi     :   3245.93s CPU   1646.75s WALL (   13396 calls)
     add_vuspsi   :    134.39s CPU     84.17s WALL (   13396 calls)

     General routines
     calbec       :    160.78s CPU     90.07s WALL (   13396 calls)
     fft          :      0.89s CPU      0.89s WALL (      17 calls)
     ffts         :      0.15s CPU      0.14s WALL (       4 calls)
     fftw         :   2516.98s CPU   1252.05s WALL ( 4825928 calls)
     interpolate  :      0.16s CPU      0.15s WALL (       4 calls)
     davcio       :      0.76s CPU      2.44s WALL (     422 calls)

     Parallel routines

     PWSCF        :      1h42m CPU  58m51.35s WALL


   This run was terminated on:  19:55:25  22Aug2025            

=------------------------------------------------------------------------------=
   JOB DONE.
=------------------------------------------------------------------------------=
