
     Program PWSCF v.7.4.1 starts on 23Aug2025 at  3: 2:58 

     This program is part of the open-source Quantum ESPRESSO suite
     for quantum simulation of materials; please cite
         "P. Giannozzi et al., J. Phys.:Condens. Matter 21 395502 (2009);
         "P. Giannozzi et al., J. Phys.:Condens. Matter 29 465901 (2017);
         "P. Giannozzi et al., J. Chem. Phys. 152 154105 (2020);
          URL http://www.quantum-espresso.org", 
     in publications or presentations arising from this work. More details at
     http://www.quantum-espresso.org/quote

     Parallel version (MPI & OpenMP), running on      48 processor cores
     Number of MPI processes:                24
     Threads/MPI process:                     2

     MPI processes distributed on     2 nodes
     11830 MiB available memory on the printing compute node when the environment starts

     Waiting for input...
     Reading input from standard input

     Current dimensions of program PWSCF are:
     Max number of different atomic species (ntypx) = 10
     Max number of k-points (npk) =  40000
     Max angular momentum in pseudopotentials (lmaxx) =  4
Error reading attribute index: expected integer, found *
Error reading attribute index: expected integer, found *

     IMPORTANT: XC functional enforced from input :
     Exchange-correlation= PBE
                           (   1   4   3   4   0   0   0)
     Any further DFT definition will be discarded
     Please, verify this is what you really want


     Atomic positions and unit cell read from directory:
     tmp/Sb2Te3-uatsx-c5-soc-5.0.save/

     Message from routine setup:
     no reason to have ecutrho>4*ecutwfc

     R & G space division:  proc/nbgrp/npool/nimage =      24
     Subspace diagonalization in iterative solution of the eigenvalue problem:
     one sub-group per band group will be used
     scalapack distributed-memory algorithm (size of sub-group:  2*  2 procs)


     Parallelization info
     --------------------
     sticks:   dense  smooth     PW     G-vecs:    dense   smooth      PW
     Min         140      55     15                32920     8311    1231
     Max         141      56     16                32928     8340    1250
     Sum        3363    1343    375               790163   200001   29781

     Using Slab Decomposition



     bravais-lattice index     =            0
     lattice parameter (alat)  =       8.5529  a.u.
     unit-cell volume          =    2526.9262 (a.u.)^3
     number of atoms/cell      =            5
     number of atomic types    =            2
     number of electrons       =        78.00
     number of Kohn-Sham states=          200
     kinetic-energy cutoff     =      70.0000  Ry
     charge density cutoff     =     700.0000  Ry
     Exchange-correlation= PBE
                           (   1   4   3   4   0   0   0)
     Non magnetic calculation with spin-orbit


     celldm(1)=   8.552915  celldm(2)=   0.000000  celldm(3)=   0.000000
     celldm(4)=   0.000000  celldm(5)=   0.000000  celldm(6)=   0.000000

     crystal axes: (cart. coord. in units of alat)
               a(1) = (   1.000000   0.000000   0.000000 )  
               a(2) = (  -0.476190   0.824778   0.000000 )  
               a(3) = (   0.000000   0.000000   4.896807 )  

     reciprocal axes: (cart. coord. in units 2 pi/alat)
               b(1) = (  1.000000  0.577356 -0.000000 )  
               b(2) = (  0.000000  1.212447  0.000000 )  
               b(3) = (  0.000000 -0.000000  0.204215 )  


     PseudoPot. # 1 for Sb read from file:
     /zfs-home/202401017n1/pseudos/Sb_ONCV_PBE_FR-1.1.upf
     MD5 check sum: 7dc1726f2158e3c51e4807d42b9c5c65
     Pseudo is Norm-conserving, Zval = 15.0
     Generated using ONCVPSP code by D. R. Hamann
     Using radial grid of  602 points, 10 beta functions with: 
                l(1) =   0
                l(2) =   0
                l(3) =   1
                l(4) =   1
                l(5) =   1
                l(6) =   1
                l(7) =   2
                l(8) =   2
                l(9) =   2
               l(10) =   2

     PseudoPot. # 2 for Te read from file:
     /zfs-home/202401017n1/pseudos/Te_ONCV_PBE_FR-1.1.upf
     MD5 check sum: c6e17480449037a9a9d16e6377b5c7c4
     Pseudo is Norm-conserving, Zval = 16.0
     Generated using ONCVPSP code by D. R. Hamann
     Using radial grid of  602 points, 10 beta functions with: 
                l(1) =   0
                l(2) =   0
                l(3) =   1
                l(4) =   1
                l(5) =   1
                l(6) =   1
                l(7) =   2
                l(8) =   2
                l(9) =   2
               l(10) =   2

     atomic species   valence    mass     pseudopotential
     Sb               15.00   121.76000     Sb( 1.00)
     Te               16.00   127.60000     Te( 1.00)

     No symmetry found


                                    s                        frac. trans.

      isym =  1     identity                                     

 cryst.   s( 1) = (     1          0          0      )
                  (     0          1          0      )
                  (     0          0          1      )

 cart.    s( 1) = (  1.0000000  0.0000000  0.0000000 )
                  (  0.0000000  1.0000000  0.0000000 )
                  (  0.0000000  0.0000000  1.0000000 )


   Cartesian axes

     site n.     atom                  positions (alat units)
         1        Sb     tau(   1) = (   0.5941563   0.4140600   2.8819763  )
         2        Te     tau(   2) = (   0.5757813   0.3831770   1.6487259  )
         3        Sb     tau(   3) = (   0.0713597   0.1150985   2.0147862  )
         4        Te     tau(   4) = (   0.0896521   0.1461334   3.2480478  )
         5        Te     tau(   5) = (   0.0946223   0.6770376   2.4483865  )

     -------------------------------------------------
     Parameters for Dispersion (Grimme-D2) Correction:
     -------------------------------------------------
       atom      VdW radius       C_6     

        Sb         3.555       1333.532
        Te         3.575       1101.101

   Crystallographic axes

     site n.     atom                  positions (cryst. coord.)
         1        Sb     tau(   1) = (  0.8332162  0.5020259  0.5885420  )
         2        Te     tau(   2) = (  0.7970108  0.4645820  0.3366941  )
         3        Sb     tau(   3) = (  0.1378125  0.1395508  0.4114490  )
         4        Te     tau(   4) = (  0.1740231  0.1771791  0.6632992  )
         5        Te     tau(   5) = (  0.4855140  0.8208724  0.4999966  )

     number of k points=   211
                       cart. coord. in units 2pi/alat
        k(    1) = (   0.0000000   0.0000000   0.0000000), wk =   0.0047393
        k(    2) = (   0.0071429   0.0041240   0.0000000), wk =   0.0047393
        k(    3) = (   0.0142857   0.0082479   0.0000000), wk =   0.0047393
        k(    4) = (   0.0214286   0.0123719   0.0000000), wk =   0.0047393
        k(    5) = (   0.0285714   0.0164959   0.0000000), wk =   0.0047393
        k(    6) = (   0.0357143   0.0206199   0.0000000), wk =   0.0047393
        k(    7) = (   0.0428571   0.0247438   0.0000000), wk =   0.0047393
        k(    8) = (   0.0500000   0.0288678   0.0000000), wk =   0.0047393
        k(    9) = (   0.0571429   0.0329918   0.0000000), wk =   0.0047393
        k(   10) = (   0.0642857   0.0371157   0.0000000), wk =   0.0047393
        k(   11) = (   0.0714286   0.0412397   0.0000000), wk =   0.0047393
        k(   12) = (   0.0785714   0.0453637   0.0000000), wk =   0.0047393
        k(   13) = (   0.0857143   0.0494876   0.0000000), wk =   0.0047393
        k(   14) = (   0.0928571   0.0536116   0.0000000), wk =   0.0047393
        k(   15) = (   0.1000000   0.0577356   0.0000000), wk =   0.0047393
        k(   16) = (   0.1071429   0.0618596   0.0000000), wk =   0.0047393
        k(   17) = (   0.1142857   0.0659835   0.0000000), wk =   0.0047393
        k(   18) = (   0.1214286   0.0701075   0.0000000), wk =   0.0047393
        k(   19) = (   0.1285714   0.0742315   0.0000000), wk =   0.0047393
        k(   20) = (   0.1357143   0.0783554   0.0000000), wk =   0.0047393
        k(   21) = (   0.1428571   0.0824794   0.0000000), wk =   0.0047393
        k(   22) = (   0.1500000   0.0866034   0.0000000), wk =   0.0047393
        k(   23) = (   0.1571429   0.0907273   0.0000000), wk =   0.0047393
        k(   24) = (   0.1642857   0.0948513   0.0000000), wk =   0.0047393
        k(   25) = (   0.1714286   0.0989753   0.0000000), wk =   0.0047393
        k(   26) = (   0.1785714   0.1030993   0.0000000), wk =   0.0047393
        k(   27) = (   0.1857143   0.1072232   0.0000000), wk =   0.0047393
        k(   28) = (   0.1928571   0.1113472   0.0000000), wk =   0.0047393
        k(   29) = (   0.2000000   0.1154712   0.0000000), wk =   0.0047393
        k(   30) = (   0.2071429   0.1195951   0.0000000), wk =   0.0047393
        k(   31) = (   0.2142857   0.1237191   0.0000000), wk =   0.0047393
        k(   32) = (   0.2214286   0.1278431   0.0000000), wk =   0.0047393
        k(   33) = (   0.2285714   0.1319671   0.0000000), wk =   0.0047393
        k(   34) = (   0.2357143   0.1360910   0.0000000), wk =   0.0047393
        k(   35) = (   0.2428571   0.1402150   0.0000000), wk =   0.0047393
        k(   36) = (   0.2500000   0.1443390   0.0000000), wk =   0.0047393
        k(   37) = (   0.2571429   0.1484629   0.0000000), wk =   0.0047393
        k(   38) = (   0.2642857   0.1525869   0.0000000), wk =   0.0047393
        k(   39) = (   0.2714286   0.1567109   0.0000000), wk =   0.0047393
        k(   40) = (   0.2785714   0.1608348   0.0000000), wk =   0.0047393
        k(   41) = (   0.2857143   0.1649588   0.0000000), wk =   0.0047393
        k(   42) = (   0.2928571   0.1690828   0.0000000), wk =   0.0047393
        k(   43) = (   0.3000000   0.1732068   0.0000000), wk =   0.0047393
        k(   44) = (   0.3071429   0.1773307   0.0000000), wk =   0.0047393
        k(   45) = (   0.3142857   0.1814547   0.0000000), wk =   0.0047393
        k(   46) = (   0.3214286   0.1855787   0.0000000), wk =   0.0047393
        k(   47) = (   0.3285714   0.1897026   0.0000000), wk =   0.0047393
        k(   48) = (   0.3357143   0.1938266   0.0000000), wk =   0.0047393
        k(   49) = (   0.3428571   0.1979506   0.0000000), wk =   0.0047393
        k(   50) = (   0.3500000   0.2020745   0.0000000), wk =   0.0047393
        k(   51) = (   0.3571429   0.2061985   0.0000000), wk =   0.0047393
        k(   52) = (   0.3642857   0.2103225   0.0000000), wk =   0.0047393
        k(   53) = (   0.3714286   0.2144465   0.0000000), wk =   0.0047393
        k(   54) = (   0.3785714   0.2185704   0.0000000), wk =   0.0047393
        k(   55) = (   0.3857143   0.2226944   0.0000000), wk =   0.0047393
        k(   56) = (   0.3928571   0.2268184   0.0000000), wk =   0.0047393
        k(   57) = (   0.4000000   0.2309423   0.0000000), wk =   0.0047393
        k(   58) = (   0.4071429   0.2350663   0.0000000), wk =   0.0047393
        k(   59) = (   0.4142857   0.2391903   0.0000000), wk =   0.0047393
        k(   60) = (   0.4214286   0.2433143   0.0000000), wk =   0.0047393
        k(   61) = (   0.4285714   0.2474382   0.0000000), wk =   0.0047393
        k(   62) = (   0.4357143   0.2515622   0.0000000), wk =   0.0047393
        k(   63) = (   0.4428571   0.2556862   0.0000000), wk =   0.0047393
        k(   64) = (   0.4500000   0.2598101   0.0000000), wk =   0.0047393
        k(   65) = (   0.4571429   0.2639341   0.0000000), wk =   0.0047393
        k(   66) = (   0.4642857   0.2680581   0.0000000), wk =   0.0047393
        k(   67) = (   0.4714286   0.2721820   0.0000000), wk =   0.0047393
        k(   68) = (   0.4785714   0.2763060   0.0000000), wk =   0.0047393
        k(   69) = (   0.4857143   0.2804300   0.0000000), wk =   0.0047393
        k(   70) = (   0.4928571   0.2845540   0.0000000), wk =   0.0047393
        k(   71) = (   0.5000000   0.2886779   0.0000000), wk =   0.0047393
        k(   72) = (   0.4976190   0.2930768   0.0000000), wk =   0.0047393
        k(   73) = (   0.4952381   0.2974757   0.0000000), wk =   0.0047393
        k(   74) = (   0.4928571   0.3018746   0.0000000), wk =   0.0047393
        k(   75) = (   0.4904762   0.3062735   0.0000000), wk =   0.0047393
        k(   76) = (   0.4880952   0.3106724   0.0000000), wk =   0.0047393
        k(   77) = (   0.4857143   0.3150713   0.0000000), wk =   0.0047393
        k(   78) = (   0.4833333   0.3194702   0.0000000), wk =   0.0047393
        k(   79) = (   0.4809524   0.3238691   0.0000000), wk =   0.0047393
        k(   80) = (   0.4785714   0.3282680   0.0000000), wk =   0.0047393
        k(   81) = (   0.4761905   0.3326669   0.0000000), wk =   0.0047393
        k(   82) = (   0.4738095   0.3370658   0.0000000), wk =   0.0047393
        k(   83) = (   0.4714286   0.3414647   0.0000000), wk =   0.0047393
        k(   84) = (   0.4690476   0.3458636   0.0000000), wk =   0.0047393
        k(   85) = (   0.4666667   0.3502626   0.0000000), wk =   0.0047393
        k(   86) = (   0.4642857   0.3546615   0.0000000), wk =   0.0047393
        k(   87) = (   0.4619048   0.3590604   0.0000000), wk =   0.0047393
        k(   88) = (   0.4595238   0.3634593   0.0000000), wk =   0.0047393
        k(   89) = (   0.4571429   0.3678582   0.0000000), wk =   0.0047393
        k(   90) = (   0.4547619   0.3722571   0.0000000), wk =   0.0047393
        k(   91) = (   0.4523810   0.3766560   0.0000000), wk =   0.0047393
        k(   92) = (   0.4500000   0.3810549   0.0000000), wk =   0.0047393
        k(   93) = (   0.4476190   0.3854538   0.0000000), wk =   0.0047393
        k(   94) = (   0.4452381   0.3898527   0.0000000), wk =   0.0047393
        k(   95) = (   0.4428571   0.3942516   0.0000000), wk =   0.0047393
        k(   96) = (   0.4404762   0.3986505   0.0000000), wk =   0.0047393
        k(   97) = (   0.4380952   0.4030494   0.0000000), wk =   0.0047393
        k(   98) = (   0.4357143   0.4074483   0.0000000), wk =   0.0047393
        k(   99) = (   0.4333333   0.4118472   0.0000000), wk =   0.0047393
        k(  100) = (   0.4309524   0.4162461   0.0000000), wk =   0.0047393
        k(  101) = (   0.4285714   0.4206450   0.0000000), wk =   0.0047393
        k(  102) = (   0.4261905   0.4250439   0.0000000), wk =   0.0047393
        k(  103) = (   0.4238095   0.4294428   0.0000000), wk =   0.0047393
        k(  104) = (   0.4214286   0.4338417   0.0000000), wk =   0.0047393
        k(  105) = (   0.4190476   0.4382406   0.0000000), wk =   0.0047393
        k(  106) = (   0.4166667   0.4426395   0.0000000), wk =   0.0047393
        k(  107) = (   0.4142857   0.4470384   0.0000000), wk =   0.0047393
        k(  108) = (   0.4119048   0.4514373   0.0000000), wk =   0.0047393
        k(  109) = (   0.4095238   0.4558362   0.0000000), wk =   0.0047393
        k(  110) = (   0.4071429   0.4602351   0.0000000), wk =   0.0047393
        k(  111) = (   0.4047619   0.4646340   0.0000000), wk =   0.0047393
        k(  112) = (   0.4023810   0.4690329   0.0000000), wk =   0.0047393
        k(  113) = (   0.4000000   0.4734318   0.0000000), wk =   0.0047393
        k(  114) = (   0.3976190   0.4778307   0.0000000), wk =   0.0047393
        k(  115) = (   0.3952381   0.4822296   0.0000000), wk =   0.0047393
        k(  116) = (   0.3928571   0.4866285   0.0000000), wk =   0.0047393
        k(  117) = (   0.3904762   0.4910274   0.0000000), wk =   0.0047393
        k(  118) = (   0.3880952   0.4954263   0.0000000), wk =   0.0047393
        k(  119) = (   0.3857143   0.4998252   0.0000000), wk =   0.0047393
        k(  120) = (   0.3833333   0.5042241   0.0000000), wk =   0.0047393
        k(  121) = (   0.3809524   0.5086230   0.0000000), wk =   0.0047393
        k(  122) = (   0.3785714   0.5130219   0.0000000), wk =   0.0047393
        k(  123) = (   0.3761905   0.5174208   0.0000000), wk =   0.0047393
        k(  124) = (   0.3738095   0.5218197   0.0000000), wk =   0.0047393
        k(  125) = (   0.3714286   0.5262186   0.0000000), wk =   0.0047393
        k(  126) = (   0.3690476   0.5306175   0.0000000), wk =   0.0047393
        k(  127) = (   0.3666667   0.5350164   0.0000000), wk =   0.0047393
        k(  128) = (   0.3642857   0.5394153   0.0000000), wk =   0.0047393
        k(  129) = (   0.3619048   0.5438142   0.0000000), wk =   0.0047393
        k(  130) = (   0.3595238   0.5482131   0.0000000), wk =   0.0047393
        k(  131) = (   0.3571429   0.5526120   0.0000000), wk =   0.0047393
        k(  132) = (   0.3547619   0.5570109   0.0000000), wk =   0.0047393
        k(  133) = (   0.3523810   0.5614098   0.0000000), wk =   0.0047393
        k(  134) = (   0.3500000   0.5658087   0.0000000), wk =   0.0047393
        k(  135) = (   0.3476190   0.5702076   0.0000000), wk =   0.0047393
        k(  136) = (   0.3452381   0.5746065   0.0000000), wk =   0.0047393
        k(  137) = (   0.3428571   0.5790054   0.0000000), wk =   0.0047393
        k(  138) = (   0.3404762   0.5834043   0.0000000), wk =   0.0047393
        k(  139) = (   0.3380952   0.5878032   0.0000000), wk =   0.0047393
        k(  140) = (   0.3357143   0.5922021   0.0000000), wk =   0.0047393
        k(  141) = (   0.3333333   0.5966010   0.0000000), wk =   0.0047393
        k(  142) = (   0.3285714   0.5880782   0.0000000), wk =   0.0047393
        k(  143) = (   0.3238095   0.5795553   0.0000000), wk =   0.0047393
        k(  144) = (   0.3190476   0.5710324   0.0000000), wk =   0.0047393
        k(  145) = (   0.3142857   0.5625096   0.0000000), wk =   0.0047393
        k(  146) = (   0.3095238   0.5539867   0.0000000), wk =   0.0047393
        k(  147) = (   0.3047619   0.5454638   0.0000000), wk =   0.0047393
        k(  148) = (   0.3000000   0.5369409   0.0000000), wk =   0.0047393
        k(  149) = (   0.2952381   0.5284181   0.0000000), wk =   0.0047393
        k(  150) = (   0.2904762   0.5198952   0.0000000), wk =   0.0047393
        k(  151) = (   0.2857143   0.5113723   0.0000000), wk =   0.0047393
        k(  152) = (   0.2809524   0.5028495   0.0000000), wk =   0.0047393
        k(  153) = (   0.2761905   0.4943266   0.0000000), wk =   0.0047393
        k(  154) = (   0.2714286   0.4858037   0.0000000), wk =   0.0047393
        k(  155) = (   0.2666667   0.4772808   0.0000000), wk =   0.0047393
        k(  156) = (   0.2619048   0.4687580   0.0000000), wk =   0.0047393
        k(  157) = (   0.2571429   0.4602351   0.0000000), wk =   0.0047393
        k(  158) = (   0.2523810   0.4517122   0.0000000), wk =   0.0047393
        k(  159) = (   0.2476190   0.4431894   0.0000000), wk =   0.0047393
        k(  160) = (   0.2428571   0.4346665   0.0000000), wk =   0.0047393
        k(  161) = (   0.2380952   0.4261436   0.0000000), wk =   0.0047393
        k(  162) = (   0.2333333   0.4176207   0.0000000), wk =   0.0047393
        k(  163) = (   0.2285714   0.4090979   0.0000000), wk =   0.0047393
        k(  164) = (   0.2238095   0.4005750   0.0000000), wk =   0.0047393
        k(  165) = (   0.2190476   0.3920521   0.0000000), wk =   0.0047393
        k(  166) = (   0.2142857   0.3835292   0.0000000), wk =   0.0047393
        k(  167) = (   0.2095238   0.3750064   0.0000000), wk =   0.0047393
        k(  168) = (   0.2047619   0.3664835   0.0000000), wk =   0.0047393
        k(  169) = (   0.2000000   0.3579606   0.0000000), wk =   0.0047393
        k(  170) = (   0.1952381   0.3494378   0.0000000), wk =   0.0047393
        k(  171) = (   0.1904762   0.3409149   0.0000000), wk =   0.0047393
        k(  172) = (   0.1857143   0.3323920   0.0000000), wk =   0.0047393
        k(  173) = (   0.1809524   0.3238691   0.0000000), wk =   0.0047393
        k(  174) = (   0.1761905   0.3153463   0.0000000), wk =   0.0047393
        k(  175) = (   0.1714286   0.3068234   0.0000000), wk =   0.0047393
        k(  176) = (   0.1666667   0.2983005   0.0000000), wk =   0.0047393
        k(  177) = (   0.1619048   0.2897777   0.0000000), wk =   0.0047393
        k(  178) = (   0.1571429   0.2812548   0.0000000), wk =   0.0047393
        k(  179) = (   0.1523810   0.2727319   0.0000000), wk =   0.0047393
        k(  180) = (   0.1476190   0.2642090   0.0000000), wk =   0.0047393
        k(  181) = (   0.1428571   0.2556862   0.0000000), wk =   0.0047393
        k(  182) = (   0.1380952   0.2471633   0.0000000), wk =   0.0047393
        k(  183) = (   0.1333333   0.2386404   0.0000000), wk =   0.0047393
        k(  184) = (   0.1285714   0.2301175   0.0000000), wk =   0.0047393
        k(  185) = (   0.1238095   0.2215947   0.0000000), wk =   0.0047393
        k(  186) = (   0.1190476   0.2130718   0.0000000), wk =   0.0047393
        k(  187) = (   0.1142857   0.2045489   0.0000000), wk =   0.0047393
        k(  188) = (   0.1095238   0.1960261   0.0000000), wk =   0.0047393
        k(  189) = (   0.1047619   0.1875032   0.0000000), wk =   0.0047393
        k(  190) = (   0.1000000   0.1789803   0.0000000), wk =   0.0047393
        k(  191) = (   0.0952381   0.1704574   0.0000000), wk =   0.0047393
        k(  192) = (   0.0904762   0.1619346   0.0000000), wk =   0.0047393
        k(  193) = (   0.0857143   0.1534117   0.0000000), wk =   0.0047393
        k(  194) = (   0.0809524   0.1448888   0.0000000), wk =   0.0047393
        k(  195) = (   0.0761905   0.1363660   0.0000000), wk =   0.0047393
        k(  196) = (   0.0714286   0.1278431   0.0000000), wk =   0.0047393
        k(  197) = (   0.0666667   0.1193202   0.0000000), wk =   0.0047393
        k(  198) = (   0.0619048   0.1107973   0.0000000), wk =   0.0047393
        k(  199) = (   0.0571429   0.1022745   0.0000000), wk =   0.0047393
        k(  200) = (   0.0523810   0.0937516   0.0000000), wk =   0.0047393
        k(  201) = (   0.0476190   0.0852287   0.0000000), wk =   0.0047393
        k(  202) = (   0.0428571   0.0767058   0.0000000), wk =   0.0047393
        k(  203) = (   0.0380952   0.0681830   0.0000000), wk =   0.0047393
        k(  204) = (   0.0333333   0.0596601   0.0000000), wk =   0.0047393
        k(  205) = (   0.0285714   0.0511372   0.0000000), wk =   0.0047393
        k(  206) = (   0.0238095   0.0426144   0.0000000), wk =   0.0047393
        k(  207) = (   0.0190476   0.0340915   0.0000000), wk =   0.0047393
        k(  208) = (   0.0142857   0.0255686   0.0000000), wk =   0.0047393
        k(  209) = (   0.0095238   0.0170457   0.0000000), wk =   0.0047393
        k(  210) = (   0.0047619   0.0085229   0.0000000), wk =   0.0047393
        k(  211) = (   0.0000000   0.0000000   0.0000000), wk =   0.0047393

                       cryst. coord.
        k(    1) = (   0.0000000   0.0000000   0.0000000), wk =   0.0047393
        k(    2) = (   0.0071429   0.0000000   0.0000000), wk =   0.0047393
        k(    3) = (   0.0142857   0.0000000   0.0000000), wk =   0.0047393
        k(    4) = (   0.0214286   0.0000000   0.0000000), wk =   0.0047393
        k(    5) = (   0.0285714   0.0000000   0.0000000), wk =   0.0047393
        k(    6) = (   0.0357143   0.0000000   0.0000000), wk =   0.0047393
        k(    7) = (   0.0428571   0.0000000   0.0000000), wk =   0.0047393
        k(    8) = (   0.0500000   0.0000000   0.0000000), wk =   0.0047393
        k(    9) = (   0.0571429   0.0000000   0.0000000), wk =   0.0047393
        k(   10) = (   0.0642857   0.0000000   0.0000000), wk =   0.0047393
        k(   11) = (   0.0714286   0.0000000   0.0000000), wk =   0.0047393
        k(   12) = (   0.0785714  -0.0000000   0.0000000), wk =   0.0047393
        k(   13) = (   0.0857143   0.0000000   0.0000000), wk =   0.0047393
        k(   14) = (   0.0928571   0.0000000   0.0000000), wk =   0.0047393
        k(   15) = (   0.1000000   0.0000000   0.0000000), wk =   0.0047393
        k(   16) = (   0.1071429   0.0000000   0.0000000), wk =   0.0047393
        k(   17) = (   0.1142857   0.0000000   0.0000000), wk =   0.0047393
        k(   18) = (   0.1214286   0.0000000   0.0000000), wk =   0.0047393
        k(   19) = (   0.1285714   0.0000000   0.0000000), wk =   0.0047393
        k(   20) = (   0.1357143   0.0000000   0.0000000), wk =   0.0047393
        k(   21) = (   0.1428571   0.0000000   0.0000000), wk =   0.0047393
        k(   22) = (   0.1500000  -0.0000000   0.0000000), wk =   0.0047393
        k(   23) = (   0.1571429  -0.0000000   0.0000000), wk =   0.0047393
        k(   24) = (   0.1642857   0.0000000   0.0000000), wk =   0.0047393
        k(   25) = (   0.1714286   0.0000000   0.0000000), wk =   0.0047393
        k(   26) = (   0.1785714   0.0000000   0.0000000), wk =   0.0047393
        k(   27) = (   0.1857143   0.0000000   0.0000000), wk =   0.0047393
        k(   28) = (   0.1928571   0.0000000   0.0000000), wk =   0.0047393
        k(   29) = (   0.2000000   0.0000000   0.0000000), wk =   0.0047393
        k(   30) = (   0.2071429   0.0000000   0.0000000), wk =   0.0047393
        k(   31) = (   0.2142857   0.0000000   0.0000000), wk =   0.0047393
        k(   32) = (   0.2214286   0.0000000   0.0000000), wk =   0.0047393
        k(   33) = (   0.2285714   0.0000000   0.0000000), wk =   0.0047393
        k(   34) = (   0.2357143   0.0000000   0.0000000), wk =   0.0047393
        k(   35) = (   0.2428571   0.0000000   0.0000000), wk =   0.0047393
        k(   36) = (   0.2500000   0.0000000   0.0000000), wk =   0.0047393
        k(   37) = (   0.2571429   0.0000000   0.0000000), wk =   0.0047393
        k(   38) = (   0.2642857  -0.0000000   0.0000000), wk =   0.0047393
        k(   39) = (   0.2714286   0.0000000   0.0000000), wk =   0.0047393
        k(   40) = (   0.2785714  -0.0000000   0.0000000), wk =   0.0047393
        k(   41) = (   0.2857143   0.0000000   0.0000000), wk =   0.0047393
        k(   42) = (   0.2928571   0.0000000   0.0000000), wk =   0.0047393
        k(   43) = (   0.3000000  -0.0000000   0.0000000), wk =   0.0047393
        k(   44) = (   0.3071429   0.0000000   0.0000000), wk =   0.0047393
        k(   45) = (   0.3142857  -0.0000000   0.0000000), wk =   0.0047393
        k(   46) = (   0.3214286   0.0000000   0.0000000), wk =   0.0047393
        k(   47) = (   0.3285714   0.0000000   0.0000000), wk =   0.0047393
        k(   48) = (   0.3357143   0.0000000   0.0000000), wk =   0.0047393
        k(   49) = (   0.3428571   0.0000000   0.0000000), wk =   0.0047393
        k(   50) = (   0.3500000  -0.0000000   0.0000000), wk =   0.0047393
        k(   51) = (   0.3571429   0.0000000   0.0000000), wk =   0.0047393
        k(   52) = (   0.3642857   0.0000000   0.0000000), wk =   0.0047393
        k(   53) = (   0.3714286   0.0000000   0.0000000), wk =   0.0047393
        k(   54) = (   0.3785714   0.0000000   0.0000000), wk =   0.0047393
        k(   55) = (   0.3857143   0.0000000   0.0000000), wk =   0.0047393
        k(   56) = (   0.3928571   0.0000000   0.0000000), wk =   0.0047393
        k(   57) = (   0.4000000   0.0000000   0.0000000), wk =   0.0047393
        k(   58) = (   0.4071429   0.0000000   0.0000000), wk =   0.0047393
        k(   59) = (   0.4142857   0.0000000   0.0000000), wk =   0.0047393
        k(   60) = (   0.4214286   0.0000000   0.0000000), wk =   0.0047393
        k(   61) = (   0.4285714   0.0000000   0.0000000), wk =   0.0047393
        k(   62) = (   0.4357143   0.0000000   0.0000000), wk =   0.0047393
        k(   63) = (   0.4428571   0.0000000   0.0000000), wk =   0.0047393
        k(   64) = (   0.4500000   0.0000000   0.0000000), wk =   0.0047393
        k(   65) = (   0.4571429   0.0000000   0.0000000), wk =   0.0047393
        k(   66) = (   0.4642857  -0.0000000   0.0000000), wk =   0.0047393
        k(   67) = (   0.4714286   0.0000000   0.0000000), wk =   0.0047393
        k(   68) = (   0.4785714   0.0000000   0.0000000), wk =   0.0047393
        k(   69) = (   0.4857143   0.0000000   0.0000000), wk =   0.0047393
        k(   70) = (   0.4928571   0.0000000   0.0000000), wk =   0.0047393
        k(   71) = (   0.5000000   0.0000000   0.0000000), wk =   0.0047393
        k(   72) = (   0.4976190   0.0047619   0.0000000), wk =   0.0047393
        k(   73) = (   0.4952381   0.0095238   0.0000000), wk =   0.0047393
        k(   74) = (   0.4928571   0.0142857   0.0000000), wk =   0.0047393
        k(   75) = (   0.4904762   0.0190476   0.0000000), wk =   0.0047393
        k(   76) = (   0.4880952   0.0238095   0.0000000), wk =   0.0047393
        k(   77) = (   0.4857143   0.0285714   0.0000000), wk =   0.0047393
        k(   78) = (   0.4833333   0.0333333   0.0000000), wk =   0.0047393
        k(   79) = (   0.4809524   0.0380952   0.0000000), wk =   0.0047393
        k(   80) = (   0.4785714   0.0428571   0.0000000), wk =   0.0047393
        k(   81) = (   0.4761905   0.0476190   0.0000000), wk =   0.0047393
        k(   82) = (   0.4738095   0.0523810   0.0000000), wk =   0.0047393
        k(   83) = (   0.4714286   0.0571429   0.0000000), wk =   0.0047393
        k(   84) = (   0.4690476   0.0619048   0.0000000), wk =   0.0047393
        k(   85) = (   0.4666667   0.0666667   0.0000000), wk =   0.0047393
        k(   86) = (   0.4642857   0.0714286   0.0000000), wk =   0.0047393
        k(   87) = (   0.4619048   0.0761905   0.0000000), wk =   0.0047393
        k(   88) = (   0.4595238   0.0809524   0.0000000), wk =   0.0047393
        k(   89) = (   0.4571429   0.0857143   0.0000000), wk =   0.0047393
        k(   90) = (   0.4547619   0.0904762   0.0000000), wk =   0.0047393
        k(   91) = (   0.4523810   0.0952381   0.0000000), wk =   0.0047393
        k(   92) = (   0.4500000   0.1000000   0.0000000), wk =   0.0047393
        k(   93) = (   0.4476190   0.1047619   0.0000000), wk =   0.0047393
        k(   94) = (   0.4452381   0.1095238   0.0000000), wk =   0.0047393
        k(   95) = (   0.4428571   0.1142857   0.0000000), wk =   0.0047393
        k(   96) = (   0.4404762   0.1190476   0.0000000), wk =   0.0047393
        k(   97) = (   0.4380952   0.1238095   0.0000000), wk =   0.0047393
        k(   98) = (   0.4357143   0.1285714   0.0000000), wk =   0.0047393
        k(   99) = (   0.4333333   0.1333333   0.0000000), wk =   0.0047393
        k(  100) = (   0.4309524   0.1380952   0.0000000), wk =   0.0047393
        k(  101) = (   0.4285714   0.1428571   0.0000000), wk =   0.0047393
        k(  102) = (   0.4261905   0.1476190   0.0000000), wk =   0.0047393
        k(  103) = (   0.4238095   0.1523810   0.0000000), wk =   0.0047393
        k(  104) = (   0.4214286   0.1571429   0.0000000), wk =   0.0047393
        k(  105) = (   0.4190476   0.1619048   0.0000000), wk =   0.0047393
        k(  106) = (   0.4166667   0.1666667   0.0000000), wk =   0.0047393
        k(  107) = (   0.4142857   0.1714286   0.0000000), wk =   0.0047393
        k(  108) = (   0.4119048   0.1761905   0.0000000), wk =   0.0047393
        k(  109) = (   0.4095238   0.1809524   0.0000000), wk =   0.0047393
        k(  110) = (   0.4071429   0.1857143   0.0000000), wk =   0.0047393
        k(  111) = (   0.4047619   0.1904762   0.0000000), wk =   0.0047393
        k(  112) = (   0.4023810   0.1952381   0.0000000), wk =   0.0047393
        k(  113) = (   0.4000000   0.2000000   0.0000000), wk =   0.0047393
        k(  114) = (   0.3976190   0.2047619   0.0000000), wk =   0.0047393
        k(  115) = (   0.3952381   0.2095238   0.0000000), wk =   0.0047393
        k(  116) = (   0.3928571   0.2142857   0.0000000), wk =   0.0047393
        k(  117) = (   0.3904762   0.2190476   0.0000000), wk =   0.0047393
        k(  118) = (   0.3880952   0.2238095   0.0000000), wk =   0.0047393
        k(  119) = (   0.3857143   0.2285714   0.0000000), wk =   0.0047393
        k(  120) = (   0.3833333   0.2333333   0.0000000), wk =   0.0047393
        k(  121) = (   0.3809524   0.2380952   0.0000000), wk =   0.0047393
        k(  122) = (   0.3785714   0.2428571   0.0000000), wk =   0.0047393
        k(  123) = (   0.3761905   0.2476190   0.0000000), wk =   0.0047393
        k(  124) = (   0.3738095   0.2523810   0.0000000), wk =   0.0047393
        k(  125) = (   0.3714286   0.2571429   0.0000000), wk =   0.0047393
        k(  126) = (   0.3690476   0.2619048   0.0000000), wk =   0.0047393
        k(  127) = (   0.3666667   0.2666667   0.0000000), wk =   0.0047393
        k(  128) = (   0.3642857   0.2714286   0.0000000), wk =   0.0047393
        k(  129) = (   0.3619048   0.2761905   0.0000000), wk =   0.0047393
        k(  130) = (   0.3595238   0.2809524   0.0000000), wk =   0.0047393
        k(  131) = (   0.3571429   0.2857143   0.0000000), wk =   0.0047393
        k(  132) = (   0.3547619   0.2904762   0.0000000), wk =   0.0047393
        k(  133) = (   0.3523810   0.2952381   0.0000000), wk =   0.0047393
        k(  134) = (   0.3500000   0.3000000   0.0000000), wk =   0.0047393
        k(  135) = (   0.3476190   0.3047619   0.0000000), wk =   0.0047393
        k(  136) = (   0.3452381   0.3095238   0.0000000), wk =   0.0047393
        k(  137) = (   0.3428571   0.3142857   0.0000000), wk =   0.0047393
        k(  138) = (   0.3404762   0.3190476   0.0000000), wk =   0.0047393
        k(  139) = (   0.3380952   0.3238095   0.0000000), wk =   0.0047393
        k(  140) = (   0.3357143   0.3285714   0.0000000), wk =   0.0047393
        k(  141) = (   0.3333333   0.3333333   0.0000000), wk =   0.0047393
        k(  142) = (   0.3285714   0.3285714   0.0000000), wk =   0.0047393
        k(  143) = (   0.3238095   0.3238095   0.0000000), wk =   0.0047393
        k(  144) = (   0.3190476   0.3190476   0.0000000), wk =   0.0047393
        k(  145) = (   0.3142857   0.3142857   0.0000000), wk =   0.0047393
        k(  146) = (   0.3095238   0.3095238   0.0000000), wk =   0.0047393
        k(  147) = (   0.3047619   0.3047619   0.0000000), wk =   0.0047393
        k(  148) = (   0.3000000   0.3000000   0.0000000), wk =   0.0047393
        k(  149) = (   0.2952381   0.2952381   0.0000000), wk =   0.0047393
        k(  150) = (   0.2904762   0.2904762   0.0000000), wk =   0.0047393
        k(  151) = (   0.2857143   0.2857143   0.0000000), wk =   0.0047393
        k(  152) = (   0.2809524   0.2809524   0.0000000), wk =   0.0047393
        k(  153) = (   0.2761905   0.2761905   0.0000000), wk =   0.0047393
        k(  154) = (   0.2714286   0.2714286   0.0000000), wk =   0.0047393
        k(  155) = (   0.2666667   0.2666667   0.0000000), wk =   0.0047393
        k(  156) = (   0.2619048   0.2619048   0.0000000), wk =   0.0047393
        k(  157) = (   0.2571429   0.2571429   0.0000000), wk =   0.0047393
        k(  158) = (   0.2523810   0.2523810   0.0000000), wk =   0.0047393
        k(  159) = (   0.2476190   0.2476190   0.0000000), wk =   0.0047393
        k(  160) = (   0.2428571   0.2428571   0.0000000), wk =   0.0047393
        k(  161) = (   0.2380952   0.2380952   0.0000000), wk =   0.0047393
        k(  162) = (   0.2333333   0.2333333   0.0000000), wk =   0.0047393
        k(  163) = (   0.2285714   0.2285714   0.0000000), wk =   0.0047393
        k(  164) = (   0.2238095   0.2238095   0.0000000), wk =   0.0047393
        k(  165) = (   0.2190476   0.2190476   0.0000000), wk =   0.0047393
        k(  166) = (   0.2142857   0.2142857   0.0000000), wk =   0.0047393
        k(  167) = (   0.2095238   0.2095238   0.0000000), wk =   0.0047393
        k(  168) = (   0.2047619   0.2047619   0.0000000), wk =   0.0047393
        k(  169) = (   0.2000000   0.2000000   0.0000000), wk =   0.0047393
        k(  170) = (   0.1952381   0.1952381   0.0000000), wk =   0.0047393
        k(  171) = (   0.1904762   0.1904762   0.0000000), wk =   0.0047393
        k(  172) = (   0.1857143   0.1857143   0.0000000), wk =   0.0047393
        k(  173) = (   0.1809524   0.1809524   0.0000000), wk =   0.0047393
        k(  174) = (   0.1761905   0.1761905   0.0000000), wk =   0.0047393
        k(  175) = (   0.1714286   0.1714286   0.0000000), wk =   0.0047393
        k(  176) = (   0.1666667   0.1666667   0.0000000), wk =   0.0047393
        k(  177) = (   0.1619048   0.1619048   0.0000000), wk =   0.0047393
        k(  178) = (   0.1571429   0.1571429   0.0000000), wk =   0.0047393
        k(  179) = (   0.1523810   0.1523810   0.0000000), wk =   0.0047393
        k(  180) = (   0.1476190   0.1476190   0.0000000), wk =   0.0047393
        k(  181) = (   0.1428571   0.1428571   0.0000000), wk =   0.0047393
        k(  182) = (   0.1380952   0.1380952   0.0000000), wk =   0.0047393
        k(  183) = (   0.1333333   0.1333333   0.0000000), wk =   0.0047393
        k(  184) = (   0.1285714   0.1285714   0.0000000), wk =   0.0047393
        k(  185) = (   0.1238095   0.1238095   0.0000000), wk =   0.0047393
        k(  186) = (   0.1190476   0.1190476   0.0000000), wk =   0.0047393
        k(  187) = (   0.1142857   0.1142857   0.0000000), wk =   0.0047393
        k(  188) = (   0.1095238   0.1095238   0.0000000), wk =   0.0047393
        k(  189) = (   0.1047619   0.1047619   0.0000000), wk =   0.0047393
        k(  190) = (   0.1000000   0.1000000   0.0000000), wk =   0.0047393
        k(  191) = (   0.0952381   0.0952381   0.0000000), wk =   0.0047393
        k(  192) = (   0.0904762   0.0904762   0.0000000), wk =   0.0047393
        k(  193) = (   0.0857143   0.0857143   0.0000000), wk =   0.0047393
        k(  194) = (   0.0809524   0.0809524   0.0000000), wk =   0.0047393
        k(  195) = (   0.0761905   0.0761905   0.0000000), wk =   0.0047393
        k(  196) = (   0.0714286   0.0714286   0.0000000), wk =   0.0047393
        k(  197) = (   0.0666667   0.0666667   0.0000000), wk =   0.0047393
        k(  198) = (   0.0619048   0.0619048   0.0000000), wk =   0.0047393
        k(  199) = (   0.0571429   0.0571429   0.0000000), wk =   0.0047393
        k(  200) = (   0.0523810   0.0523810   0.0000000), wk =   0.0047393
        k(  201) = (   0.0476190   0.0476190   0.0000000), wk =   0.0047393
        k(  202) = (   0.0428571   0.0428571   0.0000000), wk =   0.0047393
        k(  203) = (   0.0380952   0.0380952   0.0000000), wk =   0.0047393
        k(  204) = (   0.0333333   0.0333333   0.0000000), wk =   0.0047393
        k(  205) = (   0.0285714   0.0285714   0.0000000), wk =   0.0047393
        k(  206) = (   0.0238095   0.0238095   0.0000000), wk =   0.0047393
        k(  207) = (   0.0190476   0.0190476   0.0000000), wk =   0.0047393
        k(  208) = (   0.0142857   0.0142857   0.0000000), wk =   0.0047393
        k(  209) = (   0.0095238   0.0095238   0.0000000), wk =   0.0047393
        k(  210) = (   0.0047619   0.0047619   0.0000000), wk =   0.0047393
        k(  211) = (   0.0000000   0.0000000   0.0000000), wk =   0.0047393

     Dense  grid:   790163 G-vectors     FFT dimensions: (  75,  72, 360)

     Smooth grid:   200001 G-vectors     FFT dimensions: (  45,  45, 225)

     Dynamical RAM for                 wfc:       6.35 MB

     Dynamical RAM for     wfc (w. buffer):       6.35 MB

     Dynamical RAM for           str. fact:       1.00 MB

     Dynamical RAM for           local pot:       0.00 MB

     Dynamical RAM for          nlocal pot:       2.70 MB

     Dynamical RAM for                qrad:      11.12 MB

     Dynamical RAM for          rho,v,vnew:      13.44 MB

     Dynamical RAM for           G-vectors:       1.95 MB

     Dynamical RAM for          h,s,v(r/c):       1.83 MB

     Dynamical RAM for          <psi|beta>:       1.04 MB

     Dynamical RAM for                 psi:      12.71 MB

     Dynamical RAM for                hpsi:      12.71 MB

     Dynamical RAM for      wfcinit/wfcrot:      10.45 MB

     Estimated static dynamical RAM per process >      43.02 MB

     Estimated max dynamical RAM per process >      71.30 MB

     Estimated total dynamical RAM >       1.67 GB

     The potential is recalculated from file :
     tmp/Sb2Te3-uatsx-c5-soc-5.0.save/charge-density

     Starting wfcs are random

     Band Structure Calculation
     Davidson diagonalization with overlap

     Computing kpt #:     1  of   211
     total cpu time spent up to now is       20.2 secs

     Computing kpt #:     2  of   211
     total cpu time spent up to now is       37.4 secs

     Computing kpt #:     3  of   211
     total cpu time spent up to now is       52.7 secs

     Computing kpt #:     4  of   211
     total cpu time spent up to now is       67.9 secs

     Computing kpt #:     5  of   211
     total cpu time spent up to now is       84.1 secs

     Computing kpt #:     6  of   211
     total cpu time spent up to now is      100.3 secs

     Computing kpt #:     7  of   211
     total cpu time spent up to now is      116.4 secs

     Computing kpt #:     8  of   211
     total cpu time spent up to now is      131.5 secs

     Computing kpt #:     9  of   211
     total cpu time spent up to now is      146.2 secs

     Computing kpt #:    10  of   211
     total cpu time spent up to now is      160.6 secs

     Computing kpt #:    11  of   211
     total cpu time spent up to now is      174.2 secs

     Computing kpt #:    12  of   211
     total cpu time spent up to now is      187.8 secs

     Computing kpt #:    13  of   211
     total cpu time spent up to now is      201.3 secs

     Computing kpt #:    14  of   211
     total cpu time spent up to now is      215.0 secs

     Computing kpt #:    15  of   211
     total cpu time spent up to now is      228.7 secs

     Computing kpt #:    16  of   211
     total cpu time spent up to now is      243.8 secs

     Computing kpt #:    17  of   211
     total cpu time spent up to now is      259.2 secs

     Computing kpt #:    18  of   211
     total cpu time spent up to now is      274.7 secs

     Computing kpt #:    19  of   211
     total cpu time spent up to now is      291.4 secs

     Computing kpt #:    20  of   211
     total cpu time spent up to now is      307.8 secs

     Computing kpt #:    21  of   211
     total cpu time spent up to now is      325.7 secs

     Computing kpt #:    22  of   211
     total cpu time spent up to now is      342.2 secs

     Computing kpt #:    23  of   211
     total cpu time spent up to now is      357.8 secs

     Computing kpt #:    24  of   211
     total cpu time spent up to now is      373.3 secs

     Computing kpt #:    25  of   211
     total cpu time spent up to now is      388.6 secs

     Computing kpt #:    26  of   211
     total cpu time spent up to now is      404.0 secs

     Computing kpt #:    27  of   211
     total cpu time spent up to now is      419.2 secs

     Computing kpt #:    28  of   211
     total cpu time spent up to now is      434.6 secs

     Computing kpt #:    29  of   211
     total cpu time spent up to now is      450.0 secs

     Computing kpt #:    30  of   211
     total cpu time spent up to now is      466.5 secs

     Computing kpt #:    31  of   211
     total cpu time spent up to now is      483.0 secs

     Computing kpt #:    32  of   211
     total cpu time spent up to now is      499.4 secs

     Computing kpt #:    33  of   211
     total cpu time spent up to now is      515.7 secs

     Computing kpt #:    34  of   211
     total cpu time spent up to now is      531.8 secs

     Computing kpt #:    35  of   211
     total cpu time spent up to now is      546.9 secs

     Computing kpt #:    36  of   211
     total cpu time spent up to now is      561.9 secs

     Computing kpt #:    37  of   211
     total cpu time spent up to now is      576.6 secs

     Computing kpt #:    38  of   211
     total cpu time spent up to now is      591.4 secs

     Computing kpt #:    39  of   211
     total cpu time spent up to now is      606.2 secs

     Computing kpt #:    40  of   211
     total cpu time spent up to now is      621.2 secs

     Computing kpt #:    41  of   211
     total cpu time spent up to now is      636.1 secs

     Computing kpt #:    42  of   211
     total cpu time spent up to now is      651.0 secs

     Computing kpt #:    43  of   211
     total cpu time spent up to now is      665.9 secs

     Computing kpt #:    44  of   211
     total cpu time spent up to now is      680.6 secs

     Computing kpt #:    45  of   211
     total cpu time spent up to now is      695.3 secs

     Computing kpt #:    46  of   211
     total cpu time spent up to now is      709.1 secs

     Computing kpt #:    47  of   211
     total cpu time spent up to now is      722.9 secs

     Computing kpt #:    48  of   211
     total cpu time spent up to now is      736.7 secs

     Computing kpt #:    49  of   211
     total cpu time spent up to now is      750.5 secs

     Computing kpt #:    50  of   211
     total cpu time spent up to now is      765.3 secs

     Computing kpt #:    51  of   211
     total cpu time spent up to now is      779.1 secs

     Computing kpt #:    52  of   211
     total cpu time spent up to now is      793.7 secs

     Computing kpt #:    53  of   211
     total cpu time spent up to now is      807.5 secs

     Computing kpt #:    54  of   211
     total cpu time spent up to now is      822.1 secs

     Computing kpt #:    55  of   211
     total cpu time spent up to now is      836.6 secs

     Computing kpt #:    56  of   211
     total cpu time spent up to now is      851.1 secs

     Computing kpt #:    57  of   211
     total cpu time spent up to now is      865.0 secs

     Computing kpt #:    58  of   211
     total cpu time spent up to now is      879.7 secs

     Computing kpt #:    59  of   211
     total cpu time spent up to now is      894.7 secs

     Computing kpt #:    60  of   211
     total cpu time spent up to now is      909.5 secs

     Computing kpt #:    61  of   211
     total cpu time spent up to now is      924.3 secs

     Computing kpt #:    62  of   211
     total cpu time spent up to now is      939.1 secs

     Computing kpt #:    63  of   211
     total cpu time spent up to now is      953.9 secs

     Computing kpt #:    64  of   211
     total cpu time spent up to now is      968.5 secs

     Computing kpt #:    65  of   211
     total cpu time spent up to now is      983.5 secs

     Computing kpt #:    66  of   211
     total cpu time spent up to now is      998.7 secs

     Computing kpt #:    67  of   211
     total cpu time spent up to now is     1015.1 secs

     Computing kpt #:    68  of   211
     total cpu time spent up to now is     1030.4 secs

     Computing kpt #:    69  of   211
     total cpu time spent up to now is     1046.2 secs

     Computing kpt #:    70  of   211
     total cpu time spent up to now is     1061.8 secs

     Computing kpt #:    71  of   211
     total cpu time spent up to now is     1076.9 secs

     Computing kpt #:    72  of   211
     total cpu time spent up to now is     1092.5 secs

     Computing kpt #:    73  of   211
     total cpu time spent up to now is     1107.8 secs

     Computing kpt #:    74  of   211
     total cpu time spent up to now is     1123.5 secs

     Computing kpt #:    75  of   211
     total cpu time spent up to now is     1138.7 secs

     Computing kpt #:    76  of   211
     total cpu time spent up to now is     1155.2 secs

     Computing kpt #:    77  of   211
     total cpu time spent up to now is     1171.8 secs

     Computing kpt #:    78  of   211
     total cpu time spent up to now is     1187.4 secs

     Computing kpt #:    79  of   211
     total cpu time spent up to now is     1203.1 secs

     Computing kpt #:    80  of   211
     total cpu time spent up to now is     1218.6 secs

     Computing kpt #:    81  of   211
     total cpu time spent up to now is     1234.0 secs

     Computing kpt #:    82  of   211
     total cpu time spent up to now is     1249.5 secs

     Computing kpt #:    83  of   211
     total cpu time spent up to now is     1264.4 secs

     Computing kpt #:    84  of   211
     total cpu time spent up to now is     1279.9 secs

     Computing kpt #:    85  of   211
     total cpu time spent up to now is     1295.2 secs

     Computing kpt #:    86  of   211
     total cpu time spent up to now is     1310.5 secs

     Computing kpt #:    87  of   211
     total cpu time spent up to now is     1325.9 secs

     Computing kpt #:    88  of   211
     total cpu time spent up to now is     1341.5 secs

     Computing kpt #:    89  of   211
     total cpu time spent up to now is     1358.1 secs

     Computing kpt #:    90  of   211
     total cpu time spent up to now is     1373.6 secs

     Computing kpt #:    91  of   211
     total cpu time spent up to now is     1390.3 secs

     Computing kpt #:    92  of   211
     total cpu time spent up to now is     1407.0 secs

     Computing kpt #:    93  of   211
     total cpu time spent up to now is     1423.7 secs

     Computing kpt #:    94  of   211
     total cpu time spent up to now is     1440.7 secs

     Computing kpt #:    95  of   211
     total cpu time spent up to now is     1457.4 secs

     Computing kpt #:    96  of   211
     total cpu time spent up to now is     1472.7 secs

     Computing kpt #:    97  of   211
     total cpu time spent up to now is     1488.4 secs

     Computing kpt #:    98  of   211
     total cpu time spent up to now is     1504.0 secs

     Computing kpt #:    99  of   211
     total cpu time spent up to now is     1519.6 secs

     Computing kpt #:   100  of   211
     total cpu time spent up to now is     1534.7 secs

     Computing kpt #:   101  of   211
     total cpu time spent up to now is     1549.9 secs

     Computing kpt #:   102  of   211
     total cpu time spent up to now is     1564.9 secs

     Computing kpt #:   103  of   211
     total cpu time spent up to now is     1580.0 secs

     Computing kpt #:   104  of   211
     total cpu time spent up to now is     1595.0 secs

     Computing kpt #:   105  of   211
     total cpu time spent up to now is     1610.2 secs

     Computing kpt #:   106  of   211
     total cpu time spent up to now is     1626.3 secs

     Computing kpt #:   107  of   211
     total cpu time spent up to now is     1642.4 secs

     Computing kpt #:   108  of   211
     total cpu time spent up to now is     1658.6 secs

     Computing kpt #:   109  of   211
     total cpu time spent up to now is     1674.8 secs

     Computing kpt #:   110  of   211
     total cpu time spent up to now is     1691.1 secs

     Computing kpt #:   111  of   211
     total cpu time spent up to now is     1707.4 secs

     Computing kpt #:   112  of   211
     total cpu time spent up to now is     1722.7 secs

     Computing kpt #:   113  of   211
     total cpu time spent up to now is     1738.1 secs

     Computing kpt #:   114  of   211
     total cpu time spent up to now is     1753.3 secs

     Computing kpt #:   115  of   211
     total cpu time spent up to now is     1768.7 secs

     Computing kpt #:   116  of   211
     total cpu time spent up to now is     1784.3 secs

     Computing kpt #:   117  of   211
     total cpu time spent up to now is     1800.5 secs

     Computing kpt #:   118  of   211
     total cpu time spent up to now is     1816.1 secs

     Computing kpt #:   119  of   211
     total cpu time spent up to now is     1831.6 secs

     Computing kpt #:   120  of   211
     total cpu time spent up to now is     1847.2 secs

     Computing kpt #:   121  of   211
     total cpu time spent up to now is     1863.6 secs

     Computing kpt #:   122  of   211
     total cpu time spent up to now is     1880.8 secs

     Computing kpt #:   123  of   211
     total cpu time spent up to now is     1899.2 secs

     Computing kpt #:   124  of   211
     c_bands:  2 eigenvalues not converged
     total cpu time spent up to now is     1919.4 secs

     Computing kpt #:   125  of   211
     total cpu time spent up to now is     1938.1 secs

     Computing kpt #:   126  of   211
     total cpu time spent up to now is     1955.0 secs

     Computing kpt #:   127  of   211
     total cpu time spent up to now is     1971.6 secs

     Computing kpt #:   128  of   211
     total cpu time spent up to now is     1987.2 secs

     Computing kpt #:   129  of   211
     total cpu time spent up to now is     2002.9 secs

     Computing kpt #:   130  of   211
     total cpu time spent up to now is     2019.7 secs

     Computing kpt #:   131  of   211
     total cpu time spent up to now is     2036.4 secs

     Computing kpt #:   132  of   211
     total cpu time spent up to now is     2053.1 secs

     Computing kpt #:   133  of   211
     total cpu time spent up to now is     2070.0 secs

     Computing kpt #:   134  of   211
     total cpu time spent up to now is     2087.2 secs

     Computing kpt #:   135  of   211
     total cpu time spent up to now is     2103.9 secs

     Computing kpt #:   136  of   211
     total cpu time spent up to now is     2121.3 secs

     Computing kpt #:   137  of   211
     total cpu time spent up to now is     2138.1 secs

     Computing kpt #:   138  of   211
     total cpu time spent up to now is     2155.4 secs

     Computing kpt #:   139  of   211
     total cpu time spent up to now is     2172.7 secs

     Computing kpt #:   140  of   211
     total cpu time spent up to now is     2190.2 secs

     Computing kpt #:   141  of   211
     total cpu time spent up to now is     2210.5 secs

     Computing kpt #:   142  of   211
     total cpu time spent up to now is     2231.1 secs

     Computing kpt #:   143  of   211
     total cpu time spent up to now is     2249.4 secs

     Computing kpt #:   144  of   211
     total cpu time spent up to now is     2266.5 secs

     Computing kpt #:   145  of   211
     total cpu time spent up to now is     2283.5 secs

     Computing kpt #:   146  of   211
     total cpu time spent up to now is     2300.3 secs

     Computing kpt #:   147  of   211
     total cpu time spent up to now is     2316.3 secs

     Computing kpt #:   148  of   211
     total cpu time spent up to now is     2333.4 secs

     Computing kpt #:   149  of   211
     total cpu time spent up to now is     2350.7 secs

     Computing kpt #:   150  of   211
     total cpu time spent up to now is     2367.5 secs

     Computing kpt #:   151  of   211
     total cpu time spent up to now is     2383.3 secs

     Computing kpt #:   152  of   211
     total cpu time spent up to now is     2398.8 secs

     Computing kpt #:   153  of   211
     total cpu time spent up to now is     2414.5 secs

     Computing kpt #:   154  of   211
     total cpu time spent up to now is     2430.0 secs

     Computing kpt #:   155  of   211
     total cpu time spent up to now is     2445.5 secs

     Computing kpt #:   156  of   211
     total cpu time spent up to now is     2460.9 secs

     Computing kpt #:   157  of   211
     total cpu time spent up to now is     2476.6 secs

     Computing kpt #:   158  of   211
     total cpu time spent up to now is     2492.1 secs

     Computing kpt #:   159  of   211
     total cpu time spent up to now is     2507.6 secs

     Computing kpt #:   160  of   211
     total cpu time spent up to now is     2523.2 secs

     Computing kpt #:   161  of   211
     total cpu time spent up to now is     2539.7 secs

     Computing kpt #:   162  of   211
     total cpu time spent up to now is     2557.8 secs

     Computing kpt #:   163  of   211
     total cpu time spent up to now is     2573.4 secs

     Computing kpt #:   164  of   211
     total cpu time spent up to now is     2588.6 secs

     Computing kpt #:   165  of   211
     total cpu time spent up to now is     2603.6 secs

     Computing kpt #:   166  of   211
     total cpu time spent up to now is     2618.8 secs

     Computing kpt #:   167  of   211
     total cpu time spent up to now is     2635.1 secs

     Computing kpt #:   168  of   211
     total cpu time spent up to now is     2651.8 secs

     Computing kpt #:   169  of   211
     total cpu time spent up to now is     2666.9 secs

     Computing kpt #:   170  of   211
     total cpu time spent up to now is     2681.8 secs

     Computing kpt #:   171  of   211
     total cpu time spent up to now is     2696.7 secs

     Computing kpt #:   172  of   211
     total cpu time spent up to now is     2711.3 secs

     Computing kpt #:   173  of   211
     total cpu time spent up to now is     2726.2 secs

     Computing kpt #:   174  of   211
     total cpu time spent up to now is     2741.0 secs

     Computing kpt #:   175  of   211
     total cpu time spent up to now is     2756.0 secs

     Computing kpt #:   176  of   211
     total cpu time spent up to now is     2772.1 secs

     Computing kpt #:   177  of   211
     total cpu time spent up to now is     2788.8 secs

     Computing kpt #:   178  of   211
     total cpu time spent up to now is     2806.4 secs

     Computing kpt #:   179  of   211
     total cpu time spent up to now is     2822.9 secs

     Computing kpt #:   180  of   211
     total cpu time spent up to now is     2838.1 secs

     Computing kpt #:   181  of   211
     total cpu time spent up to now is     2853.4 secs

     Computing kpt #:   182  of   211
     total cpu time spent up to now is     2868.6 secs

     Computing kpt #:   183  of   211
     total cpu time spent up to now is     2884.1 secs

     Computing kpt #:   184  of   211
     total cpu time spent up to now is     2900.4 secs

     Computing kpt #:   185  of   211
     total cpu time spent up to now is     2915.9 secs

     Computing kpt #:   186  of   211
     total cpu time spent up to now is     2931.2 secs

     Computing kpt #:   187  of   211
     total cpu time spent up to now is     2946.4 secs

     Computing kpt #:   188  of   211
     total cpu time spent up to now is     2961.7 secs

     Computing kpt #:   189  of   211
     total cpu time spent up to now is     2977.0 secs

     Computing kpt #:   190  of   211
     total cpu time spent up to now is     2992.4 secs

     Computing kpt #:   191  of   211
     total cpu time spent up to now is     3007.8 secs

     Computing kpt #:   192  of   211
     total cpu time spent up to now is     3024.8 secs

     Computing kpt #:   193  of   211
     total cpu time spent up to now is     3040.5 secs

     Computing kpt #:   194  of   211
     total cpu time spent up to now is     3056.1 secs

     Computing kpt #:   195  of   211
     total cpu time spent up to now is     3071.6 secs

     Computing kpt #:   196  of   211
     total cpu time spent up to now is     3087.9 secs

     Computing kpt #:   197  of   211
     total cpu time spent up to now is     3103.2 secs

     Computing kpt #:   198  of   211
     total cpu time spent up to now is     3118.2 secs

     Computing kpt #:   199  of   211
     total cpu time spent up to now is     3133.5 secs

     Computing kpt #:   200  of   211
     total cpu time spent up to now is     3148.8 secs

     Computing kpt #:   201  of   211
     total cpu time spent up to now is     3164.3 secs

     Computing kpt #:   202  of   211
     total cpu time spent up to now is     3180.9 secs

     Computing kpt #:   203  of   211
     total cpu time spent up to now is     3197.4 secs

     Computing kpt #:   204  of   211
     total cpu time spent up to now is     3213.8 secs

     Computing kpt #:   205  of   211
     total cpu time spent up to now is     3230.1 secs

     Computing kpt #:   206  of   211
     total cpu time spent up to now is     3245.6 secs

     Computing kpt #:   207  of   211
     total cpu time spent up to now is     3262.4 secs

     Computing kpt #:   208  of   211
     total cpu time spent up to now is     3278.9 secs

     Computing kpt #:   209  of   211
     total cpu time spent up to now is     3295.3 secs

     Computing kpt #:   210  of   211
     total cpu time spent up to now is     3313.4 secs

     Computing kpt #:   211  of   211
     total cpu time spent up to now is     3329.8 secs

     ethr =  1.28E-10,  avg # of iterations = 58.1

     total cpu time spent up to now is     3329.8 secs

     End of band structure calculation

          k = 0.0000 0.0000 0.0000 ( 24991 PWs)   bands (ev):

   -35.7027 -35.7027 -35.7006 -35.7006 -35.6663 -35.6663 -35.6642 -35.6642
   -35.5974 -35.5974 -35.5673 -35.5673 -34.2448 -34.2448 -34.2427 -34.2427
   -34.2144 -34.2144 -34.2123 -34.2123 -34.1975 -34.1975 -34.1954 -34.1954
   -34.1365 -34.1365 -34.1176 -34.1176 -34.0968 -34.0968 -28.3575 -28.3575
   -28.3562 -28.3562 -28.3488 -28.3488 -28.3475 -28.3475 -27.1178 -27.1178
   -27.1165 -27.1165 -27.1099 -27.1099 -27.1086 -27.1086 -27.1057 -27.1057
   -27.1044 -27.1044 -10.7495 -10.7495 -10.2081 -10.2081  -9.1398  -9.1398
    -6.4139  -6.4139  -5.0977  -5.0977  -0.7268  -0.7268  -0.3260  -0.3260
    -0.0115  -0.0115   0.2188   0.2188   0.3376   0.3376   0.3913   0.3913
     0.7105   0.7105   0.9297   0.9297   1.1562   1.1562   1.7113   1.7113
     2.4320   2.4320   2.8360   2.8360   2.9786   2.9786   3.7038   3.7038
     3.9774   3.9774   6.0463   6.0463   6.2244   6.2244   6.8944   6.8944
     7.0766   7.0766   7.3923   7.3923   7.7482   7.7482   8.1711   8.1711
     8.3882   8.3882   8.4329   8.4329   8.5258   8.5258   9.1073   9.1073
     9.2959   9.2959   9.5338   9.5338   9.8811   9.8811   9.9021   9.9021
    10.3691  10.3691  10.6667  10.6667  11.1856  11.1856  11.2419  11.2419
    11.3934  11.3934  11.5685  11.5685  12.6636  12.6636  12.7058  12.7058
    13.4621  13.4621  13.7563  13.7563  14.0289  14.0289  14.0821  14.0821
    14.3133  14.3133  14.8586  14.8586  15.2183  15.2183  15.5470  15.5470
    15.7633  15.7633  15.9062  15.9062  15.9330  15.9330  16.1656  16.1656
    16.4524  16.4524  16.4552  16.4552  16.5867  16.5867  16.6377  16.6377
    16.7687  16.7687  16.9436  16.9436  17.0003  17.0003  17.0955  17.0955
    17.2415  17.2415  17.3698  17.3698  17.4358  17.4358  17.5955  17.5955
    17.6824  17.6824  17.8933  17.8933  18.4385  18.4385  18.4706  18.4706
    18.5819  18.5819  18.7729  18.7729  18.9755  18.9755  19.0363  19.0363

          k = 0.0071 0.0041 0.0000 ( 24985 PWs)   bands (ev):

   -35.7027 -35.7027 -35.7006 -35.7006 -35.6663 -35.6663 -35.6642 -35.6642
   -35.5974 -35.5974 -35.5673 -35.5673 -34.2448 -34.2448 -34.2427 -34.2427
   -34.2144 -34.2144 -34.2123 -34.2123 -34.1975 -34.1975 -34.1954 -34.1954
   -34.1365 -34.1365 -34.1176 -34.1176 -34.0968 -34.0968 -28.3575 -28.3575
   -28.3562 -28.3562 -28.3488 -28.3488 -28.3475 -28.3475 -27.1178 -27.1178
   -27.1165 -27.1165 -27.1099 -27.1099 -27.1086 -27.1086 -27.1057 -27.1057
   -27.1044 -27.1044 -10.7491 -10.7491 -10.2077 -10.2077  -9.1396  -9.1396
    -6.4140  -6.4140  -5.0986  -5.0986  -0.7276  -0.7276  -0.3325  -0.3323
    -0.0103  -0.0101   0.2102   0.2106   0.3311   0.3313   0.4021   0.4027
     0.7121   0.7123   0.9279   0.9281   1.1570   1.1570   1.7182   1.7183
     2.4303   2.4304   2.8283   2.8287   2.9881   2.9884   3.7054   3.7055
     3.9772   3.9772   6.0470   6.0470   6.2244   6.2244   6.8946   6.8946
     7.0748   7.0748   7.3920   7.3920   7.7480   7.7480   8.1737   8.1737
     8.3832   8.3834   8.4379   8.4382   8.5239   8.5240   9.1046   9.1046
     9.3035   9.3035   9.5358   9.5358   9.8774   9.8774   9.9047   9.9047
    10.3699  10.3699  10.6693  10.6693  11.1629  11.1631  11.2506  11.2509
    11.4029  11.4030  11.5760  11.5761  12.6619  12.6619  12.7066  12.7066
    13.4534  13.4534  13.7628  13.7629  14.0141  14.0142  14.0970  14.0970
    14.3160  14.3160  14.8579  14.8579  15.1970  15.1971  15.5626  15.5626
    15.7649  15.7650  15.8879  15.8880  15.9511  15.9512  16.1621  16.1621
    16.3898  16.3898  16.4769  16.4769  16.5658  16.5658  16.6481  16.6482
    16.8142  16.8142  16.9405  16.9405  16.9976  16.9976  17.1139  17.1139
    17.2341  17.2341  17.3781  17.3781  17.4255  17.4255  17.6136  17.6136
    17.6756  17.6756  17.9047  17.9047  18.3609  18.3609  18.4743  18.4743
    18.6063  18.6063  18.8187  18.8188  18.9425  18.9425  19.0664  19.0665

          k = 0.0143 0.0082 0.0000 ( 24985 PWs)   bands (ev):

   -35.7027 -35.7027 -35.7006 -35.7006 -35.6663 -35.6663 -35.6642 -35.6642
   -35.5974 -35.5974 -35.5673 -35.5673 -34.2448 -34.2448 -34.2427 -34.2427
   -34.2144 -34.2144 -34.2123 -34.2123 -34.1975 -34.1975 -34.1954 -34.1954
   -34.1365 -34.1365 -34.1176 -34.1176 -34.0968 -34.0968 -28.3575 -28.3575
   -28.3562 -28.3562 -28.3488 -28.3487 -28.3475 -28.3475 -27.1178 -27.1178
   -27.1165 -27.1165 -27.1099 -27.1099 -27.1086 -27.1086 -27.1057 -27.1057
   -27.1044 -27.1044 -10.7479 -10.7479 -10.2066 -10.2066  -9.1390  -9.1390
    -6.4144  -6.4144  -5.1012  -5.1012  -0.7302  -0.7302  -0.3512  -0.3509
    -0.0073  -0.0070   0.1871   0.1878   0.3213   0.3214   0.4237   0.4246
     0.7170   0.7174   0.9228   0.9232   1.1604   1.1604   1.7383   1.7384
     2.4253   2.4254   2.8110   2.8115   3.0117   3.0123   3.7102   3.7104
     3.9765   3.9766   6.0491   6.0492   6.2245   6.2245   6.8951   6.8951
     7.0694   7.0694   7.3911   7.3911   7.7476   7.7476   8.1811   8.1811
     8.3722   8.3725   8.4485   8.4490   8.5196   8.5199   9.0976   9.0976
     9.3249   9.3249   9.5417   9.5417   9.8679   9.8679   9.9110   9.9110
    10.3728  10.3728  10.6766  10.6766  11.1213  11.1215  11.2526  11.2529
    11.4323  11.4325  11.5969  11.5970  12.6570  12.6570  12.7090  12.7091
    13.4301  13.4302  13.7785  13.7785  13.9897  13.9897  14.1224  14.1224
    14.3248  14.3248  14.8522  14.8522  15.1519  15.1519  15.5863  15.5863
    15.7781  15.7781  15.8604  15.8605  15.9729  15.9729  16.1526  16.1527
    16.3258  16.3258  16.4398  16.4398  16.5070  16.5071  16.7336  16.7336
    16.8555  16.8555  16.9302  16.9302  17.0241  17.0242  17.1462  17.1462
    17.2258  17.2259  17.3828  17.3829  17.4205  17.4206  17.6476  17.6477
    17.6703  17.6704  17.9305  17.9305  18.2684  18.2684  18.3892  18.3892
    18.6806  18.6806  18.8957  18.8959  18.9148  18.9149  19.0364  19.0364

          k = 0.0214 0.0124 0.0000 ( 24991 PWs)   bands (ev):

   -35.7027 -35.7027 -35.7006 -35.7006 -35.6663 -35.6663 -35.6642 -35.6642
   -35.5974 -35.5974 -35.5673 -35.5673 -34.2448 -34.2448 -34.2427 -34.2427
   -34.2144 -34.2144 -34.2123 -34.2123 -34.1975 -34.1975 -34.1954 -34.1954
   -34.1365 -34.1365 -34.1176 -34.1176 -34.0968 -34.0968 -28.3575 -28.3575
   -28.3562 -28.3562 -28.3488 -28.3487 -28.3475 -28.3475 -27.1178 -27.1178
   -27.1165 -27.1165 -27.1099 -27.1099 -27.1086 -27.1086 -27.1057 -27.1057
   -27.1044 -27.1044 -10.7459 -10.7459 -10.2048 -10.2048  -9.1380  -9.1380
    -6.4151  -6.4151  -5.1056  -5.1056  -0.7345  -0.7345  -0.3802  -0.3798
    -0.0041  -0.0036   0.1543   0.1552   0.3134   0.3135   0.4453   0.4464
     0.7245   0.7251   0.9153   0.9158   1.1681   1.1682   1.7694   1.7696
     2.4167   2.4169   2.7916   2.7922   3.0422   3.0429   3.7181   3.7183
     3.9755   3.9757   6.0527   6.0527   6.2247   6.2247   6.8958   6.8958
     7.0605   7.0605   7.3897   7.3897   7.7473   7.7473   8.1922   8.1922
     8.3593   8.3596   8.4575   8.4582   8.5179   8.5183   9.0882   9.0883
     9.3568   9.3568   9.5511   9.5512   9.8544   9.8544   9.9200   9.9200
    10.3781  10.3781  10.6872  10.6872  11.0770  11.0772  11.2403  11.2405
    11.4768  11.4771  11.6276  11.6277  12.6490  12.6490  12.7129  12.7129
    13.3981  13.3981  13.7939  13.7940  13.9700  13.9700  14.1468  14.1469
    14.3407  14.3408  14.8303  14.8303  15.1141  15.1142  15.5861  15.5862
    15.8016  15.8016  15.8363  15.8364  15.9815  15.9816  16.1463  16.1464
    16.2843  16.2843  16.3416  16.3416  16.4994  16.4994  16.8052  16.8052
    16.8520  16.8520  16.9443  16.9443  17.0720  17.0720  17.1605  17.1606
    17.2491  17.2491  17.3812  17.3812  17.4325  17.4326  17.6531  17.6531
    17.7100  17.7100  17.9529  17.9530  18.1949  18.1950  18.2843  18.2843
    18.7176  18.7177  18.9087  18.9087  18.9736  18.9736  19.0185  19.0185

          k = 0.0286 0.0165 0.0000 ( 24987 PWs)   bands (ev):

   -35.7027 -35.7027 -35.7006 -35.7006 -35.6663 -35.6663 -35.6642 -35.6642
   -35.5974 -35.5974 -35.5673 -35.5673 -34.2448 -34.2448 -34.2427 -34.2427
   -34.2144 -34.2144 -34.2123 -34.2123 -34.1975 -34.1974 -34.1954 -34.1954
   -34.1365 -34.1365 -34.1176 -34.1176 -34.0968 -34.0968 -28.3575 -28.3574
   -28.3562 -28.3562 -28.3488 -28.3487 -28.3475 -28.3475 -27.1178 -27.1178
   -27.1165 -27.1165 -27.1099 -27.1098 -27.1086 -27.1086 -27.1057 -27.1057
   -27.1044 -27.1044 -10.7431 -10.7431 -10.2023 -10.2023  -9.1365  -9.1365
    -6.4160  -6.4160  -5.1116  -5.1116  -0.7406  -0.7405  -0.4178  -0.4173
    -0.0026  -0.0021   0.1167   0.1176   0.3067   0.3069   0.4627   0.4638
     0.7331   0.7337   0.9078   0.9084   1.1817   1.1819   1.8089   1.8092
     2.4048   2.4050   2.7749   2.7754   3.0753   3.0760   3.7288   3.7290
     3.9747   3.9749   6.0576   6.0577   6.2249   6.2249   6.8963   6.8964
     7.0486   7.0486   7.3880   7.3880   7.7477   7.7477   8.2053   8.2053
     8.3459   8.3463   8.4588   8.4595   8.5254   8.5258   9.0782   9.0782
     9.3957   9.3958   9.5637   9.5637   9.8380   9.8381   9.9320   9.9321
    10.3865  10.3866  10.6986  10.6986  11.0350  11.0352  11.2199  11.2201
    11.5291  11.5293  11.6649  11.6651  12.6381  12.6381  12.7180  12.7181
    13.3619  13.3620  13.7991  13.7992  13.9615  13.9615  14.1692  14.1692
    14.3635  14.3635  14.7825  14.7825  15.1039  15.1039  15.5614  15.5615
    15.7658  15.7658  15.8495  15.8496  15.9923  15.9924  16.1491  16.1492
    16.2336  16.2336  16.2782  16.2782  16.5012  16.5012  16.7881  16.7881
    16.8656  16.8656  17.0040  17.0040  17.1025  17.1025  17.1488  17.1488
    17.3128  17.3128  17.4023  17.4023  17.4427  17.4427  17.6681  17.6681
    17.7527  17.7527  17.9540  17.9540  18.1478  18.1478  18.1948  18.1949
    18.6946  18.6946  18.9363  18.9364  18.9645  18.9646  19.0884  19.0884

          k = 0.0357 0.0206 0.0000 ( 24989 PWs)   bands (ev):

   -35.7027 -35.7027 -35.7006 -35.7006 -35.6663 -35.6663 -35.6642 -35.6642
   -35.5974 -35.5974 -35.5673 -35.5673 -34.2448 -34.2448 -34.2427 -34.2427
   -34.2144 -34.2144 -34.2123 -34.2123 -34.1975 -34.1974 -34.1954 -34.1954
   -34.1365 -34.1365 -34.1176 -34.1176 -34.0968 -34.0968 -28.3575 -28.3574
   -28.3562 -28.3562 -28.3488 -28.3487 -28.3475 -28.3475 -27.1178 -27.1178
   -27.1165 -27.1165 -27.1099 -27.1098 -27.1086 -27.1086 -27.1057 -27.1057
   -27.1044 -27.1044 -10.7395 -10.7395 -10.1990 -10.1990  -9.1347  -9.1347
    -6.4171  -6.4171  -5.1195  -5.1195  -0.7483  -0.7483  -0.4620  -0.4614
    -0.0049  -0.0044   0.0775   0.0785   0.3000   0.3002   0.4740   0.4751
     0.7400   0.7408   0.9045   0.9053   1.2014   1.2016   1.8541   1.8544
     2.3901   2.3904   2.7630   2.7635   3.1087   3.1094   3.7419   3.7421
     3.9745   3.9747   6.0640   6.0640   6.2252   6.2252   6.8963   6.8963
     7.0343   7.0344   7.3864   7.3864   7.7493   7.7493   8.2172   8.2173
     8.3342   8.3345   8.4536   8.4542   8.5429   8.5432   9.0683   9.0684
     9.4384   9.4384   9.5788   9.5789   9.8205   9.8205   9.9474   9.9475
    10.3987  10.3987  10.7078  10.7078  10.9988  10.9990  11.1964  11.1966
    11.5846  11.5848  11.7069  11.7071  12.6245  12.6245  12.7246  12.7246
    13.3249  13.3250  13.7898  13.7898  13.9647  13.9648  14.1918  14.1918
    14.3901  14.3902  14.7150  14.7151  15.1205  15.1205  15.5215  15.5216
    15.7005  15.7006  15.8336  15.8336  16.0356  16.0357  16.1054  16.1054
    16.1980  16.1980  16.2813  16.2814  16.5089  16.5089  16.7493  16.7493
    16.8528  16.8528  17.0779  17.0779  17.1014  17.1014  17.1558  17.1559
    17.3640  17.3640  17.4411  17.4411  17.4829  17.4829  17.6881  17.6881
    17.7789  17.7790  17.9540  17.9540  18.0520  18.0520  18.2028  18.2028
    18.6483  18.6483  18.8920  18.8921  19.0006  19.0006  19.1546  19.1546

          k = 0.0429 0.0247 0.0000 ( 24983 PWs)   bands (ev):

   -35.7027 -35.7027 -35.7006 -35.7006 -35.6663 -35.6663 -35.6642 -35.6642
   -35.5974 -35.5974 -35.5673 -35.5673 -34.2448 -34.2448 -34.2427 -34.2427
   -34.2144 -34.2144 -34.2123 -34.2123 -34.1975 -34.1974 -34.1954 -34.1954
   -34.1365 -34.1365 -34.1176 -34.1176 -34.0968 -34.0968 -28.3575 -28.3574
   -28.3562 -28.3562 -28.3488 -28.3487 -28.3475 -28.3475 -27.1178 -27.1178
   -27.1165 -27.1165 -27.1099 -27.1098 -27.1086 -27.1086 -27.1057 -27.1057
   -27.1044 -27.1044 -10.7350 -10.7350 -10.1950 -10.1950  -9.1324  -9.1324
    -6.4186  -6.4186  -5.1290  -5.1290  -0.7579  -0.7578  -0.5114  -0.5108
    -0.0142  -0.0138   0.0411   0.0420   0.2921   0.2924   0.4784   0.4794
     0.7431   0.7439   0.9098   0.9106   1.2263   1.2265   1.9022   1.9026
     2.3742   2.3744   2.7570   2.7574   3.1412   3.1420   3.7567   3.7569
     3.9757   3.9759   6.0716   6.0716   6.2253   6.2254   6.8947   6.8947
     7.0188   7.0188   7.3849   7.3849   7.7525   7.7525   8.2229   8.2230
     8.3283   8.3285   8.4468   8.4473   8.5664   8.5666   9.0592   9.0593
     9.4808   9.4808   9.5962   9.5962   9.8044   9.8045   9.9666   9.9667
    10.4147  10.4147  10.7108  10.7109  10.9718  10.9720  11.1725  11.1727
    11.6408  11.6411  11.7525  11.7528  12.6083  12.6083  12.7325  12.7325
    13.2890  13.2890  13.7697  13.7698  13.9727  13.9728  14.2175  14.2175
    14.4132  14.4133  14.6449  14.6450  15.1533  15.1534  15.4685  15.4685
    15.6273  15.6274  15.7917  15.7917  16.0096  16.0096  16.1003  16.1003
    16.2138  16.2139  16.3026  16.3026  16.5233  16.5234  16.7137  16.7137
    16.8242  16.8242  17.0596  17.0596  17.1101  17.1101  17.2331  17.2331
    17.3720  17.3720  17.4802  17.4802  17.5722  17.5722  17.6862  17.6863
    17.8106  17.8107  17.9388  17.9388  17.9959  17.9959  18.2478  18.2478
    18.5964  18.5964  18.8469  18.8469  18.9950  18.9950  19.1525  19.1525

          k = 0.0500 0.0289 0.0000 ( 24975 PWs)   bands (ev):

   -35.7027 -35.7027 -35.7006 -35.7006 -35.6663 -35.6663 -35.6642 -35.6642
   -35.5974 -35.5974 -35.5673 -35.5673 -34.2448 -34.2448 -34.2427 -34.2427
   -34.2144 -34.2144 -34.2123 -34.2123 -34.1975 -34.1974 -34.1954 -34.1954
   -34.1365 -34.1365 -34.1176 -34.1176 -34.0968 -34.0968 -28.3575 -28.3574
   -28.3562 -28.3562 -28.3488 -28.3487 -28.3475 -28.3475 -27.1178 -27.1178
   -27.1165 -27.1165 -27.1099 -27.1098 -27.1086 -27.1086 -27.1057 -27.1056
   -27.1044 -27.1044 -10.7298 -10.7298 -10.1903 -10.1903  -9.1298  -9.1298
    -6.4203  -6.4203  -5.1402  -5.1402  -0.7694  -0.7693  -0.5646  -0.5639
    -0.0370  -0.0366   0.0143   0.0149   0.2821   0.2824   0.4759   0.4768
     0.7428   0.7436   0.9248   0.9255   1.2548   1.2551   1.9505   1.9510
     2.3594   2.3596   2.7569   2.7573   3.1723   3.1730   3.7723   3.7725
     3.9792   3.9794   6.0805   6.0806   6.2254   6.2255   6.8900   6.8900
     7.0039   7.0040   7.3838   7.3838   7.7575   7.7575   8.2175   8.2176
     8.3324   8.3326   8.4415   8.4419   8.5935   8.5936   9.0513   9.0513
     9.5173   9.5173   9.6162   9.6162   9.7939   9.7940   9.9899   9.9899
    10.4347  10.4347  10.7045  10.7046  10.9571  10.9572  11.1497  11.1499
    11.6961  11.6965  11.8010  11.8013  12.5900  12.5900  12.7418  12.7418
    13.2554  13.2554  13.7443  13.7443  13.9782  13.9783  14.2468  14.2469
    14.4161  14.4162  14.5964  14.5964  15.1933  15.1933  15.3986  15.3987
    15.5610  15.5610  15.7344  15.7344  15.9319  15.9319  16.1397  16.1397
    16.2419  16.2419  16.3329  16.3330  16.5424  16.5424  16.6891  16.6891
    16.7906  16.7907  17.0167  17.0167  17.1052  17.1052  17.3267  17.3267
    17.3715  17.3715  17.4880  17.4880  17.6672  17.6672  17.7040  17.7040
    17.8117  17.8117  17.8975  17.8975  18.0497  18.0497  18.3024  18.3024
    18.5437  18.5437  18.8042  18.8042  18.9637  18.9637  19.1120  19.1120

          k = 0.0571 0.0330 0.0000 ( 24972 PWs)   bands (ev):

   -35.7027 -35.7027 -35.7006 -35.7006 -35.6663 -35.6663 -35.6642 -35.6642
   -35.5974 -35.5974 -35.5673 -35.5673 -34.2448 -34.2448 -34.2427 -34.2427
   -34.2144 -34.2144 -34.2123 -34.2123 -34.1975 -34.1974 -34.1954 -34.1954
   -34.1365 -34.1365 -34.1176 -34.1176 -34.0968 -34.0968 -28.3575 -28.3574
   -28.3562 -28.3562 -28.3488 -28.3487 -28.3475 -28.3475 -27.1178 -27.1178
   -27.1165 -27.1165 -27.1099 -27.1098 -27.1086 -27.1086 -27.1057 -27.1056
   -27.1044 -27.1044 -10.7238 -10.7238 -10.1849 -10.1849  -9.1268  -9.1268
    -6.4224  -6.4224  -5.1532  -5.1532  -0.7832  -0.7831  -0.6204  -0.6197
    -0.0732  -0.0725  -0.0029  -0.0024   0.2689   0.2692   0.4671   0.4679
     0.7419   0.7425   0.9475   0.9481   1.2852   1.2855   1.9959   1.9964
     2.3491   2.3494   2.7625   2.7628   3.2015   3.2023   3.7876   3.7878
     3.9861   3.9863   6.0907   6.0908   6.2253   6.2254   6.8802   6.8803
     6.9922   6.9923   7.3833   7.3833   7.7646   7.7646   8.2019   8.2020
     8.3457   8.3459   8.4384   8.4388   8.6232   8.6233   9.0447   9.0447
     9.5402   9.5402   9.6408   9.6408   9.7939   9.7940  10.0173  10.0173
    10.4585  10.4585  10.6884  10.6885  10.9548  10.9549  11.1291  11.1292
    11.7496  11.7500  11.8517  11.8520  12.5702  12.5702  12.7527  12.7527
    13.2249  13.2249  13.7167  13.7167  13.9764  13.9765  14.2753  14.2754
    14.3857  14.3858  14.5913  14.5914  15.2303  15.2303  15.3123  15.3124
    15.5098  15.5099  15.6669  15.6669  15.8693  15.8693  16.1575  16.1576
    16.2741  16.2741  16.3671  16.3672  16.5562  16.5562  16.6822  16.6822
    16.7644  16.7644  16.9735  16.9735  17.0828  17.0828  17.3384  17.3384
    17.4231  17.4231  17.4853  17.4853  17.6910  17.6910  17.7638  17.7638
    17.7914  17.7914  17.9707  17.9707  18.1154  18.1154  18.3590  18.3590
    18.4927  18.4927  18.7661  18.7661  18.9219  18.9220  19.0653  19.0654

          k = 0.0643 0.0371 0.0000 ( 24960 PWs)   bands (ev):

   -35.7027 -35.7027 -35.7006 -35.7006 -35.6663 -35.6663 -35.6642 -35.6642
   -35.5974 -35.5974 -35.5673 -35.5673 -34.2448 -34.2448 -34.2427 -34.2427
   -34.2144 -34.2144 -34.2123 -34.2123 -34.1974 -34.1974 -34.1954 -34.1954
   -34.1365 -34.1365 -34.1176 -34.1176 -34.0968 -34.0968 -28.3575 -28.3574
   -28.3562 -28.3561 -28.3488 -28.3487 -28.3475 -28.3475 -27.1178 -27.1178
   -27.1165 -27.1165 -27.1099 -27.1098 -27.1087 -27.1086 -27.1057 -27.1056
   -27.1044 -27.1044 -10.7170 -10.7170 -10.1788 -10.1788  -9.1234  -9.1233
    -6.4247  -6.4247  -5.1678  -5.1678  -0.8003  -0.8000  -0.6771  -0.6762
    -0.1149  -0.1141  -0.0176  -0.0170   0.2518   0.2522   0.4537   0.4544
     0.7428   0.7434   0.9752   0.9758   1.3154   1.3157   2.0351   2.0356
     2.3478   2.3481   2.7731   2.7733   3.2288   3.2296   3.8016   3.8018
     3.9975   3.9977   6.1021   6.1021   6.2249   6.2250   6.8641   6.8642
     6.9855   6.9855   7.3834   7.3834   7.7737   7.7737   8.1808   8.1809
     8.3639   8.3640   8.4376   8.4380   8.6550   8.6551   9.0399   9.0400
     9.5452   9.5452   9.6699   9.6700   9.8080   9.8081  10.0488  10.0488
    10.4854  10.4855  10.6656  10.6657  10.9621  10.9622  11.1116  11.1117
    11.8005  11.8008  11.9038  11.9041  12.5498  12.5498  12.7652  12.7652
    13.1981  13.1981  13.6885  13.6886  13.9625  13.9626  14.2811  14.2812
    14.3626  14.3627  14.6153  14.6153  15.2064  15.2065  15.2584  15.2586
    15.4765  15.4765  15.6019  15.6019  15.8207  15.8207  16.1615  16.1616
    16.2980  16.2980  16.3980  16.3981  16.5596  16.5596  16.6736  16.6736
    16.7746  16.7747  16.9323  16.9323  17.0490  17.0490  17.2775  17.2775
    17.4841  17.4841  17.5158  17.5159  17.6189  17.6190  17.8407  17.8407
    17.8799  17.8799  18.0669  18.0669  18.1851  18.1852  18.4095  18.4095
    18.4485  18.4485  18.7357  18.7357  18.8768  18.8768  19.0179  19.0179

          k = 0.0714 0.0412 0.0000 ( 24959 PWs)   bands (ev):

   -35.7027 -35.7027 -35.7006 -35.7006 -35.6663 -35.6663 -35.6642 -35.6642
   -35.5974 -35.5974 -35.5673 -35.5673 -34.2448 -34.2447 -34.2427 -34.2427
   -34.2144 -34.2144 -34.2123 -34.2123 -34.1974 -34.1974 -34.1954 -34.1954
   -34.1365 -34.1365 -34.1176 -34.1176 -34.0968 -34.0968 -28.3575 -28.3574
   -28.3562 -28.3561 -28.3488 -28.3487 -28.3475 -28.3475 -27.1178 -27.1177
[...]
   -35.5974 -35.5974 -35.5673 -35.5673 -34.2448 -34.2447 -34.2427 -34.2427
   -34.2144 -34.2144 -34.2123 -34.2123 -34.1974 -34.1974 -34.1954 -34.1954
   -34.1365 -34.1365 -34.1176 -34.1176 -34.0968 -34.0968 -28.3575 -28.3574
   -28.3562 -28.3561 -28.3488 -28.3487 -28.3475 -28.3475 -27.1178 -27.1177
   -27.1165 -27.1165 -27.1099 -27.1098 -27.1086 -27.1086 -27.1057 -27.1056
   -27.1045 -27.1044 -10.7136 -10.7136 -10.1755 -10.1755  -9.1210  -9.1210
    -6.4233  -6.4233  -5.1664  -5.1664  -0.7974  -0.7972  -0.6480  -0.6473
    -0.1626  -0.1613   0.0191   0.0193   0.2145   0.2150   0.3935   0.3944
     0.7362   0.7363   0.9517   0.9521   1.3309   1.3310   1.9835   1.9838
     2.4315   2.4318   2.7442   2.7444   3.2172   3.2181   3.8146   3.8150
     4.0316   4.0317   6.1078   6.1079   6.2323   6.2324   6.8823   6.8823
     7.0238   7.0239   7.3896   7.3896   7.6222   7.6222   8.2189   8.2191
     8.3649   8.3649   8.4782   8.4786   8.6002   8.6004   9.1129   9.1129
     9.5179   9.5180   9.5478   9.5479   9.9433   9.9434  10.0963  10.0963
    10.4961  10.4962  10.6601  10.6601  10.8676  10.8677  11.2673  11.2674
    11.7114  11.7116  11.9498  11.9499  12.5992  12.5992  12.8288  12.8289
    13.1661  13.1661  13.5948  13.5948  13.9699  13.9699  14.1563  14.1564
    14.4768  14.4768  14.7038  14.7038  15.1065  15.1065  15.3513  15.3513
    15.5790  15.5790  15.6484  15.6484  15.9262  15.9262  16.0266  16.0266
    16.2374  16.2374  16.3027  16.3027  16.4724  16.4724  16.5882  16.5883
    16.8292  16.8293  16.9569  16.9570  17.1326  17.1326  17.1846  17.1846
    17.2901  17.2901  17.4142  17.4142  17.6504  17.6504  17.7301  17.7301
    17.8356  17.8356  18.0585  18.0585  18.3238  18.3238  18.4996  18.4996
    18.6489  18.6490  18.8589  18.8589  19.0147  19.0148  19.0855  19.0855

          k = 0.0333 0.0597 0.0000 ( 24958 PWs)   bands (ev):

   -35.7027 -35.7027 -35.7006 -35.7006 -35.6663 -35.6663 -35.6642 -35.6642
   -35.5974 -35.5974 -35.5673 -35.5673 -34.2448 -34.2448 -34.2427 -34.2427
   -34.2144 -34.2144 -34.2123 -34.2123 -34.1975 -34.1974 -34.1954 -34.1954
   -34.1365 -34.1365 -34.1176 -34.1176 -34.0968 -34.0968 -28.3575 -28.3574
   -28.3562 -28.3561 -28.3488 -28.3487 -28.3475 -28.3475 -27.1178 -27.1178
   -27.1165 -27.1165 -27.1099 -27.1098 -27.1086 -27.1086 -27.1057 -27.1056
   -27.1044 -27.1044 -10.7220 -10.7220 -10.1831 -10.1831  -9.1254  -9.1254
    -6.4210  -6.4210  -5.1504  -5.1504  -0.7796  -0.7796  -0.5887  -0.5881
    -0.1039  -0.1026   0.0322   0.0325   0.2302   0.2306   0.4164   0.4174
     0.7492   0.7495   0.9199   0.9203   1.2979   1.2981   1.9449   1.9452
     2.4300   2.4302   2.7278   2.7280   3.1880   3.1889   3.8003   3.8007
     4.0088   4.0089   6.0940   6.0940   6.2306   6.2306   6.8901   6.8901
     7.0350   7.0351   7.3892   7.3892   7.6320   7.6320   8.2319   8.2321
     8.3718   8.3720   8.4557   8.4562   8.5746   8.5749   9.1041   9.1041
     9.4894   9.4895   9.5585   9.5586   9.9009   9.9009  10.0546  10.0547
    10.4959  10.4959  10.6413  10.6414  10.8863  10.8864  11.2738  11.2739
    11.6472  11.6474  11.8965  11.8966  12.6074  12.6074  12.8026  12.8026
    13.2056  13.2056  13.6570  13.6570  13.9650  13.9651  14.1376  14.1377
    14.5052  14.5053  14.6792  14.6792  15.1482  15.1482  15.4268  15.4268
    15.6081  15.6082  15.6963  15.6963  15.9485  15.9485  16.0338  16.0338
    16.2009  16.2009  16.3307  16.3307  16.5232  16.5232  16.6167  16.6167
    16.8227  16.8227  16.9571  16.9572  17.1146  17.1146  17.1550  17.1550
    17.2796  17.2796  17.4571  17.4571  17.5564  17.5565  17.7403  17.7403
    17.8190  17.8190  17.9787  17.9787  18.4164  18.4164  18.4893  18.4893
    18.6393  18.6393  18.7573  18.7574  18.9803  18.9803  19.0645  19.0645

          k = 0.0286 0.0511 0.0000 ( 24967 PWs)   bands (ev):

   -35.7027 -35.7027 -35.7006 -35.7006 -35.6663 -35.6663 -35.6642 -35.6642
   -35.5974 -35.5974 -35.5673 -35.5673 -34.2448 -34.2448 -34.2427 -34.2427
   -34.2144 -34.2144 -34.2123 -34.2123 -34.1975 -34.1974 -34.1954 -34.1954
   -34.1365 -34.1365 -34.1176 -34.1176 -34.0968 -34.0968 -28.3575 -28.3574
   -28.3562 -28.3562 -28.3488 -28.3487 -28.3475 -28.3475 -27.1178 -27.1178
   -27.1165 -27.1165 -27.1099 -27.1098 -27.1086 -27.1086 -27.1057 -27.1056
   -27.1044 -27.1044 -10.7293 -10.7293 -10.1897 -10.1897  -9.1292  -9.1292
    -6.4190  -6.4190  -5.1364  -5.1364  -0.7651  -0.7651  -0.5313  -0.5307
    -0.0507  -0.0495   0.0430   0.0432   0.2463   0.2468   0.4351   0.4360
     0.7567   0.7571   0.8983   0.8989   1.2622   1.2623   1.9044   1.9047
     2.4297   2.4300   2.7222   2.7225   3.1579   3.1588   3.7826   3.7830
     3.9934   3.9935   6.0817   6.0817   6.2290   6.2291   6.8944   6.8944
     7.0457   7.0458   7.3891   7.3891   7.6475   7.6475   8.2415   8.2416
     8.3681   8.3684   8.4470   8.4476   8.5513   8.5516   9.0985   9.0985
     9.4542   9.4542   9.5674   9.5674   9.8727   9.8728  10.0169  10.0170
    10.4754  10.4754  10.6422  10.6422  10.9157  10.9158  11.2802  11.2803
    11.5855  11.5857  11.8400  11.8401  12.6177  12.6178  12.7792  12.7792
    13.2457  13.2457  13.7243  13.7243  13.9481  13.9482  14.1155  14.1155
    14.5091  14.5092  14.6905  14.6906  15.1627  15.1627  15.4861  15.4862
    15.6688  15.6688  15.7256  15.7256  15.9851  15.9851  16.0494  16.0494
    16.1537  16.1537  16.3390  16.3391  16.5484  16.5484  16.6702  16.6702
    16.8619  16.8619  16.9653  16.9653  17.0932  17.0932  17.1160  17.1160
    17.2630  17.2631  17.4438  17.4440  17.4617  17.4618  17.6998  17.6998
    17.8855  17.8856  17.9576  17.9576  18.3524  18.3524  18.5133  18.5133
    18.6511  18.6512  18.7409  18.7409  18.9674  18.9674  19.0346  19.0346

          k = 0.0238 0.0426 0.0000 ( 24973 PWs)   bands (ev):

   -35.7027 -35.7027 -35.7006 -35.7006 -35.6663 -35.6663 -35.6642 -35.6642
   -35.5974 -35.5974 -35.5673 -35.5673 -34.2448 -34.2448 -34.2427 -34.2427
   -34.2144 -34.2144 -34.2123 -34.2123 -34.1975 -34.1974 -34.1954 -34.1954
   -34.1365 -34.1365 -34.1176 -34.1176 -34.0968 -34.0968 -28.3575 -28.3574
   -28.3562 -28.3562 -28.3488 -28.3487 -28.3475 -28.3475 -27.1178 -27.1178
   -27.1165 -27.1165 -27.1099 -27.1098 -27.1086 -27.1086 -27.1057 -27.1056
   -27.1044 -27.1044 -10.7355 -10.7355 -10.1953 -10.1953  -9.1324  -9.1324
    -6.4174  -6.4174  -5.1246  -5.1246  -0.7532  -0.7532  -0.4775  -0.4770
    -0.0120  -0.0110   0.0610   0.0615   0.2622   0.2626   0.4468   0.4477
     0.7546   0.7551   0.8919   0.8924   1.2271   1.2272   1.8618   1.8620
     2.4303   2.4305   2.7280   2.7283   3.1260   3.1269   3.7630   3.7633
     3.9843   3.9844   6.0711   6.0711   6.2276   6.2277   6.8963   6.8963
     7.0553   7.0553   7.3893   7.3893   7.6671   7.6671   8.2427   8.2428
     8.3594   8.3597   8.4502   8.4509   8.5318   8.5322   9.0961   9.0962
     9.4170   9.4171   9.5683   9.5684   9.8596   9.8596   9.9839   9.9840
    10.4470  10.4470  10.6500  10.6501  10.9551  10.9553  11.2866  11.2867
    11.5274  11.5276  11.7817  11.7818  12.6287  12.6288  12.7587  12.7588
    13.2876  13.2876  13.7913  13.7913  13.9254  13.9255  14.0940  14.0940
    14.4765  14.4766  14.7452  14.7453  15.1476  15.1477  15.5503  15.5503
    15.7265  15.7267  15.7545  15.7546  15.9692  15.9692  16.1080  16.1081
    16.1393  16.1393  16.3301  16.3301  16.5424  16.5424  16.7558  16.7558
    16.8926  16.8926  16.9971  16.9972  17.0613  17.0613  17.0864  17.0864
    17.2473  17.2473  17.3582  17.3583  17.3940  17.3941  17.6819  17.6819
    17.8958  17.8958  18.0531  18.0531  18.2240  18.2240  18.4719  18.4719
    18.6702  18.6702  18.8299  18.8299  18.9517  18.9517  19.0130  19.0130

          k = 0.0190 0.0341 0.0000 ( 24985 PWs)   bands (ev):

   -35.7027 -35.7027 -35.7006 -35.7006 -35.6663 -35.6663 -35.6642 -35.6642
   -35.5974 -35.5974 -35.5673 -35.5673 -34.2448 -34.2448 -34.2427 -34.2427
   -34.2144 -34.2144 -34.2123 -34.2123 -34.1975 -34.1974 -34.1954 -34.1954
   -34.1365 -34.1365 -34.1176 -34.1176 -34.0968 -34.0968 -28.3575 -28.3574
   -28.3562 -28.3562 -28.3488 -28.3487 -28.3475 -28.3475 -27.1178 -27.1178
   -27.1165 -27.1165 -27.1099 -27.1098 -27.1086 -27.1086 -27.1057 -27.1056
   -27.1044 -27.1044 -10.7405 -10.7405 -10.1999 -10.1999  -9.1351  -9.1351
    -6.4161  -6.4161  -5.1150  -5.1150  -0.7436  -0.7436  -0.4289  -0.4285
     0.0018   0.0025   0.0973   0.0981   0.2773   0.2778   0.4495   0.4504
     0.7439   0.7444   0.8989   0.8994   1.1968   1.1969   1.8185   1.8188
     2.4310   2.4312   2.7441   2.7446   3.0919   3.0928   3.7438   3.7441
     3.9797   3.9798   6.0623   6.0623   6.2265   6.2265   6.8965   6.8966
     7.0632   7.0632   7.3899   7.3899   7.6890   7.6890   8.2317   8.2318
     8.3573   8.3577   8.4549   8.4556   8.5189   8.5194   9.0968   9.0968
     9.3803   9.3803   9.5623   9.5623   9.8584   9.8585   9.9562   9.9562
    10.4198  10.4199  10.6573  10.6573  11.0025  11.0026  11.2926  11.2928
    11.4746  11.4747  11.7234  11.7236  12.6393  12.6393  12.7413  12.7413
    13.3315  13.3315  13.8391  13.8392  13.9146  13.9147  14.0762  14.0762
    14.4321  14.4322  14.8099  14.8099  15.1237  15.1238  15.6139  15.6140
    15.7343  15.7343  15.8212  15.8213  15.9160  15.9160  16.1284  16.1284
    16.2255  16.2256  16.3157  16.3157  16.5287  16.5287  16.8374  16.8374
    16.8912  16.8912  16.9982  16.9982  17.0161  17.0161  17.1364  17.1364
    17.2271  17.2271  17.2660  17.2660  17.3432  17.3432  17.6500  17.6500
    17.9283  17.9283  18.1053  18.1053  18.1732  18.1732  18.3587  18.3587
    18.7607  18.7608  18.8665  18.8666  18.9048  18.9048  19.0495  19.0496

          k = 0.0143 0.0256 0.0000 ( 24991 PWs)   bands (ev):

   -35.7027 -35.7027 -35.7006 -35.7006 -35.6663 -35.6663 -35.6642 -35.6642
   -35.5974 -35.5974 -35.5673 -35.5673 -34.2448 -34.2448 -34.2427 -34.2427
   -34.2144 -34.2144 -34.2123 -34.2123 -34.1975 -34.1974 -34.1954 -34.1954
   -34.1365 -34.1365 -34.1176 -34.1176 -34.0968 -34.0968 -28.3575 -28.3574
   -28.3562 -28.3562 -28.3488 -28.3487 -28.3475 -28.3475 -27.1178 -27.1178
   -27.1165 -27.1165 -27.1099 -27.1098 -27.1086 -27.1086 -27.1057 -27.1056
   -27.1044 -27.1044 -10.7445 -10.7444 -10.2035 -10.2035  -9.1371  -9.1371
    -6.4152  -6.4152  -5.1074  -5.1074  -0.7362  -0.7362  -0.3872  -0.3869
     0.0009   0.0013   0.1413   0.1422   0.2922   0.2926   0.4421   0.4430
     0.7307   0.7311   0.9112   0.9116   1.1745   1.1746   1.7776   1.7777
     2.4315   2.4317   2.7685   2.7690   3.0563   3.0572   3.7271   3.7274
     3.9778   3.9779   6.0553   6.0554   6.2256   6.2256   6.8960   6.8960
     7.0692   7.0692   7.3907   7.3907   7.7109   7.7109   8.2121   8.2122
     8.3637   8.3641   8.4534   8.4541   8.5155   8.5159   9.0995   9.0995
     9.3468   9.3468   9.5527   9.5527   9.8641   9.8641   9.9338   9.9339
    10.3976  10.3976  10.6621  10.6622  11.0543  11.0545  11.2954  11.2956
    11.4303  11.4305  11.6677  11.6678  12.6486  12.6486  12.7270  12.7270
    13.3760  13.3760  13.8285  13.8285  13.9533  13.9534  14.0639  14.0639
    14.3887  14.3888  14.8564  14.8564  15.1185  15.1185  15.6409  15.6410
    15.7609  15.7610  15.8369  15.8370  15.8953  15.8954  16.1581  16.1581
    16.3022  16.3022  16.3360  16.3360  16.5185  16.5185  16.8055  16.8055
    16.9327  16.9328  16.9675  16.9675  17.0048  17.0049  17.1486  17.1486
    17.2186  17.2186  17.2464  17.2464  17.3183  17.3183  17.6245  17.6245
    17.8848  17.8849  18.0759  18.0759  18.2528  18.2529  18.2975  18.2975
    18.7873  18.7874  18.8602  18.8603  18.8909  18.8910  19.0798  19.0798

          k = 0.0095 0.0170 0.0000 ( 24979 PWs)   bands (ev):

   -35.7027 -35.7027 -35.7006 -35.7006 -35.6663 -35.6663 -35.6642 -35.6642
   -35.5974 -35.5974 -35.5673 -35.5673 -34.2448 -34.2448 -34.2427 -34.2427
   -34.2144 -34.2144 -34.2123 -34.2123 -34.1975 -34.1975 -34.1954 -34.1954
   -34.1365 -34.1365 -34.1176 -34.1176 -34.0968 -34.0968 -28.3575 -28.3575
   -28.3562 -28.3562 -28.3488 -28.3487 -28.3475 -28.3475 -27.1178 -27.1178
   -27.1165 -27.1165 -27.1099 -27.1099 -27.1086 -27.1086 -27.1057 -27.1057
   -27.1044 -27.1044 -10.7473 -10.7473 -10.2060 -10.2060  -9.1386  -9.1386
    -6.4145  -6.4145  -5.1020  -5.1020  -0.7310  -0.7310  -0.3546  -0.3543
    -0.0045  -0.0041   0.1812   0.1820   0.3081   0.3084   0.4257   0.4264
     0.7197   0.7200   0.9218   0.9221   1.1619   1.1619   1.7430   1.7432
     2.4318   2.4320   2.7972   2.7977   3.0211   3.0218   3.7144   3.7146
     3.9773   3.9774   6.0503   6.0503   6.2249   6.2249   6.8952   6.8952
     7.0734   7.0734   7.3915   7.3915   7.7301   7.7301   8.1917   8.1917
     8.3740   8.3743   8.4457   8.4462   8.5191   8.5194   9.1031   9.1031
     9.3197   9.3198   9.5431   9.5431   9.8717   9.8717   9.9172   9.9172
    10.3817  10.3817  10.6649  10.6649  11.1072  11.1074  11.2876  11.2879
    11.4019  11.4020  11.6185  11.6186  12.6562  12.6562  12.7159  12.7159
    13.4176  13.4176  13.7961  13.7961  14.0013  14.0013  14.0601  14.0601
    14.3512  14.3513  14.8693  14.8693  15.1488  15.1488  15.6148  15.6149
    15.7818  15.7818  15.8375  15.8375  15.9188  15.9189  16.1784  16.1784
    16.3273  16.3273  16.4314  16.4314  16.5214  16.5214  16.7250  16.7250
    16.8908  16.8908  16.9603  16.9603  17.0505  17.0505  17.0681  17.0681
    17.2334  17.2334  17.3112  17.3112  17.3305  17.3305  17.6230  17.6230
    17.7745  17.7745  18.0281  18.0281  18.2741  18.2741  18.3956  18.3956
    18.6984  18.6984  18.8563  18.8563  18.9308  18.9309  19.0664  19.0665

          k = 0.0048 0.0085 0.0000 ( 24983 PWs)   bands (ev):

   -35.7027 -35.7027 -35.7006 -35.7006 -35.6663 -35.6663 -35.6642 -35.6642
   -35.5974 -35.5974 -35.5673 -35.5673 -34.2448 -34.2448 -34.2427 -34.2427
   -34.2144 -34.2144 -34.2123 -34.2123 -34.1975 -34.1975 -34.1954 -34.1954
   -34.1365 -34.1365 -34.1176 -34.1176 -34.0968 -34.0968 -28.3575 -28.3575
   -28.3562 -28.3562 -28.3488 -28.3487 -28.3475 -28.3475 -27.1178 -27.1178
   -27.1165 -27.1165 -27.1099 -27.1099 -27.1086 -27.1086 -27.1057 -27.1057
   -27.1044 -27.1044 -10.7490 -10.7490 -10.2076 -10.2076  -9.1395  -9.1395
    -6.4140  -6.4140  -5.0988  -5.0988  -0.7278  -0.7278  -0.3334  -0.3333
    -0.0095  -0.0093   0.2089   0.2093   0.3261   0.3262   0.4043   0.4048
     0.7128   0.7129   0.9278   0.9280   1.1571   1.1571   1.7196   1.7197
     2.4320   2.4321   2.8238   2.8241   2.9914   2.9919   3.7065   3.7066
     3.9774   3.9774   6.0473   6.0473   6.2245   6.2245   6.8946   6.8946
     7.0758   7.0758   7.3921   7.3921   7.7434   7.7434   8.1766   8.1767
     8.3837   8.3839   8.4369   8.4372   8.5238   8.5239   9.1061   9.1062
     9.3020   9.3020   9.5363   9.5363   9.8783   9.8783   9.9062   9.9063
    10.3722  10.3722  10.6663  10.6663  11.1566  11.1568  11.2634  11.2636
    11.3933  11.3934  11.5824  11.5824  12.6615  12.6616  12.7085  12.7085
    13.4495  13.4496  13.7678  13.7678  14.0252  14.0252  14.0717  14.0718
    14.3239  14.3239  14.8630  14.8630  15.1951  15.1951  15.5698  15.5699
    15.7682  15.7682  15.8839  15.8839  15.9310  15.9311  16.1726  16.1726
    16.3903  16.3904  16.4721  16.4721  16.5736  16.5736  16.6425  16.6425
    16.8198  16.8198  16.9499  16.9500  17.0142  17.0143  17.0870  17.0870
    17.2396  17.2396  17.3520  17.3521  17.3914  17.3914  17.6448  17.6449
    17.6697  17.6697  17.9407  17.9407  18.3584  18.3584  18.4808  18.4808
    18.6073  18.6074  18.8072  18.8072  18.9670  18.9671  19.0414  19.0414

          k = 0.0000 0.0000 0.0000 ( 24991 PWs)   bands (ev):

   -35.7027 -35.7027 -35.7006 -35.7006 -35.6663 -35.6663 -35.6642 -35.6642
   -35.5974 -35.5974 -35.5673 -35.5673 -34.2448 -34.2448 -34.2427 -34.2427
   -34.2144 -34.2144 -34.2123 -34.2123 -34.1975 -34.1975 -34.1954 -34.1954
   -34.1365 -34.1365 -34.1176 -34.1176 -34.0968 -34.0968 -28.3575 -28.3575
   -28.3562 -28.3562 -28.3488 -28.3488 -28.3475 -28.3475 -27.1178 -27.1178
   -27.1165 -27.1165 -27.1099 -27.1099 -27.1086 -27.1086 -27.1057 -27.1057
   -27.1044 -27.1044 -10.7495 -10.7495 -10.2081 -10.2081  -9.1398  -9.1398
    -6.4139  -6.4139  -5.0977  -5.0977  -0.7268  -0.7268  -0.3260  -0.3260
    -0.0115  -0.0115   0.2188   0.2188   0.3376   0.3376   0.3913   0.3913
     0.7105   0.7105   0.9297   0.9297   1.1562   1.1562   1.7113   1.7113
     2.4320   2.4320   2.8360   2.8360   2.9786   2.9786   3.7038   3.7038
     3.9774   3.9774   6.0463   6.0463   6.2244   6.2244   6.8944   6.8944
     7.0766   7.0766   7.3923   7.3923   7.7482   7.7482   8.1711   8.1711
     8.3882   8.3882   8.4329   8.4329   8.5258   8.5258   9.1073   9.1073
     9.2959   9.2959   9.5338   9.5338   9.8811   9.8811   9.9021   9.9021
    10.3691  10.3691  10.6667  10.6667  11.1856  11.1856  11.2419  11.2419
    11.3934  11.3934  11.5685  11.5685  12.6636  12.6636  12.7058  12.7058
    13.4621  13.4621  13.7563  13.7563  14.0289  14.0289  14.0821  14.0821
    14.3133  14.3133  14.8586  14.8586  15.2183  15.2183  15.5470  15.5470
    15.7633  15.7633  15.9062  15.9062  15.9330  15.9330  16.1656  16.1656
    16.4524  16.4524  16.4552  16.4552  16.5867  16.5867  16.6377  16.6377
    16.7687  16.7687  16.9436  16.9436  17.0003  17.0003  17.0955  17.0955
    17.2415  17.2415  17.3698  17.3698  17.4358  17.4358  17.5955  17.5955
    17.6824  17.6824  17.8933  17.8933  18.4385  18.4385  18.4706  18.4706
    18.5819  18.5819  18.7729  18.7729  18.9755  18.9755  19.0363  19.0363

     Writing all to output data dir tmp/Sb2Te3-uatsx-c5-soc-5.0.save/ :
     XML data file, pseudopotentials, collected wavefunctions

     init_run     :      1.30s CPU      1.30s WALL (       1 calls)
     electrons    :   6160.48s CPU   3327.87s WALL (       1 calls)

     Called by init_run:
     wfcinit      :      0.00s CPU      0.01s WALL (       1 calls)
     wfcinit:wfcr :    146.50s CPU     76.75s WALL (     211 calls)
     potinit      :      0.28s CPU      0.24s WALL (       1 calls)
     hinit0       :      0.83s CPU      0.84s WALL (       1 calls)

     Called by electrons:
     c_bands      :   6160.46s CPU   3327.83s WALL (       1 calls)
     v_of_rho     :      0.08s CPU      0.06s WALL (       1 calls)
     v_h          :      0.01s CPU      0.01s WALL (       1 calls)
     v_xc         :      0.07s CPU      0.05s WALL (       1 calls)

     Called by c_bands:
     init_us_2    :      0.38s CPU      0.31s WALL (     211 calls)
     cegterg      :   6001.43s CPU   3239.36s WALL (     712 calls)

     Called by sum_band:

     Called by *egterg:
     cdiaghg      :    876.93s CPU    554.69s WALL (   12471 calls)
     cegterg:over :    555.14s CPU    295.89s WALL (   12260 calls)
     cegterg:upda :    388.79s CPU    213.32s WALL (   12260 calls)
     cegterg:last :    602.44s CPU    328.76s WALL (    5812 calls)
     cdiaghg:chol :     58.00s CPU     33.88s WALL (   12471 calls)
     cdiaghg:inve :     11.78s CPU      8.62s WALL (   12471 calls)
     cdiaghg:para :    150.96s CPU     76.84s WALL (   24942 calls)
     h_psi        :   3600.88s CPU   1854.33s WALL (   13183 calls)
     g_psi        :     22.06s CPU     11.39s WALL (   12260 calls)

     Called by h_psi:
     h_psi:calbec :    168.43s CPU     93.92s WALL (   13183 calls)
     vloc_psi     :   3268.46s CPU   1660.76s WALL (   13183 calls)
     add_vuspsi   :    139.20s CPU     86.91s WALL (   13183 calls)

     General routines
     calbec       :    168.34s CPU     93.89s WALL (   13183 calls)
     fft          :      0.88s CPU      0.88s WALL (      17 calls)
     ffts         :      0.15s CPU      0.14s WALL (       4 calls)
     fftw         :   2514.97s CPU   1255.88s WALL ( 4809120 calls)
     interpolate  :      0.17s CPU      0.16s WALL (       4 calls)
     davcio       :      0.76s CPU      1.89s WALL (     422 calls)

     Parallel routines

     PWSCF        :      1h43m CPU  59m41.12s WALL


   This run was terminated on:   4: 2:39  23Aug2025            

=------------------------------------------------------------------------------=
   JOB DONE.
=------------------------------------------------------------------------------=
