
     Program PWSCF v.7.4.1 starts on 22Aug2025 at 22:28:37 

     This program is part of the open-source Quantum ESPRESSO suite
     for quantum simulation of materials; please cite
         "P. Giannozzi et al., J. Phys.:Condens. Matter 21 395502 (2009);
         "P. Giannozzi et al., J. Phys.:Condens. Matter 29 465901 (2017);
         "P. Giannozzi et al., J. Chem. Phys. 152 154105 (2020);
          URL http://www.quantum-espresso.org", 
     in publications or presentations arising from this work. More details at
     http://www.quantum-espresso.org/quote

     Parallel version (MPI & OpenMP), running on      48 processor cores
     Number of MPI processes:                24
     Threads/MPI process:                     2

     MPI processes distributed on     2 nodes
     92444 MiB available memory on the printing compute node when the environment starts

     Waiting for input...
     Reading input from standard input

     Current dimensions of program PWSCF are:
     Max number of different atomic species (ntypx) = 10
     Max number of k-points (npk) =  40000
     Max angular momentum in pseudopotentials (lmaxx) =  4
     file Sb.rel-pbe-n-rrkjus_psl.1.0.0.UPF: wavefunction(s)  5S renormalized
     file Te.rel-pbe-n-rrkjus_psl.1.0.0.UPF: wavefunction(s)  5S renormalized

     IMPORTANT: XC functional enforced from input :
     Exchange-correlation= PBE
                           (   1   4   3   4   0   0   0)
     Any further DFT definition will be discarded
     Please, verify this is what you really want


     Atomic positions and unit cell read from directory:
     tmp/Sb2Te3-uatsx-c6-soc-3.0.save/


     R & G space division:  proc/nbgrp/npool/nimage =      24
     Subspace diagonalization in iterative solution of the eigenvalue problem:
     a serial algorithm will be used


     Parallelization info
     --------------------
     sticks:   dense  smooth     PW     G-vecs:    dense   smooth      PW
     Min          97      39     11                19481     4929     747
     Max          98      40     12                19500     4946     765
     Sum        2349     941    267               467835   118417   18151

     Using Slab Decomposition



     bravais-lattice index     =            0
     lattice parameter (alat)  =       8.3900  a.u.
     unit-cell volume          =    2478.7943 (a.u.)^3
     number of atoms/cell      =            5
     number of atomic types    =            2
     number of electrons       =        28.00
     number of Kohn-Sham states=          100
     kinetic-energy cutoff     =      50.0000  Ry
     charge density cutoff     =     500.0000  Ry
     Exchange-correlation= PBE
                           (   1   4   3   4   0   0   0)
     Non magnetic calculation with spin-orbit


     celldm(1)=   8.390002  celldm(2)=   0.000000  celldm(3)=   0.000000
     celldm(4)=   0.000000  celldm(5)=   0.000000  celldm(6)=   0.000000

     crystal axes: (cart. coord. in units of alat)
               a(1) = (   1.000000   0.000000   0.000000 )  
               a(2) = (  -0.485437   0.840793   0.000000 )  
               a(3) = (   0.000000   0.000000   4.991890 )  

     reciprocal axes: (cart. coord. in units 2 pi/alat)
               b(1) = (  1.000000  0.577356 -0.000000 )  
               b(2) = (  0.000000  1.189353  0.000000 )  
               b(3) = (  0.000000 -0.000000  0.200325 )  


     PseudoPot. # 1 for Sb read from file:
     /zfs-home/202401017n1/pseudos/Sb.rel-pbe-n-rrkjus_psl.1.0.0.UPF
     MD5 check sum: c1afc134568783a62b80e43a202109b2
     Pseudo is Ultrasoft + core correction, Zval =  5.0
     Generated using &quot;atomic&quot; code by A. Dal Corso  v.6.2.2
     Using radial grid of 1243 points, 10 beta functions with: 
                l(1) =   0
                l(2) =   0
                l(3) =   1
                l(4) =   1
                l(5) =   1
                l(6) =   1
                l(7) =   2
                l(8) =   2
                l(9) =   2
               l(10) =   2
     Q(r) pseudized with 0 coefficients 


     PseudoPot. # 2 for Te read from file:
     /zfs-home/202401017n1/pseudos/Te.rel-pbe-n-rrkjus_psl.1.0.0.UPF
     MD5 check sum: 7fd30b6833abd190471e4dcc2367351b
     Pseudo is Ultrasoft + core correction, Zval =  6.0
     Generated using &quot;atomic&quot; code by A. Dal Corso  v.6.3
     Using radial grid of 1245 points, 10 beta functions with: 
                l(1) =   0
                l(2) =   0
                l(3) =   1
                l(4) =   1
                l(5) =   1
                l(6) =   1
                l(7) =   2
                l(8) =   2
                l(9) =   2
               l(10) =   2
     Q(r) pseudized with 0 coefficients 


     atomic species   valence    mass     pseudopotential
     Sb                5.00   121.76000     Sb( 1.00)
     Te                6.00   127.60000     Te( 1.00)

     No symmetry found


                                    s                        frac. trans.

      isym =  1     identity                                     

 cryst.   s( 1) = (     1          0          0      )
                  (     0          1          0      )
                  (     0          0          1      )

 cart.    s( 1) = (  1.0000000  0.0000000  0.0000000 )
                  (  0.0000000  1.0000000  0.0000000 )
                  (  0.0000000  0.0000000  1.0000000 )


   Cartesian axes

     site n.     atom                  positions (alat units)
         1        Sb     tau(   1) = (   0.5867812   0.4172984   2.9417443  )
         2        Te     tau(   2) = (   0.5754457   0.3979752   1.6726131  )
         3        Sb     tau(   3) = (   0.0727921   0.1220272   2.0501240  )
         4        Te     tau(   4) = (   0.0840698   0.1416820   3.3192296  )
         5        Te     tau(   5) = (   0.0870265   0.6902229   2.4959189  )

     -------------------------------------------------
     Parameters for Dispersion (Grimme-D2) Correction:
     -------------------------------------------------
       atom      VdW radius       C_6     

        Sb         3.555       1333.532
        Te         3.575       1101.101

   Crystallographic axes

     site n.     atom                  positions (cryst. coord.)
         1        Sb     tau(   1) = (  0.8277109  0.4963151  0.5893047  )
         2        Te     tau(   2) = (  0.8052190  0.4733330  0.3350661  )
         3        Sb     tau(   3) = (  0.1432452  0.1451335  0.4106909  )
         4        Te     tau(   4) = (  0.1658708  0.1685099  0.6649244  )
         5        Te     tau(   5) = (  0.4855307  0.8209187  0.4999948  )

     number of k points=   211
                       cart. coord. in units 2pi/alat
        k(    1) = (   0.0000000   0.0000000   0.0000000), wk =   0.0047393
        k(    2) = (   0.0071429   0.0041240   0.0000000), wk =   0.0047393
        k(    3) = (   0.0142857   0.0082479   0.0000000), wk =   0.0047393
        k(    4) = (   0.0214286   0.0123719   0.0000000), wk =   0.0047393
        k(    5) = (   0.0285714   0.0164959   0.0000000), wk =   0.0047393
        k(    6) = (   0.0357143   0.0206199   0.0000000), wk =   0.0047393
        k(    7) = (   0.0428571   0.0247438   0.0000000), wk =   0.0047393
        k(    8) = (   0.0500000   0.0288678   0.0000000), wk =   0.0047393
        k(    9) = (   0.0571429   0.0329918   0.0000000), wk =   0.0047393
        k(   10) = (   0.0642857   0.0371157   0.0000000), wk =   0.0047393
        k(   11) = (   0.0714286   0.0412397   0.0000000), wk =   0.0047393
        k(   12) = (   0.0785714   0.0453637   0.0000000), wk =   0.0047393
        k(   13) = (   0.0857143   0.0494876   0.0000000), wk =   0.0047393
        k(   14) = (   0.0928571   0.0536116   0.0000000), wk =   0.0047393
        k(   15) = (   0.1000000   0.0577356   0.0000000), wk =   0.0047393
        k(   16) = (   0.1071429   0.0618596   0.0000000), wk =   0.0047393
        k(   17) = (   0.1142857   0.0659835   0.0000000), wk =   0.0047393
        k(   18) = (   0.1214286   0.0701075   0.0000000), wk =   0.0047393
        k(   19) = (   0.1285714   0.0742315   0.0000000), wk =   0.0047393
        k(   20) = (   0.1357143   0.0783554   0.0000000), wk =   0.0047393
        k(   21) = (   0.1428571   0.0824794   0.0000000), wk =   0.0047393
        k(   22) = (   0.1500000   0.0866034   0.0000000), wk =   0.0047393
        k(   23) = (   0.1571429   0.0907273   0.0000000), wk =   0.0047393
        k(   24) = (   0.1642857   0.0948513   0.0000000), wk =   0.0047393
        k(   25) = (   0.1714286   0.0989753   0.0000000), wk =   0.0047393
        k(   26) = (   0.1785714   0.1030993   0.0000000), wk =   0.0047393
        k(   27) = (   0.1857143   0.1072232   0.0000000), wk =   0.0047393
        k(   28) = (   0.1928571   0.1113472   0.0000000), wk =   0.0047393
        k(   29) = (   0.2000000   0.1154712   0.0000000), wk =   0.0047393
        k(   30) = (   0.2071429   0.1195951   0.0000000), wk =   0.0047393
        k(   31) = (   0.2142857   0.1237191   0.0000000), wk =   0.0047393
        k(   32) = (   0.2214286   0.1278431   0.0000000), wk =   0.0047393
        k(   33) = (   0.2285714   0.1319671   0.0000000), wk =   0.0047393
        k(   34) = (   0.2357143   0.1360910   0.0000000), wk =   0.0047393
        k(   35) = (   0.2428571   0.1402150   0.0000000), wk =   0.0047393
        k(   36) = (   0.2500000   0.1443390   0.0000000), wk =   0.0047393
        k(   37) = (   0.2571429   0.1484629   0.0000000), wk =   0.0047393
        k(   38) = (   0.2642857   0.1525869   0.0000000), wk =   0.0047393
        k(   39) = (   0.2714286   0.1567109   0.0000000), wk =   0.0047393
        k(   40) = (   0.2785714   0.1608348   0.0000000), wk =   0.0047393
        k(   41) = (   0.2857143   0.1649588   0.0000000), wk =   0.0047393
        k(   42) = (   0.2928571   0.1690828   0.0000000), wk =   0.0047393
        k(   43) = (   0.3000000   0.1732068   0.0000000), wk =   0.0047393
        k(   44) = (   0.3071429   0.1773307   0.0000000), wk =   0.0047393
        k(   45) = (   0.3142857   0.1814547   0.0000000), wk =   0.0047393
        k(   46) = (   0.3214286   0.1855787   0.0000000), wk =   0.0047393
        k(   47) = (   0.3285714   0.1897026   0.0000000), wk =   0.0047393
        k(   48) = (   0.3357143   0.1938266   0.0000000), wk =   0.0047393
        k(   49) = (   0.3428571   0.1979506   0.0000000), wk =   0.0047393
        k(   50) = (   0.3500000   0.2020745   0.0000000), wk =   0.0047393
        k(   51) = (   0.3571429   0.2061985   0.0000000), wk =   0.0047393
        k(   52) = (   0.3642857   0.2103225   0.0000000), wk =   0.0047393
        k(   53) = (   0.3714286   0.2144465   0.0000000), wk =   0.0047393
        k(   54) = (   0.3785714   0.2185704   0.0000000), wk =   0.0047393
        k(   55) = (   0.3857143   0.2226944   0.0000000), wk =   0.0047393
        k(   56) = (   0.3928571   0.2268184   0.0000000), wk =   0.0047393
        k(   57) = (   0.4000000   0.2309423   0.0000000), wk =   0.0047393
        k(   58) = (   0.4071429   0.2350663   0.0000000), wk =   0.0047393
        k(   59) = (   0.4142857   0.2391903   0.0000000), wk =   0.0047393
        k(   60) = (   0.4214286   0.2433143   0.0000000), wk =   0.0047393
        k(   61) = (   0.4285714   0.2474382   0.0000000), wk =   0.0047393
        k(   62) = (   0.4357143   0.2515622   0.0000000), wk =   0.0047393
        k(   63) = (   0.4428571   0.2556862   0.0000000), wk =   0.0047393
        k(   64) = (   0.4500000   0.2598101   0.0000000), wk =   0.0047393
        k(   65) = (   0.4571429   0.2639341   0.0000000), wk =   0.0047393
        k(   66) = (   0.4642857   0.2680581   0.0000000), wk =   0.0047393
        k(   67) = (   0.4714286   0.2721820   0.0000000), wk =   0.0047393
        k(   68) = (   0.4785714   0.2763060   0.0000000), wk =   0.0047393
        k(   69) = (   0.4857143   0.2804300   0.0000000), wk =   0.0047393
        k(   70) = (   0.4928571   0.2845540   0.0000000), wk =   0.0047393
        k(   71) = (   0.5000000   0.2886779   0.0000000), wk =   0.0047393
        k(   72) = (   0.4976190   0.2929669   0.0000000), wk =   0.0047393
        k(   73) = (   0.4952381   0.2972558   0.0000000), wk =   0.0047393
        k(   74) = (   0.4928571   0.3015447   0.0000000), wk =   0.0047393
        k(   75) = (   0.4904762   0.3058336   0.0000000), wk =   0.0047393
        k(   76) = (   0.4880952   0.3101226   0.0000000), wk =   0.0047393
        k(   77) = (   0.4857143   0.3144115   0.0000000), wk =   0.0047393
        k(   78) = (   0.4833333   0.3187004   0.0000000), wk =   0.0047393
        k(   79) = (   0.4809524   0.3229894   0.0000000), wk =   0.0047393
        k(   80) = (   0.4785714   0.3272783   0.0000000), wk =   0.0047393
        k(   81) = (   0.4761905   0.3315672   0.0000000), wk =   0.0047393
        k(   82) = (   0.4738095   0.3358561   0.0000000), wk =   0.0047393
        k(   83) = (   0.4714286   0.3401451   0.0000000), wk =   0.0047393
        k(   84) = (   0.4690476   0.3444340   0.0000000), wk =   0.0047393
        k(   85) = (   0.4666667   0.3487229   0.0000000), wk =   0.0047393
        k(   86) = (   0.4642857   0.3530119   0.0000000), wk =   0.0047393
        k(   87) = (   0.4619048   0.3573008   0.0000000), wk =   0.0047393
        k(   88) = (   0.4595238   0.3615897   0.0000000), wk =   0.0047393
        k(   89) = (   0.4571429   0.3658787   0.0000000), wk =   0.0047393
        k(   90) = (   0.4547619   0.3701676   0.0000000), wk =   0.0047393
        k(   91) = (   0.4523810   0.3744565   0.0000000), wk =   0.0047393
        k(   92) = (   0.4500000   0.3787454   0.0000000), wk =   0.0047393
        k(   93) = (   0.4476190   0.3830344   0.0000000), wk =   0.0047393
        k(   94) = (   0.4452381   0.3873233   0.0000000), wk =   0.0047393
        k(   95) = (   0.4428571   0.3916122   0.0000000), wk =   0.0047393
        k(   96) = (   0.4404762   0.3959012   0.0000000), wk =   0.0047393
        k(   97) = (   0.4380952   0.4001901   0.0000000), wk =   0.0047393
        k(   98) = (   0.4357143   0.4044790   0.0000000), wk =   0.0047393
        k(   99) = (   0.4333333   0.4087679   0.0000000), wk =   0.0047393
        k(  100) = (   0.4309524   0.4130569   0.0000000), wk =   0.0047393
        k(  101) = (   0.4285714   0.4173458   0.0000000), wk =   0.0047393
        k(  102) = (   0.4261905   0.4216347   0.0000000), wk =   0.0047393
        k(  103) = (   0.4238095   0.4259237   0.0000000), wk =   0.0047393
        k(  104) = (   0.4214286   0.4302126   0.0000000), wk =   0.0047393
        k(  105) = (   0.4190476   0.4345015   0.0000000), wk =   0.0047393
        k(  106) = (   0.4166667   0.4387904   0.0000000), wk =   0.0047393
        k(  107) = (   0.4142857   0.4430794   0.0000000), wk =   0.0047393
        k(  108) = (   0.4119048   0.4473683   0.0000000), wk =   0.0047393
        k(  109) = (   0.4095238   0.4516572   0.0000000), wk =   0.0047393
        k(  110) = (   0.4071429   0.4559462   0.0000000), wk =   0.0047393
        k(  111) = (   0.4047619   0.4602351   0.0000000), wk =   0.0047393
        k(  112) = (   0.4023810   0.4645240   0.0000000), wk =   0.0047393
        k(  113) = (   0.4000000   0.4688130   0.0000000), wk =   0.0047393
        k(  114) = (   0.3976190   0.4731019   0.0000000), wk =   0.0047393
        k(  115) = (   0.3952381   0.4773908   0.0000000), wk =   0.0047393
        k(  116) = (   0.3928571   0.4816797   0.0000000), wk =   0.0047393
        k(  117) = (   0.3904762   0.4859687   0.0000000), wk =   0.0047393
        k(  118) = (   0.3880952   0.4902576   0.0000000), wk =   0.0047393
        k(  119) = (   0.3857143   0.4945465   0.0000000), wk =   0.0047393
        k(  120) = (   0.3833333   0.4988355   0.0000000), wk =   0.0047393
        k(  121) = (   0.3809524   0.5031244   0.0000000), wk =   0.0047393
        k(  122) = (   0.3785714   0.5074133   0.0000000), wk =   0.0047393
        k(  123) = (   0.3761905   0.5117022   0.0000000), wk =   0.0047393
        k(  124) = (   0.3738095   0.5159912   0.0000000), wk =   0.0047393
        k(  125) = (   0.3714286   0.5202801   0.0000000), wk =   0.0047393
        k(  126) = (   0.3690476   0.5245690   0.0000000), wk =   0.0047393
        k(  127) = (   0.3666667   0.5288580   0.0000000), wk =   0.0047393
        k(  128) = (   0.3642857   0.5331469   0.0000000), wk =   0.0047393
        k(  129) = (   0.3619048   0.5374358   0.0000000), wk =   0.0047393
        k(  130) = (   0.3595238   0.5417247   0.0000000), wk =   0.0047393
        k(  131) = (   0.3571429   0.5460137   0.0000000), wk =   0.0047393
        k(  132) = (   0.3547619   0.5503026   0.0000000), wk =   0.0047393
        k(  133) = (   0.3523810   0.5545915   0.0000000), wk =   0.0047393
        k(  134) = (   0.3500000   0.5588805   0.0000000), wk =   0.0047393
        k(  135) = (   0.3476190   0.5631694   0.0000000), wk =   0.0047393
        k(  136) = (   0.3452381   0.5674583   0.0000000), wk =   0.0047393
        k(  137) = (   0.3428571   0.5717473   0.0000000), wk =   0.0047393
        k(  138) = (   0.3404762   0.5760362   0.0000000), wk =   0.0047393
        k(  139) = (   0.3380952   0.5803251   0.0000000), wk =   0.0047393
        k(  140) = (   0.3357143   0.5846140   0.0000000), wk =   0.0047393
        k(  141) = (   0.3333333   0.5889030   0.0000000), wk =   0.0047393
        k(  142) = (   0.3285714   0.5804901   0.0000000), wk =   0.0047393
        k(  143) = (   0.3238095   0.5720772   0.0000000), wk =   0.0047393
        k(  144) = (   0.3190476   0.5636643   0.0000000), wk =   0.0047393
        k(  145) = (   0.3142857   0.5552514   0.0000000), wk =   0.0047393
        k(  146) = (   0.3095238   0.5468385   0.0000000), wk =   0.0047393
        k(  147) = (   0.3047619   0.5384256   0.0000000), wk =   0.0047393
        k(  148) = (   0.3000000   0.5300127   0.0000000), wk =   0.0047393
        k(  149) = (   0.2952381   0.5215998   0.0000000), wk =   0.0047393
        k(  150) = (   0.2904762   0.5131869   0.0000000), wk =   0.0047393
        k(  151) = (   0.2857143   0.5047740   0.0000000), wk =   0.0047393
        k(  152) = (   0.2809524   0.4963611   0.0000000), wk =   0.0047393
        k(  153) = (   0.2761905   0.4879482   0.0000000), wk =   0.0047393
        k(  154) = (   0.2714286   0.4795353   0.0000000), wk =   0.0047393
        k(  155) = (   0.2666667   0.4711224   0.0000000), wk =   0.0047393
        k(  156) = (   0.2619048   0.4627095   0.0000000), wk =   0.0047393
        k(  157) = (   0.2571429   0.4542966   0.0000000), wk =   0.0047393
        k(  158) = (   0.2523810   0.4458837   0.0000000), wk =   0.0047393
        k(  159) = (   0.2476190   0.4374708   0.0000000), wk =   0.0047393
        k(  160) = (   0.2428571   0.4290579   0.0000000), wk =   0.0047393
        k(  161) = (   0.2380952   0.4206450   0.0000000), wk =   0.0047393
        k(  162) = (   0.2333333   0.4122321   0.0000000), wk =   0.0047393
        k(  163) = (   0.2285714   0.4038192   0.0000000), wk =   0.0047393
        k(  164) = (   0.2238095   0.3954063   0.0000000), wk =   0.0047393
        k(  165) = (   0.2190476   0.3869934   0.0000000), wk =   0.0047393
        k(  166) = (   0.2142857   0.3785805   0.0000000), wk =   0.0047393
        k(  167) = (   0.2095238   0.3701676   0.0000000), wk =   0.0047393
        k(  168) = (   0.2047619   0.3617547   0.0000000), wk =   0.0047393
        k(  169) = (   0.2000000   0.3533418   0.0000000), wk =   0.0047393
        k(  170) = (   0.1952381   0.3449289   0.0000000), wk =   0.0047393
        k(  171) = (   0.1904762   0.3365160   0.0000000), wk =   0.0047393
        k(  172) = (   0.1857143   0.3281031   0.0000000), wk =   0.0047393
        k(  173) = (   0.1809524   0.3196902   0.0000000), wk =   0.0047393
        k(  174) = (   0.1761905   0.3112773   0.0000000), wk =   0.0047393
        k(  175) = (   0.1714286   0.3028644   0.0000000), wk =   0.0047393
        k(  176) = (   0.1666667   0.2944515   0.0000000), wk =   0.0047393
        k(  177) = (   0.1619048   0.2860386   0.0000000), wk =   0.0047393
        k(  178) = (   0.1571429   0.2776257   0.0000000), wk =   0.0047393
        k(  179) = (   0.1523810   0.2692128   0.0000000), wk =   0.0047393
        k(  180) = (   0.1476190   0.2607999   0.0000000), wk =   0.0047393
        k(  181) = (   0.1428571   0.2523870   0.0000000), wk =   0.0047393
        k(  182) = (   0.1380952   0.2439741   0.0000000), wk =   0.0047393
        k(  183) = (   0.1333333   0.2355612   0.0000000), wk =   0.0047393
        k(  184) = (   0.1285714   0.2271483   0.0000000), wk =   0.0047393
        k(  185) = (   0.1238095   0.2187354   0.0000000), wk =   0.0047393
        k(  186) = (   0.1190476   0.2103225   0.0000000), wk =   0.0047393
        k(  187) = (   0.1142857   0.2019096   0.0000000), wk =   0.0047393
        k(  188) = (   0.1095238   0.1934967   0.0000000), wk =   0.0047393
        k(  189) = (   0.1047619   0.1850838   0.0000000), wk =   0.0047393
        k(  190) = (   0.1000000   0.1766709   0.0000000), wk =   0.0047393
        k(  191) = (   0.0952381   0.1682580   0.0000000), wk =   0.0047393
        k(  192) = (   0.0904762   0.1598451   0.0000000), wk =   0.0047393
        k(  193) = (   0.0857143   0.1514322   0.0000000), wk =   0.0047393
        k(  194) = (   0.0809524   0.1430193   0.0000000), wk =   0.0047393
        k(  195) = (   0.0761905   0.1346064   0.0000000), wk =   0.0047393
        k(  196) = (   0.0714286   0.1261935   0.0000000), wk =   0.0047393
        k(  197) = (   0.0666667   0.1177806   0.0000000), wk =   0.0047393
        k(  198) = (   0.0619048   0.1093677   0.0000000), wk =   0.0047393
        k(  199) = (   0.0571429   0.1009548   0.0000000), wk =   0.0047393
        k(  200) = (   0.0523810   0.0925419   0.0000000), wk =   0.0047393
        k(  201) = (   0.0476190   0.0841290   0.0000000), wk =   0.0047393
        k(  202) = (   0.0428571   0.0757161   0.0000000), wk =   0.0047393
        k(  203) = (   0.0380952   0.0673032   0.0000000), wk =   0.0047393
        k(  204) = (   0.0333333   0.0588903   0.0000000), wk =   0.0047393
        k(  205) = (   0.0285714   0.0504774   0.0000000), wk =   0.0047393
        k(  206) = (   0.0238095   0.0420645   0.0000000), wk =   0.0047393
        k(  207) = (   0.0190476   0.0336516   0.0000000), wk =   0.0047393
        k(  208) = (   0.0142857   0.0252387   0.0000000), wk =   0.0047393
        k(  209) = (   0.0095238   0.0168258   0.0000000), wk =   0.0047393
        k(  210) = (   0.0047619   0.0084129   0.0000000), wk =   0.0047393
        k(  211) = (   0.0000000   0.0000000   0.0000000), wk =   0.0047393

                       cryst. coord.
        k(    1) = (   0.0000000   0.0000000   0.0000000), wk =   0.0047393
        k(    2) = (   0.0071429   0.0000000   0.0000000), wk =   0.0047393
        k(    3) = (   0.0142857   0.0000000   0.0000000), wk =   0.0047393
        k(    4) = (   0.0214286   0.0000000   0.0000000), wk =   0.0047393
        k(    5) = (   0.0285714   0.0000000   0.0000000), wk =   0.0047393
        k(    6) = (   0.0357143  -0.0000000   0.0000000), wk =   0.0047393
        k(    7) = (   0.0428571   0.0000000   0.0000000), wk =   0.0047393
        k(    8) = (   0.0500000   0.0000000   0.0000000), wk =   0.0047393
        k(    9) = (   0.0571429   0.0000000   0.0000000), wk =   0.0047393
        k(   10) = (   0.0642857   0.0000000   0.0000000), wk =   0.0047393
        k(   11) = (   0.0714286  -0.0000000   0.0000000), wk =   0.0047393
        k(   12) = (   0.0785714  -0.0000000   0.0000000), wk =   0.0047393
        k(   13) = (   0.0857143   0.0000000   0.0000000), wk =   0.0047393
        k(   14) = (   0.0928571  -0.0000000   0.0000000), wk =   0.0047393
        k(   15) = (   0.1000000   0.0000000   0.0000000), wk =   0.0047393
        k(   16) = (   0.1071429   0.0000000   0.0000000), wk =   0.0047393
        k(   17) = (   0.1142857   0.0000000   0.0000000), wk =   0.0047393
        k(   18) = (   0.1214286   0.0000000   0.0000000), wk =   0.0047393
        k(   19) = (   0.1285714   0.0000000   0.0000000), wk =   0.0047393
        k(   20) = (   0.1357143   0.0000000   0.0000000), wk =   0.0047393
        k(   21) = (   0.1428571  -0.0000000   0.0000000), wk =   0.0047393
        k(   22) = (   0.1500000  -0.0000000   0.0000000), wk =   0.0047393
        k(   23) = (   0.1571429  -0.0000000   0.0000000), wk =   0.0047393
        k(   24) = (   0.1642857   0.0000000   0.0000000), wk =   0.0047393
        k(   25) = (   0.1714286   0.0000000   0.0000000), wk =   0.0047393
        k(   26) = (   0.1785714  -0.0000000   0.0000000), wk =   0.0047393
        k(   27) = (   0.1857143  -0.0000000   0.0000000), wk =   0.0047393
        k(   28) = (   0.1928571   0.0000000   0.0000000), wk =   0.0047393
        k(   29) = (   0.2000000   0.0000000   0.0000000), wk =   0.0047393
        k(   30) = (   0.2071429   0.0000000   0.0000000), wk =   0.0047393
        k(   31) = (   0.2142857   0.0000000   0.0000000), wk =   0.0047393
        k(   32) = (   0.2214286   0.0000000   0.0000000), wk =   0.0047393
        k(   33) = (   0.2285714   0.0000000   0.0000000), wk =   0.0047393
        k(   34) = (   0.2357143   0.0000000   0.0000000), wk =   0.0047393
        k(   35) = (   0.2428571   0.0000000   0.0000000), wk =   0.0047393
        k(   36) = (   0.2500000   0.0000000   0.0000000), wk =   0.0047393
        k(   37) = (   0.2571429   0.0000000   0.0000000), wk =   0.0047393
        k(   38) = (   0.2642857  -0.0000000   0.0000000), wk =   0.0047393
        k(   39) = (   0.2714286   0.0000000   0.0000000), wk =   0.0047393
        k(   40) = (   0.2785714  -0.0000000   0.0000000), wk =   0.0047393
        k(   41) = (   0.2857143  -0.0000000   0.0000000), wk =   0.0047393
        k(   42) = (   0.2928571   0.0000000   0.0000000), wk =   0.0047393
        k(   43) = (   0.3000000  -0.0000000   0.0000000), wk =   0.0047393
        k(   44) = (   0.3071429   0.0000000   0.0000000), wk =   0.0047393
        k(   45) = (   0.3142857  -0.0000000   0.0000000), wk =   0.0047393
        k(   46) = (   0.3214286  -0.0000000   0.0000000), wk =   0.0047393
        k(   47) = (   0.3285714   0.0000000   0.0000000), wk =   0.0047393
        k(   48) = (   0.3357143   0.0000000   0.0000000), wk =   0.0047393
        k(   49) = (   0.3428571   0.0000000   0.0000000), wk =   0.0047393
        k(   50) = (   0.3500000   0.0000000   0.0000000), wk =   0.0047393
        k(   51) = (   0.3571429  -0.0000000   0.0000000), wk =   0.0047393
        k(   52) = (   0.3642857   0.0000000   0.0000000), wk =   0.0047393
        k(   53) = (   0.3714286  -0.0000000   0.0000000), wk =   0.0047393
        k(   54) = (   0.3785714  -0.0000000   0.0000000), wk =   0.0047393
        k(   55) = (   0.3857143   0.0000000   0.0000000), wk =   0.0047393
        k(   56) = (   0.3928571   0.0000000   0.0000000), wk =   0.0047393
        k(   57) = (   0.4000000   0.0000000   0.0000000), wk =   0.0047393
        k(   58) = (   0.4071429   0.0000000   0.0000000), wk =   0.0047393
        k(   59) = (   0.4142857   0.0000000   0.0000000), wk =   0.0047393
        k(   60) = (   0.4214286   0.0000000   0.0000000), wk =   0.0047393
        k(   61) = (   0.4285714   0.0000000   0.0000000), wk =   0.0047393
        k(   62) = (   0.4357143   0.0000000   0.0000000), wk =   0.0047393
        k(   63) = (   0.4428571   0.0000000   0.0000000), wk =   0.0047393
        k(   64) = (   0.4500000  -0.0000000   0.0000000), wk =   0.0047393
        k(   65) = (   0.4571429   0.0000000   0.0000000), wk =   0.0047393
        k(   66) = (   0.4642857  -0.0000000   0.0000000), wk =   0.0047393
        k(   67) = (   0.4714286   0.0000000   0.0000000), wk =   0.0047393
        k(   68) = (   0.4785714   0.0000000   0.0000000), wk =   0.0047393
        k(   69) = (   0.4857143   0.0000000   0.0000000), wk =   0.0047393
        k(   70) = (   0.4928571   0.0000000   0.0000000), wk =   0.0047393
        k(   71) = (   0.5000000   0.0000000   0.0000000), wk =   0.0047393
        k(   72) = (   0.4976190   0.0047619   0.0000000), wk =   0.0047393
        k(   73) = (   0.4952381   0.0095238   0.0000000), wk =   0.0047393
        k(   74) = (   0.4928571   0.0142857   0.0000000), wk =   0.0047393
        k(   75) = (   0.4904762   0.0190476   0.0000000), wk =   0.0047393
        k(   76) = (   0.4880952   0.0238095   0.0000000), wk =   0.0047393
        k(   77) = (   0.4857143   0.0285714   0.0000000), wk =   0.0047393
        k(   78) = (   0.4833333   0.0333333   0.0000000), wk =   0.0047393
        k(   79) = (   0.4809524   0.0380952   0.0000000), wk =   0.0047393
        k(   80) = (   0.4785714   0.0428571   0.0000000), wk =   0.0047393
        k(   81) = (   0.4761905   0.0476190   0.0000000), wk =   0.0047393
        k(   82) = (   0.4738095   0.0523810   0.0000000), wk =   0.0047393
        k(   83) = (   0.4714286   0.0571429   0.0000000), wk =   0.0047393
        k(   84) = (   0.4690476   0.0619048   0.0000000), wk =   0.0047393
        k(   85) = (   0.4666667   0.0666667   0.0000000), wk =   0.0047393
        k(   86) = (   0.4642857   0.0714286   0.0000000), wk =   0.0047393
        k(   87) = (   0.4619048   0.0761905   0.0000000), wk =   0.0047393
        k(   88) = (   0.4595238   0.0809524   0.0000000), wk =   0.0047393
        k(   89) = (   0.4571429   0.0857143   0.0000000), wk =   0.0047393
        k(   90) = (   0.4547619   0.0904762   0.0000000), wk =   0.0047393
        k(   91) = (   0.4523810   0.0952381   0.0000000), wk =   0.0047393
        k(   92) = (   0.4500000   0.1000000   0.0000000), wk =   0.0047393
        k(   93) = (   0.4476190   0.1047619   0.0000000), wk =   0.0047393
        k(   94) = (   0.4452381   0.1095238   0.0000000), wk =   0.0047393
        k(   95) = (   0.4428571   0.1142857   0.0000000), wk =   0.0047393
        k(   96) = (   0.4404762   0.1190476   0.0000000), wk =   0.0047393
        k(   97) = (   0.4380952   0.1238095   0.0000000), wk =   0.0047393
        k(   98) = (   0.4357143   0.1285714   0.0000000), wk =   0.0047393
        k(   99) = (   0.4333333   0.1333333   0.0000000), wk =   0.0047393
        k(  100) = (   0.4309524   0.1380952   0.0000000), wk =   0.0047393
        k(  101) = (   0.4285714   0.1428571   0.0000000), wk =   0.0047393
        k(  102) = (   0.4261905   0.1476190   0.0000000), wk =   0.0047393
        k(  103) = (   0.4238095   0.1523810   0.0000000), wk =   0.0047393
        k(  104) = (   0.4214286   0.1571429   0.0000000), wk =   0.0047393
        k(  105) = (   0.4190476   0.1619048   0.0000000), wk =   0.0047393
        k(  106) = (   0.4166667   0.1666667   0.0000000), wk =   0.0047393
        k(  107) = (   0.4142857   0.1714286   0.0000000), wk =   0.0047393
        k(  108) = (   0.4119048   0.1761905   0.0000000), wk =   0.0047393
        k(  109) = (   0.4095238   0.1809524   0.0000000), wk =   0.0047393
        k(  110) = (   0.4071429   0.1857143   0.0000000), wk =   0.0047393
        k(  111) = (   0.4047619   0.1904762   0.0000000), wk =   0.0047393
        k(  112) = (   0.4023810   0.1952381   0.0000000), wk =   0.0047393
        k(  113) = (   0.4000000   0.2000000   0.0000000), wk =   0.0047393
        k(  114) = (   0.3976190   0.2047619   0.0000000), wk =   0.0047393
        k(  115) = (   0.3952381   0.2095238   0.0000000), wk =   0.0047393
        k(  116) = (   0.3928571   0.2142857   0.0000000), wk =   0.0047393
        k(  117) = (   0.3904762   0.2190476   0.0000000), wk =   0.0047393
        k(  118) = (   0.3880952   0.2238095   0.0000000), wk =   0.0047393
        k(  119) = (   0.3857143   0.2285714   0.0000000), wk =   0.0047393
        k(  120) = (   0.3833333   0.2333333   0.0000000), wk =   0.0047393
        k(  121) = (   0.3809524   0.2380952   0.0000000), wk =   0.0047393
        k(  122) = (   0.3785714   0.2428571   0.0000000), wk =   0.0047393
        k(  123) = (   0.3761905   0.2476190   0.0000000), wk =   0.0047393
        k(  124) = (   0.3738095   0.2523810   0.0000000), wk =   0.0047393
        k(  125) = (   0.3714286   0.2571429   0.0000000), wk =   0.0047393
        k(  126) = (   0.3690476   0.2619048   0.0000000), wk =   0.0047393
        k(  127) = (   0.3666667   0.2666667   0.0000000), wk =   0.0047393
        k(  128) = (   0.3642857   0.2714286   0.0000000), wk =   0.0047393
        k(  129) = (   0.3619048   0.2761905   0.0000000), wk =   0.0047393
        k(  130) = (   0.3595238   0.2809524   0.0000000), wk =   0.0047393
        k(  131) = (   0.3571429   0.2857143   0.0000000), wk =   0.0047393
        k(  132) = (   0.3547619   0.2904762   0.0000000), wk =   0.0047393
        k(  133) = (   0.3523810   0.2952381   0.0000000), wk =   0.0047393
        k(  134) = (   0.3500000   0.3000000   0.0000000), wk =   0.0047393
        k(  135) = (   0.3476190   0.3047619   0.0000000), wk =   0.0047393
        k(  136) = (   0.3452381   0.3095238   0.0000000), wk =   0.0047393
        k(  137) = (   0.3428571   0.3142857   0.0000000), wk =   0.0047393
        k(  138) = (   0.3404762   0.3190476   0.0000000), wk =   0.0047393
        k(  139) = (   0.3380952   0.3238095   0.0000000), wk =   0.0047393
        k(  140) = (   0.3357143   0.3285714   0.0000000), wk =   0.0047393
        k(  141) = (   0.3333333   0.3333333   0.0000000), wk =   0.0047393
        k(  142) = (   0.3285714   0.3285714   0.0000000), wk =   0.0047393
        k(  143) = (   0.3238095   0.3238095   0.0000000), wk =   0.0047393
        k(  144) = (   0.3190476   0.3190476   0.0000000), wk =   0.0047393
        k(  145) = (   0.3142857   0.3142857   0.0000000), wk =   0.0047393
        k(  146) = (   0.3095238   0.3095238   0.0000000), wk =   0.0047393
        k(  147) = (   0.3047619   0.3047619   0.0000000), wk =   0.0047393
        k(  148) = (   0.3000000   0.3000000   0.0000000), wk =   0.0047393
        k(  149) = (   0.2952381   0.2952381   0.0000000), wk =   0.0047393
        k(  150) = (   0.2904762   0.2904762   0.0000000), wk =   0.0047393
        k(  151) = (   0.2857143   0.2857143   0.0000000), wk =   0.0047393
        k(  152) = (   0.2809524   0.2809524   0.0000000), wk =   0.0047393
        k(  153) = (   0.2761905   0.2761905   0.0000000), wk =   0.0047393
        k(  154) = (   0.2714286   0.2714286   0.0000000), wk =   0.0047393
        k(  155) = (   0.2666667   0.2666667   0.0000000), wk =   0.0047393
        k(  156) = (   0.2619048   0.2619048   0.0000000), wk =   0.0047393
        k(  157) = (   0.2571429   0.2571429   0.0000000), wk =   0.0047393
        k(  158) = (   0.2523810   0.2523810   0.0000000), wk =   0.0047393
        k(  159) = (   0.2476190   0.2476190   0.0000000), wk =   0.0047393
        k(  160) = (   0.2428571   0.2428571   0.0000000), wk =   0.0047393
        k(  161) = (   0.2380952   0.2380952   0.0000000), wk =   0.0047393
        k(  162) = (   0.2333333   0.2333333   0.0000000), wk =   0.0047393
        k(  163) = (   0.2285714   0.2285714   0.0000000), wk =   0.0047393
        k(  164) = (   0.2238095   0.2238095   0.0000000), wk =   0.0047393
        k(  165) = (   0.2190476   0.2190476   0.0000000), wk =   0.0047393
        k(  166) = (   0.2142857   0.2142857   0.0000000), wk =   0.0047393
        k(  167) = (   0.2095238   0.2095238   0.0000000), wk =   0.0047393
        k(  168) = (   0.2047619   0.2047619   0.0000000), wk =   0.0047393
        k(  169) = (   0.2000000   0.2000000   0.0000000), wk =   0.0047393
        k(  170) = (   0.1952381   0.1952381   0.0000000), wk =   0.0047393
        k(  171) = (   0.1904762   0.1904762   0.0000000), wk =   0.0047393
        k(  172) = (   0.1857143   0.1857143   0.0000000), wk =   0.0047393
        k(  173) = (   0.1809524   0.1809524   0.0000000), wk =   0.0047393
        k(  174) = (   0.1761905   0.1761905   0.0000000), wk =   0.0047393
        k(  175) = (   0.1714286   0.1714286   0.0000000), wk =   0.0047393
        k(  176) = (   0.1666667   0.1666667   0.0000000), wk =   0.0047393
        k(  177) = (   0.1619048   0.1619048   0.0000000), wk =   0.0047393
        k(  178) = (   0.1571429   0.1571429   0.0000000), wk =   0.0047393
        k(  179) = (   0.1523810   0.1523810   0.0000000), wk =   0.0047393
        k(  180) = (   0.1476190   0.1476190   0.0000000), wk =   0.0047393
        k(  181) = (   0.1428571   0.1428571   0.0000000), wk =   0.0047393
        k(  182) = (   0.1380952   0.1380952   0.0000000), wk =   0.0047393
        k(  183) = (   0.1333333   0.1333333   0.0000000), wk =   0.0047393
        k(  184) = (   0.1285714   0.1285714   0.0000000), wk =   0.0047393
        k(  185) = (   0.1238095   0.1238095   0.0000000), wk =   0.0047393
        k(  186) = (   0.1190476   0.1190476   0.0000000), wk =   0.0047393
        k(  187) = (   0.1142857   0.1142857   0.0000000), wk =   0.0047393
        k(  188) = (   0.1095238   0.1095238   0.0000000), wk =   0.0047393
        k(  189) = (   0.1047619   0.1047619   0.0000000), wk =   0.0047393
        k(  190) = (   0.1000000   0.1000000   0.0000000), wk =   0.0047393
        k(  191) = (   0.0952381   0.0952381   0.0000000), wk =   0.0047393
        k(  192) = (   0.0904762   0.0904762   0.0000000), wk =   0.0047393
        k(  193) = (   0.0857143   0.0857143   0.0000000), wk =   0.0047393
        k(  194) = (   0.0809524   0.0809524   0.0000000), wk =   0.0047393
        k(  195) = (   0.0761905   0.0761905   0.0000000), wk =   0.0047393
        k(  196) = (   0.0714286   0.0714286   0.0000000), wk =   0.0047393
        k(  197) = (   0.0666667   0.0666667   0.0000000), wk =   0.0047393
        k(  198) = (   0.0619048   0.0619048   0.0000000), wk =   0.0047393
        k(  199) = (   0.0571429   0.0571429   0.0000000), wk =   0.0047393
        k(  200) = (   0.0523810   0.0523810   0.0000000), wk =   0.0047393
        k(  201) = (   0.0476190   0.0476190   0.0000000), wk =   0.0047393
        k(  202) = (   0.0428571   0.0428571   0.0000000), wk =   0.0047393
        k(  203) = (   0.0380952   0.0380952   0.0000000), wk =   0.0047393
        k(  204) = (   0.0333333   0.0333333   0.0000000), wk =   0.0047393
        k(  205) = (   0.0285714   0.0285714   0.0000000), wk =   0.0047393
        k(  206) = (   0.0238095   0.0238095   0.0000000), wk =   0.0047393
        k(  207) = (   0.0190476   0.0190476   0.0000000), wk =   0.0047393
        k(  208) = (   0.0142857   0.0142857   0.0000000), wk =   0.0047393
        k(  209) = (   0.0095238   0.0095238   0.0000000), wk =   0.0047393
        k(  210) = (   0.0047619   0.0047619   0.0000000), wk =   0.0047393
        k(  211) = (   0.0000000   0.0000000   0.0000000), wk =   0.0047393

     Dense  grid:   467835 G-vectors     FFT dimensions: (  60,  60, 300)

     Smooth grid:   118417 G-vectors     FFT dimensions: (  40,  40, 192)

     Dynamical RAM for                 wfc:       1.88 MB

     Dynamical RAM for     wfc (w. buffer):       1.88 MB

     Dynamical RAM for           str. fact:       0.60 MB

     Dynamical RAM for           local pot:       0.00 MB

     Dynamical RAM for          nlocal pot:       1.60 MB

     Dynamical RAM for                qrad:       9.40 MB

     Dynamical RAM for          rho,v,vnew:       7.86 MB

     Dynamical RAM for           G-vectors:       1.15 MB

     Dynamical RAM for          h,s,v(r/c):       1.83 MB

     Dynamical RAM for          <psi|beta>:       0.52 MB

     Dynamical RAM for                 psi:       3.76 MB

     Dynamical RAM for                hpsi:       3.76 MB

     Dynamical RAM for                spsi:       3.76 MB

     Dynamical RAM for      wfcinit/wfcrot:       3.05 MB

     Dynamical RAM for           addusdens:     182.40 MB

     Estimated static dynamical RAM per process >      26.23 MB

     Estimated max dynamical RAM per process >     208.63 MB

     Estimated total dynamical RAM >       4.89 GB

     The potential is recalculated from file :
     tmp/Sb2Te3-uatsx-c6-soc-3.0.save/charge-density


     negative rho (up, down):  4.149E-06 0.000E+00
     Starting wfcs are   40 randomized atomic wfcs +   60 random wfcs

     Band Structure Calculation
     Davidson diagonalization with overlap

     Computing kpt #:     1  of   211
     total cpu time spent up to now is        7.3 secs

     Computing kpt #:     2  of   211
     total cpu time spent up to now is       12.0 secs

     Computing kpt #:     3  of   211
     total cpu time spent up to now is       16.6 secs

     Computing kpt #:     4  of   211
     total cpu time spent up to now is       21.3 secs

     Computing kpt #:     5  of   211
     total cpu time spent up to now is       26.0 secs

     Computing kpt #:     6  of   211
     total cpu time spent up to now is       30.7 secs

     Computing kpt #:     7  of   211
     total cpu time spent up to now is       36.1 secs

     Computing kpt #:     8  of   211
     total cpu time spent up to now is       41.2 secs

     Computing kpt #:     9  of   211
     total cpu time spent up to now is       46.7 secs

     Computing kpt #:    10  of   211
     total cpu time spent up to now is       51.9 secs

     Computing kpt #:    11  of   211
     total cpu time spent up to now is       57.5 secs

     Computing kpt #:    12  of   211
     total cpu time spent up to now is       63.0 secs

     Computing kpt #:    13  of   211
     total cpu time spent up to now is       68.1 secs

     Computing kpt #:    14  of   211
     total cpu time spent up to now is       72.9 secs

     Computing kpt #:    15  of   211
     total cpu time spent up to now is       77.8 secs

     Computing kpt #:    16  of   211
     total cpu time spent up to now is       82.9 secs

     Computing kpt #:    17  of   211
     total cpu time spent up to now is       87.8 secs

     Computing kpt #:    18  of   211
     total cpu time spent up to now is       92.5 secs

     Computing kpt #:    19  of   211
     total cpu time spent up to now is       97.2 secs

     Computing kpt #:    20  of   211
     total cpu time spent up to now is      101.9 secs

     Computing kpt #:    21  of   211
     total cpu time spent up to now is      106.7 secs

     Computing kpt #:    22  of   211
     total cpu time spent up to now is      111.4 secs

     Computing kpt #:    23  of   211
     total cpu time spent up to now is      116.2 secs

     Computing kpt #:    24  of   211
     total cpu time spent up to now is      121.1 secs

     Computing kpt #:    25  of   211
     total cpu time spent up to now is      126.3 secs

     Computing kpt #:    26  of   211
     total cpu time spent up to now is      131.5 secs

     Computing kpt #:    27  of   211
     total cpu time spent up to now is      136.6 secs

     Computing kpt #:    28  of   211
     total cpu time spent up to now is      141.9 secs

     Computing kpt #:    29  of   211
     total cpu time spent up to now is      147.0 secs

     Computing kpt #:    30  of   211
     total cpu time spent up to now is      152.2 secs

     Computing kpt #:    31  of   211
     total cpu time spent up to now is      157.1 secs

     Computing kpt #:    32  of   211
     total cpu time spent up to now is      162.0 secs

     Computing kpt #:    33  of   211
     total cpu time spent up to now is      167.1 secs

     Computing kpt #:    34  of   211
     total cpu time spent up to now is      172.1 secs

     Computing kpt #:    35  of   211
     total cpu time spent up to now is      177.2 secs

     Computing kpt #:    36  of   211
     total cpu time spent up to now is      182.2 secs

     Computing kpt #:    37  of   211
     total cpu time spent up to now is      187.2 secs

     Computing kpt #:    38  of   211
     total cpu time spent up to now is      192.3 secs

     Computing kpt #:    39  of   211
     total cpu time spent up to now is      197.2 secs

     Computing kpt #:    40  of   211
     total cpu time spent up to now is      202.9 secs

     Computing kpt #:    41  of   211
     total cpu time spent up to now is      208.3 secs

     Computing kpt #:    42  of   211
     total cpu time spent up to now is      213.6 secs

     Computing kpt #:    43  of   211
     total cpu time spent up to now is      219.1 secs

     Computing kpt #:    44  of   211
     total cpu time spent up to now is      224.7 secs

     Computing kpt #:    45  of   211
     total cpu time spent up to now is      230.1 secs

     Computing kpt #:    46  of   211
     total cpu time spent up to now is      235.6 secs

     Computing kpt #:    47  of   211
     total cpu time spent up to now is      241.1 secs

     Computing kpt #:    48  of   211
     total cpu time spent up to now is      247.8 secs

     Computing kpt #:    49  of   211
     total cpu time spent up to now is      254.6 secs

     Computing kpt #:    50  of   211
     total cpu time spent up to now is      260.9 secs

     Computing kpt #:    51  of   211
     total cpu time spent up to now is      267.0 secs

     Computing kpt #:    52  of   211
     total cpu time spent up to now is      272.7 secs

     Computing kpt #:    53  of   211
     total cpu time spent up to now is      278.9 secs

     Computing kpt #:    54  of   211
     total cpu time spent up to now is      285.2 secs

     Computing kpt #:    55  of   211
     total cpu time spent up to now is      291.4 secs

     Computing kpt #:    56  of   211
     total cpu time spent up to now is      297.7 secs

     Computing kpt #:    57  of   211
     total cpu time spent up to now is      304.5 secs

     Computing kpt #:    58  of   211
     c_bands:  1 eigenvalues not converged
     total cpu time spent up to now is      311.9 secs

     Computing kpt #:    59  of   211
     c_bands:  2 eigenvalues not converged
     total cpu time spent up to now is      319.4 secs

     Computing kpt #:    60  of   211
     c_bands:  2 eigenvalues not converged
     total cpu time spent up to now is      327.0 secs

     Computing kpt #:    61  of   211
     total cpu time spent up to now is      334.2 secs

     Computing kpt #:    62  of   211
     total cpu time spent up to now is      340.9 secs

     Computing kpt #:    63  of   211
     total cpu time spent up to now is      347.9 secs

     Computing kpt #:    64  of   211
     total cpu time spent up to now is      354.5 secs

     Computing kpt #:    65  of   211
     total cpu time spent up to now is      361.4 secs

     Computing kpt #:    66  of   211
     total cpu time spent up to now is      368.3 secs

     Computing kpt #:    67  of   211
     total cpu time spent up to now is      375.3 secs

     Computing kpt #:    68  of   211
     total cpu time spent up to now is      382.1 secs

     Computing kpt #:    69  of   211
     total cpu time spent up to now is      389.0 secs

     Computing kpt #:    70  of   211
     total cpu time spent up to now is      395.6 secs

     Computing kpt #:    71  of   211
     total cpu time spent up to now is      402.2 secs

     Computing kpt #:    72  of   211
     total cpu time spent up to now is      408.8 secs

     Computing kpt #:    73  of   211
     total cpu time spent up to now is      415.6 secs

     Computing kpt #:    74  of   211
     total cpu time spent up to now is      423.0 secs

     Computing kpt #:    75  of   211
     c_bands:  2 eigenvalues not converged
     total cpu time spent up to now is      430.5 secs

     Computing kpt #:    76  of   211
     c_bands:  2 eigenvalues not converged
     total cpu time spent up to now is      438.3 secs

     Computing kpt #:    77  of   211
     c_bands:  2 eigenvalues not converged
     total cpu time spent up to now is      445.9 secs

     Computing kpt #:    78  of   211
     c_bands:  2 eigenvalues not converged
     total cpu time spent up to now is      453.5 secs

     Computing kpt #:    79  of   211
     total cpu time spent up to now is      460.3 secs

     Computing kpt #:    80  of   211
     total cpu time spent up to now is      467.3 secs

     Computing kpt #:    81  of   211
     total cpu time spent up to now is      474.0 secs

     Computing kpt #:    82  of   211
     total cpu time spent up to now is      480.8 secs

     Computing kpt #:    83  of   211
     total cpu time spent up to now is      487.5 secs

     Computing kpt #:    84  of   211
     total cpu time spent up to now is      494.5 secs

     Computing kpt #:    85  of   211
     total cpu time spent up to now is      501.4 secs

     Computing kpt #:    86  of   211
     total cpu time spent up to now is      508.5 secs

     Computing kpt #:    87  of   211
     total cpu time spent up to now is      515.4 secs

     Computing kpt #:    88  of   211
     total cpu time spent up to now is      522.2 secs

     Computing kpt #:    89  of   211
     total cpu time spent up to now is      529.7 secs

     Computing kpt #:    90  of   211
     total cpu time spent up to now is      536.6 secs

     Computing kpt #:    91  of   211
     total cpu time spent up to now is      543.7 secs

     Computing kpt #:    92  of   211
     total cpu time spent up to now is      551.1 secs

     Computing kpt #:    93  of   211
     total cpu time spent up to now is      558.0 secs

     Computing kpt #:    94  of   211
     total cpu time spent up to now is      564.8 secs

     Computing kpt #:    95  of   211
     total cpu time spent up to now is      571.6 secs

     Computing kpt #:    96  of   211
     total cpu time spent up to now is      578.8 secs

     Computing kpt #:    97  of   211
     total cpu time spent up to now is      585.6 secs

     Computing kpt #:    98  of   211
     total cpu time spent up to now is      592.4 secs

     Computing kpt #:    99  of   211
     total cpu time spent up to now is      599.2 secs

     Computing kpt #:   100  of   211
     total cpu time spent up to now is      606.0 secs

     Computing kpt #:   101  of   211
     total cpu time spent up to now is      612.7 secs

     Computing kpt #:   102  of   211
     total cpu time spent up to now is      619.0 secs

     Computing kpt #:   103  of   211
     total cpu time spent up to now is      625.7 secs

     Computing kpt #:   104  of   211
     total cpu time spent up to now is      632.2 secs

     Computing kpt #:   105  of   211
     total cpu time spent up to now is      638.8 secs

     Computing kpt #:   106  of   211
     total cpu time spent up to now is      645.4 secs

     Computing kpt #:   107  of   211
     total cpu time spent up to now is      652.1 secs

     Computing kpt #:   108  of   211
     total cpu time spent up to now is      658.6 secs

     Computing kpt #:   109  of   211
     total cpu time spent up to now is      665.0 secs

     Computing kpt #:   110  of   211
     total cpu time spent up to now is      671.9 secs

     Computing kpt #:   111  of   211
     c_bands:  1 eigenvalues not converged
     total cpu time spent up to now is      679.0 secs

     Computing kpt #:   112  of   211
     c_bands:  2 eigenvalues not converged
     total cpu time spent up to now is      686.1 secs

     Computing kpt #:   113  of   211
     c_bands:  2 eigenvalues not converged
     total cpu time spent up to now is      693.2 secs

     Computing kpt #:   114  of   211
     c_bands:  1 eigenvalues not converged
     total cpu time spent up to now is      700.2 secs

     Computing kpt #:   115  of   211
     total cpu time spent up to now is      707.0 secs

     Computing kpt #:   116  of   211
     total cpu time spent up to now is      713.4 secs

     Computing kpt #:   117  of   211
     total cpu time spent up to now is      720.5 secs

     Computing kpt #:   118  of   211
     total cpu time spent up to now is      726.2 secs

     Computing kpt #:   119  of   211
     total cpu time spent up to now is      734.6 secs

     Computing kpt #:   120  of   211
     total cpu time spent up to now is      740.2 secs

     Computing kpt #:   121  of   211
     total cpu time spent up to now is      745.8 secs

     Computing kpt #:   122  of   211
     total cpu time spent up to now is      751.3 secs

     Computing kpt #:   123  of   211
     total cpu time spent up to now is      756.9 secs

     Computing kpt #:   124  of   211
     total cpu time spent up to now is      762.4 secs

     Computing kpt #:   125  of   211
     total cpu time spent up to now is      768.1 secs

     Computing kpt #:   126  of   211
     total cpu time spent up to now is      773.6 secs

     Computing kpt #:   127  of   211
     total cpu time spent up to now is      779.2 secs

     Computing kpt #:   128  of   211
     total cpu time spent up to now is      785.2 secs

     Computing kpt #:   129  of   211
     total cpu time spent up to now is      790.7 secs

     Computing kpt #:   130  of   211
     total cpu time spent up to now is      797.9 secs

     Computing kpt #:   131  of   211
     total cpu time spent up to now is      803.4 secs

     Computing kpt #:   132  of   211
     total cpu time spent up to now is      808.9 secs

     Computing kpt #:   133  of   211
     total cpu time spent up to now is      814.4 secs

     Computing kpt #:   134  of   211
     total cpu time spent up to now is      819.9 secs

     Computing kpt #:   135  of   211
     total cpu time spent up to now is      825.3 secs

     Computing kpt #:   136  of   211
     total cpu time spent up to now is      830.9 secs

     Computing kpt #:   137  of   211
     total cpu time spent up to now is      836.5 secs

     Computing kpt #:   138  of   211
     total cpu time spent up to now is      842.3 secs

     Computing kpt #:   139  of   211
     total cpu time spent up to now is      847.9 secs

     Computing kpt #:   140  of   211
     total cpu time spent up to now is      853.8 secs

     Computing kpt #:   141  of   211
     c_bands:  1 eigenvalues not converged
     total cpu time spent up to now is      860.5 secs

     Computing kpt #:   142  of   211
     total cpu time spent up to now is      866.5 secs

     Computing kpt #:   143  of   211
     total cpu time spent up to now is      872.9 secs

     Computing kpt #:   144  of   211
     total cpu time spent up to now is      879.0 secs

     Computing kpt #:   145  of   211
     total cpu time spent up to now is      884.5 secs

     Computing kpt #:   146  of   211
     total cpu time spent up to now is      890.0 secs

     Computing kpt #:   147  of   211
     total cpu time spent up to now is      895.4 secs

     Computing kpt #:   148  of   211
     total cpu time spent up to now is      900.8 secs

     Computing kpt #:   149  of   211
     total cpu time spent up to now is      908.5 secs

     Computing kpt #:   150  of   211
     total cpu time spent up to now is      913.7 secs

     Computing kpt #:   151  of   211
     total cpu time spent up to now is      918.8 secs

     Computing kpt #:   152  of   211
     total cpu time spent up to now is      923.8 secs

     Computing kpt #:   153  of   211
     total cpu time spent up to now is      928.9 secs

     Computing kpt #:   154  of   211
     total cpu time spent up to now is      934.4 secs

     Computing kpt #:   155  of   211
     total cpu time spent up to now is      939.5 secs

     Computing kpt #:   156  of   211
     total cpu time spent up to now is      944.6 secs

     Computing kpt #:   157  of   211
     total cpu time spent up to now is      950.0 secs

     Computing kpt #:   158  of   211
     total cpu time spent up to now is      956.1 secs

     Computing kpt #:   159  of   211
     total cpu time spent up to now is      961.3 secs

     Computing kpt #:   160  of   211
     total cpu time spent up to now is      966.3 secs

     Computing kpt #:   161  of   211
     total cpu time spent up to now is      971.3 secs

     Computing kpt #:   162  of   211
     total cpu time spent up to now is      976.9 secs

     Computing kpt #:   163  of   211
     total cpu time spent up to now is      983.3 secs

     Computing kpt #:   164  of   211
     total cpu time spent up to now is      988.6 secs

     Computing kpt #:   165  of   211
     total cpu time spent up to now is      993.6 secs

     Computing kpt #:   166  of   211
     total cpu time spent up to now is      998.6 secs

     Computing kpt #:   167  of   211
     total cpu time spent up to now is     1003.6 secs

     Computing kpt #:   168  of   211
     total cpu time spent up to now is     1008.8 secs

     Computing kpt #:   169  of   211
     total cpu time spent up to now is     1014.8 secs

     Computing kpt #:   170  of   211
     total cpu time spent up to now is     1020.3 secs

     Computing kpt #:   171  of   211
     total cpu time spent up to now is     1026.2 secs

     Computing kpt #:   172  of   211
     total cpu time spent up to now is     1032.1 secs

     Computing kpt #:   173  of   211
     total cpu time spent up to now is     1038.1 secs

     Computing kpt #:   174  of   211
     total cpu time spent up to now is     1043.9 secs

     Computing kpt #:   175  of   211
     total cpu time spent up to now is     1049.3 secs

     Computing kpt #:   176  of   211
     total cpu time spent up to now is     1054.8 secs

     Computing kpt #:   177  of   211
     total cpu time spent up to now is     1060.2 secs

     Computing kpt #:   178  of   211
     total cpu time spent up to now is     1065.5 secs

     Computing kpt #:   179  of   211
     total cpu time spent up to now is     1070.5 secs

     Computing kpt #:   180  of   211
     total cpu time spent up to now is     1075.6 secs

     Computing kpt #:   181  of   211
     total cpu time spent up to now is     1080.7 secs

     Computing kpt #:   182  of   211
     total cpu time spent up to now is     1086.1 secs

     Computing kpt #:   183  of   211
     total cpu time spent up to now is     1091.5 secs

     Computing kpt #:   184  of   211
     total cpu time spent up to now is     1096.6 secs

     Computing kpt #:   185  of   211
     total cpu time spent up to now is     1101.6 secs

     Computing kpt #:   186  of   211
     total cpu time spent up to now is     1106.4 secs

     Computing kpt #:   187  of   211
     total cpu time spent up to now is     1111.4 secs

     Computing kpt #:   188  of   211
     total cpu time spent up to now is     1116.3 secs

     Computing kpt #:   189  of   211
     total cpu time spent up to now is     1121.3 secs

     Computing kpt #:   190  of   211
     total cpu time spent up to now is     1126.1 secs

     Computing kpt #:   191  of   211
     total cpu time spent up to now is     1131.0 secs

     Computing kpt #:   192  of   211
     total cpu time spent up to now is     1136.5 secs

     Computing kpt #:   193  of   211
     total cpu time spent up to now is     1141.6 secs

     Computing kpt #:   194  of   211
     total cpu time spent up to now is     1146.8 secs

     Computing kpt #:   195  of   211
     total cpu time spent up to now is     1151.9 secs

     Computing kpt #:   196  of   211
     total cpu time spent up to now is     1156.8 secs

     Computing kpt #:   197  of   211
     total cpu time spent up to now is     1161.7 secs

     Computing kpt #:   198  of   211
     total cpu time spent up to now is     1166.9 secs

     Computing kpt #:   199  of   211
     total cpu time spent up to now is     1172.1 secs

     Computing kpt #:   200  of   211
     total cpu time spent up to now is     1177.4 secs

     Computing kpt #:   201  of   211
     total cpu time spent up to now is     1182.4 secs

     Computing kpt #:   202  of   211
     total cpu time spent up to now is     1187.1 secs

     Computing kpt #:   203  of   211
     total cpu time spent up to now is     1191.8 secs

     Computing kpt #:   204  of   211
     total cpu time spent up to now is     1196.5 secs

     Computing kpt #:   205  of   211
     total cpu time spent up to now is     1201.3 secs

     Computing kpt #:   206  of   211
     total cpu time spent up to now is     1205.9 secs

     Computing kpt #:   207  of   211
     total cpu time spent up to now is     1210.7 secs

     Computing kpt #:   208  of   211
     total cpu time spent up to now is     1215.6 secs

     Computing kpt #:   209  of   211
     total cpu time spent up to now is     1220.3 secs

     Computing kpt #:   210  of   211
     total cpu time spent up to now is     1224.9 secs

     Computing kpt #:   211  of   211
     total cpu time spent up to now is     1229.7 secs

     ethr =  3.57E-10,  avg # of iterations = 74.2

     total cpu time spent up to now is     1229.7 secs

     End of band structure calculation

          k = 0.0000 0.0000 0.0000 ( 14817 PWs)   bands (ev):

   -12.6089 -12.6089 -12.0786 -12.0786 -10.9948 -10.9948  -8.2598  -8.2598
    -6.8912  -6.8912  -2.5086  -2.5086  -2.0732  -2.0732  -1.7832  -1.7832
    -1.5301  -1.5301  -1.4638  -1.4638  -1.3644  -1.3644  -1.0862  -1.0862
    -0.7869  -0.7869  -0.6179  -0.6179   0.0333   0.0333   0.6871   0.6871
     1.0493   1.0493   1.2541   1.2541   1.9838   1.9838   2.1767   2.1767
     4.1886   4.1886   4.3809   4.3809   4.9980   4.9980   5.4365   5.4365
     5.5601   5.5601   5.8649   5.8649   6.3866   6.3866   6.5951   6.5951
     6.7093   6.7093   6.7989   6.7989   7.2046   7.2046   7.5611   7.5611
     7.7132   7.7132   8.0357   8.0357   8.0935   8.0935   8.5497   8.5497
     8.9866   8.9866   9.3637   9.3637   9.5027   9.5027   9.5052   9.5052
     9.7193   9.7193  10.8399  10.8399  10.8488  10.8488  11.8188  11.8188
    12.0784  12.0784  12.2115  12.2115  12.2558  12.2558  12.4368  12.4368
    13.0516  13.0516  13.6331  13.6331

          k = 0.0071 0.0041 0.0000 ( 14809 PWs)   bands (ev):

   -12.6085 -12.6085 -12.0782 -12.0782 -10.9946 -10.9946  -8.2599  -8.2599
    -6.8920  -6.8920  -2.5094  -2.5094  -2.0795  -2.0793  -1.7823  -1.7821
    -1.5357  -1.5352  -1.4749  -1.4742  -1.3545  -1.3532  -1.0837  -1.0835
    -0.7895  -0.7893  -0.6158  -0.6157   0.0397   0.0399   0.6862   0.6864
     1.0431   1.0435   1.2611   1.2616   1.9858   1.9860   2.1763   2.1764
     4.1893   4.1893   4.3810   4.3810   4.9982   4.9982   5.4342   5.4342
     5.5598   5.5598   5.8651   5.8651   6.3893   6.3893   6.5935   6.5935
     6.7088   6.7089   6.7985   6.7985   7.2030   7.2031   7.5675   7.5675
     7.7154   7.7154   8.0338   8.0338   8.0958   8.0958   8.5515   8.5515
     8.9870   8.9870   9.3537   9.3541   9.4557   9.4564   9.5584   9.5588
     9.7266   9.7268  10.8373  10.8374  10.8515  10.8515  11.8061  11.8061
    12.0827  12.0828  12.1943  12.1946  12.2768  12.2770  12.4406  12.4406
    13.0540  13.0540  13.6107  13.6107

          k = 0.0143 0.0082 0.0000 ( 14816 PWs)   bands (ev):

   -12.6072 -12.6072 -12.0771 -12.0771 -10.9939 -10.9939  -8.2601  -8.2601
    -6.8944  -6.8944  -2.5118  -2.5118  -2.0974  -2.0972  -1.7800  -1.7796
    -1.5556  -1.5544  -1.4929  -1.4923  -1.3339  -1.3321  -1.0762  -1.0758
    -0.7972  -0.7968  -0.6085  -0.6083   0.0584   0.0587   0.6835   0.6838
     1.0279   1.0286   1.2800   1.2809   1.9919   1.9922   2.1755   2.1755
     4.1916   4.1916   4.3814   4.3814   4.9988   4.9988   5.4271   5.4271
     5.5591   5.5591   5.8658   5.8658   6.3971   6.3971   6.5886   6.5887
     6.7064   6.7066   6.7987   6.7988   7.1988   7.1989   7.5857   7.5858
     7.7219   7.7220   8.0284   8.0285   8.1027   8.1027   8.5569   8.5569
     8.9878   8.9879   9.3268   9.3274   9.4165   9.4172   9.6169   9.6173
     9.7474   9.7477  10.8325  10.8325  10.8569  10.8569  11.7733  11.7733
    12.0817  12.0820  12.1821  12.1826  12.3089  12.3090  12.4533  12.4533
    13.0591  13.0592  13.5575  13.5575

          k = 0.0214 0.0124 0.0000 ( 14812 PWs)   bands (ev):

   -12.6051 -12.6051 -12.0752 -12.0752 -10.9928 -10.9928  -8.2606  -8.2606
    -6.8984  -6.8984  -2.5158  -2.5158  -2.1255  -2.1253  -1.7780  -1.7773
    -1.5904  -1.5888  -1.5056  -1.5049  -1.3144  -1.3124  -1.0645  -1.0639
    -0.8090  -0.8085  -0.5948  -0.5945   0.0874   0.0878   0.6790   0.6794
     1.0092   1.0100   1.3058   1.3069   2.0018   2.0021   2.1743   2.1745
     4.1954   4.1954   4.3820   4.3821   4.9997   4.9997   5.4153   5.4154
     5.5582   5.5582   5.8674   5.8674   6.4093   6.4093   6.5803   6.5805
     6.7006   6.7008   6.8029   6.8029   7.1927   7.1928   7.6133   7.6134
     7.7325   7.7326   8.0205   8.0205   8.1139   8.1139   8.5662   8.5662
     8.9878   8.9878   9.2908   9.2914   9.3840   9.3846   9.6772   9.6777
     9.7786   9.7791  10.8268  10.8268  10.8635  10.8635  11.7292  11.7293
    12.0586  12.0589  12.1947  12.1951  12.3392  12.3393  12.4767  12.4767
    13.0611  13.0611  13.4977  13.4977

          k = 0.0286 0.0165 0.0000 ( 14806 PWs)   bands (ev):

   -12.6022 -12.6022 -12.0725 -12.0725 -10.9912 -10.9912  -8.2612  -8.2612
    -6.9041  -6.9041  -2.5215  -2.5214  -2.1618  -2.1615  -1.7778  -1.7770
    -1.6335  -1.6317  -1.5148  -1.5140  -1.3004  -1.2983  -1.0505  -1.0497
    -0.8223  -0.8215  -0.5744  -0.5739   0.1239   0.1244   0.6725   0.6730
     0.9918   0.9926   1.3345   1.3358   2.0149   2.0154   2.1736   2.1737
     4.2007   4.2007   4.3829   4.3829   5.0008   5.0008   5.3992   5.3992
     5.5573   5.5574   5.8701   5.8701   6.4249   6.4249   6.5682   6.5684
     6.6916   6.6919   6.8129   6.8130   7.1857   7.1857   7.6468   7.6469
     7.7466   7.7467   8.0115   8.0115   8.1295   8.1295   8.5798   8.5798
     8.9845   8.9846   9.2545   9.2550   9.3550   9.3555   9.7378   9.7384
     9.8179   9.8185  10.8202  10.8202  10.8714  10.8714  11.6801  11.6802
    12.0231  12.0232  12.2159  12.2163  12.3695  12.3696  12.5098  12.5098
    13.0494  13.0494  13.4516  13.4516

          k = 0.0357 0.0206 0.0000 ( 14800 PWs)   bands (ev):

   -12.5984 -12.5984 -12.0691 -12.0691 -10.9892 -10.9892  -8.2621  -8.2621
    -6.9114  -6.9114  -2.5290  -2.5288  -2.2047  -2.2044  -1.7810  -1.7801
    -1.6795  -1.6778  -1.5235  -1.5226  -1.2931  -1.2911  -1.0373  -1.0364
    -0.8322  -0.8313  -0.5479  -0.5474   0.1649   0.1656   0.6648   0.6653
     0.9785   0.9793   1.3639   1.3652   2.0303   2.0309   2.1740   2.1742
     4.2074   4.2074   4.3840   4.3840   5.0018   5.0018   5.3792   5.3792
     5.5568   5.5569   5.8744   5.8744   6.4421   6.4421   6.5521   6.5523
     6.6823   6.6826   6.8286   6.8286   7.1784   7.1785   7.6819   7.6820
     7.7638   7.7639   8.0036   8.0037   8.1497   8.1498   8.5980   8.5980
     8.9753   8.9754   9.2240   9.2244   9.3286   9.3290   9.7971   9.7979
     9.8634   9.8642  10.8126  10.8126  10.8806  10.8806  11.6297  11.6297
    11.9839  11.9841  12.2333  12.2336  12.4042  12.4043  12.5484  12.5484
    13.0146  13.0146  13.4330  13.4330

          k = 0.0429 0.0247 0.0000 ( 14804 PWs)   bands (ev):

   -12.5938 -12.5938 -12.0649 -12.0649 -10.9867 -10.9867  -8.2631  -8.2631
    -6.9203  -6.9203  -2.5382  -2.5381  -2.2527  -2.2525  -1.7891  -1.7882
    -1.7256  -1.7241  -1.5330  -1.5320  -1.2931  -1.2911  -1.0283  -1.0272
    -0.8338  -0.8328  -0.5172  -0.5165   0.2072   0.2080   0.6571   0.6577
     0.9713   0.9719   1.3927   1.3940   2.0465   2.0472   2.1773   2.1774
     4.2155   4.2156   4.3852   4.3852   5.0024   5.0024   5.3562   5.3562
     5.5567   5.5567   5.8806   5.8806   6.4575   6.4575   6.5346   6.5348
     6.6751   6.6754   6.8487   6.8488   7.1716   7.1716   7.7135   7.7136
     7.7838   7.7839   8.0005   8.0005   8.1747   8.1747   8.6211   8.6211
     8.9580   8.9581   9.2022   9.2026   9.3053   9.3056   9.8541   9.8551
     9.9141   9.9150  10.8038  10.8039  10.8913  10.8913  11.5801  11.5801
    11.9443  11.9444  12.2449  12.2451  12.4438  12.4439  12.5874  12.5875
    12.9588  12.9588  13.4422  13.4423

          k = 0.0500 0.0289 0.0000 ( 14805 PWs)   bands (ev):

   -12.5883 -12.5883 -12.0599 -12.0599 -10.9838 -10.9838  -8.2643  -8.2643
    -6.9308  -6.9308  -2.5496  -2.5495  -2.3047  -2.3045  -1.8063  -1.8053
    -1.7663  -1.7655  -1.5440  -1.5430  -1.3003  -1.2985  -1.0245  -1.0234
    -0.8243  -0.8233  -0.4840  -0.4833   0.2477   0.2485   0.6524   0.6530
     0.9705   0.9710   1.4200   1.4213   2.0613   2.0621   2.1854   2.1856
     4.2250   4.2251   4.3865   4.3866   5.0020   5.0020   5.3315   5.3315
     5.5570   5.5570   5.8887   5.8887   6.4619   6.4619   6.5250   6.5252
     6.6712   6.6715   6.8724   6.8724   7.1656   7.1656   7.7352   7.7353
     7.8067   7.8069   8.0066   8.0066   8.2042   8.2042   8.6492   8.6493
     8.9325   8.9327   9.1886   9.1889   9.2867   9.2869   9.9085   9.9095
     9.9685   9.9694  10.7939  10.7940  10.9037  10.9037  11.5329  11.5330
    11.9053  11.9054  12.2526  12.2527  12.4848  12.4849  12.6196  12.6197
    12.8968  12.8969  13.4686  13.4687

          k = 0.0571 0.0330 0.0000 ( 14805 PWs)   bands (ev):

   -12.5821 -12.5821 -12.0542 -12.0542 -10.9805 -10.9805  -8.2658  -8.2658
    -6.9429  -6.9429  -2.5634  -2.5632  -2.3595  -2.3593  -1.8410  -1.8394
    -1.7934  -1.7929  -1.5572  -1.5562  -1.3143  -1.3127  -1.0238  -1.0229
    -0.8047  -0.8038  -0.4504  -0.4498   0.2829   0.2837   0.6540   0.6546
     0.9763   0.9766   1.4457   1.4470   2.0726   2.0734   2.2003   2.2006
     4.2358   4.2359   4.3880   4.3880   5.0001   5.0001   5.3065   5.3065
     5.5576   5.5576   5.8988   5.8988   6.4465   6.4466   6.5332   6.5334
     6.6703   6.6705   6.8987   6.8988   7.1609   7.1610   7.7429   7.7430
     7.8327   7.8328   8.0252   8.0252   8.2381   8.2381   8.6824   8.6825
     8.9015   8.9016   9.1799   9.1801   9.2742   9.2744   9.9608   9.9617
    10.0247  10.0256  10.7831  10.7831  10.9176  10.9176  11.4895  11.4896
    11.8675  11.8676  12.2583  12.2584  12.5205  12.5206  12.6325  12.6326
    12.8532  12.8532  13.4974  13.4974

          k = 0.0643 0.0371 0.0000 ( 14811 PWs)   bands (ev):

   -12.5749 -12.5749 -12.0478 -12.0478 -10.9767 -10.9767  -8.2675  -8.2675
    -6.9566  -6.9565  -2.5804  -2.5803  -2.4155  -2.4153  -1.8860  -1.8843
    -1.8127  -1.8119  -1.5733  -1.5724  -1.3340  -1.3327  -1.0233  -1.0224
    -0.7783  -0.7775  -0.4188  -0.4182   0.3107   0.3114   0.6653   0.6658
     0.9881   0.9883   1.4696   1.4709   2.0798   2.0807   2.2225   2.2229
     4.2479   4.2479   4.3893   4.3894   4.9956   4.9956   5.2827   5.2827
     5.5585   5.5585   5.9109   5.9109   6.4207   6.4208   6.5508   6.5509
     6.6715   6.6717   6.9273   6.9274   7.1580   7.1580   7.7376   7.7377
     7.8603   7.8604   8.0560   8.0561   8.2755   8.2755   8.7205   8.7207
     8.8682   8.8684   9.1728   9.1729   9.2690   9.2692  10.0114  10.0122
    10.0806  10.0813  10.7715  10.7715  10.9331  10.9331  11.4512  11.4512
    11.8313  11.8314  12.2615  12.2617  12.5312  12.5314  12.6274  12.6276
    12.8503  12.8503  13.5054  13.5055

          k = 0.0714 0.0412 0.0000 ( 14813 PWs)   bands (ev):

   -12.5670 -12.5670 -12.0406 -12.0406 -10.9725 -10.9725  -8.2695  -8.2695
    -6.9718  -6.9718  -2.6024  -2.6023  -2.4705  -2.4703  -1.9338  -1.9320
    -1.8314  -1.8305  -1.5930  -1.5921  -1.3575  -1.3565  -1.0211  -1.0203
    -0.7477  -0.7470  -0.3914  -0.3908   0.3308   0.3315   0.6874   0.6881
     1.0053   1.0054   1.4920   1.4932   2.0839   2.0849   2.2509   2.2513
     4.2611   4.2612   4.3906   4.3907   4.9876   4.9877   5.2620   5.2620
     5.5596   5.5596   5.9249   5.9250   6.3926   6.3927   6.5707   6.5708
     6.6738   6.6740   6.9578   6.9578   7.1573   7.1573   7.7234   7.7235
     7.8883   7.8884   8.0961   8.0962   8.3153   8.3153   8.7619   8.7622
     8.8371   8.8374   9.1660   9.1661   9.2705   9.2706  10.0605  10.0613
    10.1344  10.1351  10.7599  10.7599  10.9497  10.9498  11.4189  11.4189
    11.7972  11.7973  12.2572  12.2573  12.4966  12.4967  12.6404  12.6406
    12.8794  12.8795  13.4606  13.4606

          k = 0.0786 0.0454 0.0000 ( 14807 PWs)   bands (ev):

   -12.5582 -12.5582 -12.0326 -12.0326 -10.9679 -10.9679  -8.2717  -8.2717
    -6.9887  -6.9886  -2.6327  -2.6325  -2.5206  -2.5204  -1.9824  -1.9806
    -1.8508  -1.8500  -1.6166  -1.6157  -1.3827  -1.3820  -1.0169  -1.0162
    -0.7149  -0.7142  -0.3702  -0.3697   0.3461   0.3467   0.7190   0.7198
     1.0273   1.0276   1.5132   1.5144   2.0868   2.0878   2.2834   2.2839
     4.2755   4.2755   4.3916   4.3917   4.9754   4.9754   5.2457   5.2457
     5.5611   5.5611   5.9409   5.9409   6.3650   6.3651   6.5906   6.5907
     6.6765   6.6767   6.9896   6.9897   7.1592   7.1593   7.7043   7.7044
     7.9163   7.9164   8.1422   8.1423   8.3556   8.3557   8.7869   8.7873
     8.8303   8.8307   9.1604   9.1605   9.2768   9.2769  10.1079  10.1085
    10.1850  10.1856  10.7490  10.7490  10.9673  10.9673  11.3937  11.3937
    11.7655  11.7656  12.2322  12.2324  12.4559  12.4559  12.6630  12.6631
    12.9227  12.9228  13.3749  13.3749

          k = 0.0857 0.0495 0.0000 ( 14808 PWs)   bands (ev):

   -12.5486 -12.5486 -12.0240 -12.0240 -10.9629 -10.9629  -8.2743  -8.2743
    -7.0070  -7.0070  -2.6750  -2.6747  -2.5615  -2.5611  -2.0315  -2.0298
    -1.8712  -1.8703  -1.6441  -1.6433  -1.4079  -1.4074  -1.0110  -1.0103
    -0.6813  -0.6806  -0.3570  -0.3565   0.3604   0.3609   0.7571   0.7580
     1.0536   1.0540   1.5337   1.5348   2.0899   2.0909   2.3187   2.3192
     4.2908   4.2908   4.3922   4.3923   4.9586   4.9586   5.2348   5.2348
     5.5628   5.5629   5.9586   5.9586   6.3394   6.3394   6.6097   6.6098
     6.6786   6.6788   7.0224   7.0225   7.1646   7.1647   7.6833   7.6834
     7.9437   7.9438   8.1918   8.1919   8.3941   8.3942   8.7703   8.7704
     8.8756   8.8758   9.1577   9.1578   9.2861   9.2862  10.1526  10.1532
    10.2313  10.2318  10.7399  10.7399  10.9853  10.9853  11.3765  11.3765
    11.7367  11.7368  12.1753  12.1754  12.4419  12.4419  12.6818  12.6818
    12.9707  12.9708  13.2759  13.2759

          k = 0.0929 0.0536 0.0000 ( 14807 PWs)   bands (ev):

   -12.5381 -12.5381 -12.0145 -12.0145 -10.9575 -10.9575  -8.2772  -8.2772
    -7.0270  -7.0270  -2.7289  -2.7287  -2.5930  -2.5926  -2.0811  -2.0795
    -1.8924  -1.8916  -1.6752  -1.6744  -1.4320  -1.4315  -1.0040  -1.0034
    -0.6477  -0.6470  -0.3527  -0.3522   0.3773   0.3776   0.7988   0.7998
     1.0834   1.0838   1.5543   1.5553   2.0944   2.0954   2.3553   2.3558
     4.3070   4.3071   4.3922   4.3922   4.9378   4.9378   5.2294   5.2294
     5.5650   5.5651   5.9780   5.9780   6.3165   6.3165   6.6271   6.6272
     6.6800   6.6802   7.0552   7.0552   7.1743   7.1744   7.6624   7.6625
     7.9702   7.9703   8.2434   8.2435   8.4277   8.4278   8.7547   8.7548
     8.9325   8.9326   9.1596   9.1597   9.2971   9.2972  10.1935  10.1940
    10.2728  10.2733  10.7340  10.7340  11.0032  11.0033  11.3678  11.3678
    11.7113  11.7113  12.0945  12.0946  12.4536  12.4536  12.6930  12.6930
    13.0136  13.0136  13.1792  13.1792

          k = 0.1000 0.0577 0.0000 ( 14795 PWs)   bands (ev):

   -12.5269 -12.5269 -12.0044 -12.0044 -10.9517 -10.9517  -8.2804  -8.2804
    -7.0484  -7.0484  -2.7902  -2.7900  -2.6189  -2.6185  -2.1314  -2.1297
    -1.9143  -1.9136  -1.7092  -1.7083  -1.4543  -1.4537  -0.9966  -0.9961
    -0.6152  -0.6145  -0.3570  -0.3565   0.3987   0.3989   0.8419   0.8429
     1.1155   1.1160   1.5757   1.5766   2.1010   2.1020   2.3925   2.3930
     4.3239   4.3240   4.3913   4.3914   4.9141   4.9142   5.2290   5.2290
     5.5678   5.5678   5.9990   5.9990   6.2968   6.2969   6.6407   6.6409
     6.6819   6.6821   7.0866   7.0867   7.1897   7.1898   7.6431   7.6431
     7.9954   7.9955   8.2955   8.2956   8.4531   8.4532   8.7505   8.7505
     8.9929   8.9931   9.1677   9.1678   9.3094   9.3095  10.2284  10.2288
    10.3099  10.3103  10.7324  10.7324  11.0211  11.0212  11.3671  11.3671
    11.6898  11.6898  12.0034  12.0035  12.4806  12.4806  12.6959  12.6959
    13.0063  13.0064  13.1278  13.1278

          k = 0.1071 0.0619 0.0000 ( 14799 PWs)   bands (ev):

   -12.5148 -12.5148 -11.9935 -11.9935 -10.9456 -10.9456  -8.2840  -8.2840
    -7.0714  -7.0714  -2.8554  -2.8552  -2.6424  -2.6420  -2.1823  -2.1807
    -1.9371  -1.9365  -1.7448  -1.7439  -1.4748  -1.4740  -0.9892  -0.9888
    -0.5853  -0.5846  -0.3683  -0.3677   0.4250   0.4251   0.8852   0.8862
     1.1485   1.1491   1.5991   1.5998   2.1106   2.1115   2.4295   2.4300
     4.3410   4.3411   4.3894   4.3895   4.8892   4.8892   5.2329   5.2329
     5.5713   5.5713   6.0216   6.0216   6.2809   6.2809   6.6462   6.6463
     6.6882   6.6885   7.1153   7.1154   7.2120   7.2120   7.6263   7.6264
     8.0189   8.0190   8.3458   8.3459   8.4691   8.4692   8.7612   8.7612
     9.0533   9.0536   9.1847   9.1848   9.3232   9.3233  10.2550  10.2552
    10.3437  10.3439  10.7360  10.7360  11.0393  11.0393  11.3729  11.3730
    11.6727  11.6728  11.9104  11.9105  12.5168  12.5168  12.6906  12.6907
    12.9193  12.9193  13.1118  13.1118

          k = 0.1143 0.0660 0.0000 ( 14798 PWs)   bands (ev):

   -12.5019 -12.5019 -11.9819 -11.9819 -10.9391 -10.9391  -8.2880  -8.2880
    -7.0958  -7.0958  -2.9226  -2.9224  -2.6648  -2.6644  -2.2339  -2.2324
    -1.9610  -1.9604  -1.7810  -1.7801  -1.4935  -1.4926  -0.9825  -0.9821
    -0.5605  -0.5598  -0.3829  -0.3823   0.4555   0.4555   0.9282   0.9292
     1.1808   1.1815   1.6253   1.6258   2.1234   2.1243   2.4658   2.4662
     4.3569   4.3570   4.3877   4.3878   4.8646   4.8646   5.2400   5.2400
     5.5756   5.5757   6.0457   6.0457   6.2688   6.2688   6.6416   6.6417
     6.7008   6.7009   7.1408   7.1409   7.2411   7.2411   7.6131   7.6131
     8.0406   8.0406   8.3896   8.3897   8.4801   8.4802   8.7866   8.7867
     9.1083   9.1087   9.2145   9.2148   9.3397   9.3398  10.2714  10.2716
    10.3755  10.3755  10.7450  10.7450  11.0584  11.0585  11.3816  11.3817
    11.6603  11.6604  11.8216  11.8217  12.5592  12.5592  12.6781  12.6781
    12.8151  12.8152  13.0217  13.0218

          k = 0.1214 0.0701 0.0000 ( 14807 PWs)   bands (ev):

   -12.4882 -12.4882 -11.9696 -11.9696 -10.9322 -10.9322  -8.2924  -8.2924
    -7.1217  -7.1216  -2.9908  -2.9906  -2.6868  -2.6863  -2.2863  -2.2849
    -1.9860  -1.9856  -1.8167  -1.8159  -1.5108  -1.5098  -0.9768  -0.9763
    -0.5457  -0.5450  -0.3947  -0.3940   0.4888   0.4889   0.9710   0.9718
     1.2109   1.2117   1.6551   1.6555   2.1400   2.1408   2.5010   2.5014
     4.3646   4.3648   4.3922   4.3923   4.8417   4.8418   5.2498   5.2498
     5.5811   5.5811   6.0712   6.0712   6.2607   6.2608   6.6300   6.6300
     6.7163   6.7165   7.1643   7.1644   7.2754   7.2755   7.6038   7.6038
     8.0601   8.0601   8.4160   8.4161   8.4995   8.4996   8.8238   8.8239
     9.1534   9.1538   9.2591   9.2593   9.3619   9.3619  10.2779  10.2780
    10.4052  10.4052  10.7587  10.7587  11.0797  11.0797  11.3861  11.3863
    11.6509  11.6512  11.7462  11.7465  12.6037  12.6037  12.6595  12.6595
    12.7114  12.7114  12.9160  12.9160

          k = 0.1286 0.0742 0.0000 ( 14804 PWs)   bands (ev):

   -12.4737 -12.4737 -11.9566 -11.9566 -10.9250 -10.9250  -8.2973  -8.2973
    -7.1489  -7.1489  -3.0595  -3.0594  -2.7086  -2.7081  -2.3395  -2.3381
    -2.0127  -2.0124  -1.8511  -1.8503  -1.5267  -1.5256  -0.9725  -0.9720
    -0.5473  -0.5466  -0.3958  -0.3951   0.5236   0.5237   1.0136   1.0143
     1.2380   1.2389   1.6888   1.6892   2.1607   2.1614   2.5348   2.5351
     4.3592   4.3592   4.4074   4.4075   4.8221   4.8221   5.2616   5.2617
     5.5879   5.5879   6.0980   6.0981   6.2569   6.2569   6.6137   6.6137
     6.7328   6.7329   7.1875   7.1875   7.3124   7.3125   7.5992   7.5992
     8.0774   8.0775   8.4212   8.4213   8.5342   8.5342   8.8692   8.8692
     9.1916   9.1919   9.3091   9.3093   9.3962   9.3963  10.2762  10.2763
    10.4321  10.4322  10.7760  10.7761  11.1039  11.1039  11.3748  11.3749
    11.6376  11.6382  11.7029  11.7035  12.5907  12.5908  12.6357  12.6358
    12.6675  12.6676  12.8112  12.8112

          k = 0.1357 0.0784 0.0000 ( 14804 PWs)   bands (ev):

[...]
     9.0948   9.0949   9.3111   9.3112   9.5903   9.5904  10.4432  10.4435
    10.4994  10.4996  10.8833  10.8835  11.0978  11.0979  11.3544  11.3545
    11.5712  11.5712  11.7557  11.7558  12.1877  12.1877  12.7549  12.7549
    12.8125  12.8126  13.0007  13.0007

          k = 0.0762 0.1346 0.0000 ( 14827 PWs)   bands (ev):

   -12.4623 -12.4623 -11.9457 -11.9457 -10.9176 -10.9176  -8.2940  -8.2940
    -7.1507  -7.1507  -2.9940  -2.9938  -2.7155  -2.7151  -2.4985  -2.4979
    -2.0644  -2.0636  -1.7452  -1.7448  -1.5592  -1.5588  -1.1776  -1.1772
    -0.5155  -0.5149  -0.3678  -0.3670   0.5800   0.5804   0.8735   0.8740
     1.2127   1.2132   1.8311   1.8319   2.1496   2.1502   2.5852   2.5855
     4.4058   4.4060   4.4299   4.4300   4.8812   4.8813   5.1328   5.1329
     5.5919   5.5919   6.0669   6.0670   6.3939   6.3940   6.4961   6.4961
     6.7479   6.7481   6.9735   6.9736   7.4556   7.4556   7.7649   7.7651
     8.0275   8.0276   8.3535   8.3536   8.7084   8.7085   8.9128   8.9129
     9.1099   9.1100   9.2520   9.2521   9.5176   9.5177  10.4199  10.4203
    10.4592  10.4596  10.8894  10.8896  11.0530  11.0532  11.3238  11.3238
    11.5916  11.5916  11.8175  11.8176  12.2709  12.2709  12.7625  12.7626
    12.8815  12.8815  13.0278  13.0278

          k = 0.0714 0.1262 0.0000 ( 14825 PWs)   bands (ev):

   -12.4800 -12.4800 -11.9616 -11.9616 -10.9265 -10.9265  -8.2889  -8.2889
    -7.1198  -7.1197  -2.9249  -2.9247  -2.6849  -2.6845  -2.4268  -2.4261
    -2.0232  -2.0223  -1.7231  -1.7226  -1.5382  -1.5379  -1.1571  -1.1567
    -0.5282  -0.5275  -0.3742  -0.3734   0.5621   0.5626   0.8245   0.8250
     1.1855   1.1860   1.7812   1.7821   2.1218   2.1226   2.5472   2.5475
     4.3894   4.3896   4.4198   4.4199   4.9054   4.9054   5.1504   5.1504
     5.5775   5.5776   6.0173   6.0174   6.3985   6.3986   6.4902   6.4903
     6.7717   6.7719   6.9509   6.9510   7.4170   7.4170   7.7442   7.7444
     7.9820   7.9821   8.3731   8.3733   8.6456   8.6456   8.8541   8.8542
     9.1155   9.1157   9.2078   9.2079   9.4521   9.4522  10.3870  10.3877
    10.4157  10.4164  10.8990  10.8991  11.0252  11.0253  11.2886  11.2886
    11.6033  11.6033  11.8943  11.8943  12.3560  12.3561  12.7282  12.7282
    12.9668  12.9668  13.0125  13.0125

          k = 0.0667 0.1178 0.0000 ( 14811 PWs)   bands (ev):

   -12.4965 -12.4965 -11.9765 -11.9765 -10.9350 -10.9350  -8.2844  -8.2843
    -7.0906  -7.0906  -2.8564  -2.8562  -2.6557  -2.6552  -2.3542  -2.3535
    -1.9818  -1.9808  -1.7040  -1.7035  -1.5166  -1.5162  -1.1365  -1.1361
    -0.5534  -0.5529  -0.3723  -0.3715   0.5360   0.5365   0.7838   0.7845
     1.1582   1.1588   1.7277   1.7286   2.1032   2.1040   2.5075   2.5078
     4.3681   4.3682   4.4149   4.4150   4.9277   4.9277   5.1711   5.1712
     5.5662   5.5662   5.9714   5.9715   6.4028   6.4029   6.4916   6.4917
     6.7787   6.7790   6.9403   6.9405   7.3773   7.3773   7.7282   7.7283
     7.9410   7.9410   8.3944   8.3945   8.5776   8.5776   8.7969   8.7970
     9.1052   9.1055   9.1763   9.1764   9.4007   9.4008  10.3384  10.3391
    10.3789  10.3795  10.8923  10.8925  11.0282  11.0283  11.2553  11.2554
    11.6103  11.6103  11.9790  11.9791  12.4338  12.4339  12.7011  12.7011
    12.9193  12.9194  13.1064  13.1064

          k = 0.0619 0.1094 0.0000 ( 14819 PWs)   bands (ev):

   -12.5119 -12.5119 -11.9904 -11.9904 -10.9430 -10.9430  -8.2803  -8.2803
    -7.0634  -7.0634  -2.7897  -2.7895  -2.6263  -2.6258  -2.2820  -2.2813
    -1.9404  -1.9394  -1.6873  -1.6868  -1.4941  -1.4937  -1.1163  -1.1159
    -0.5878  -0.5873  -0.3665  -0.3658   0.5013   0.5018   0.7537   0.7545
     1.1295   1.1301   1.6743   1.6752   2.0914   2.0922   2.4661   2.4664
     4.3464   4.3464   4.4111   4.4112   4.9475   4.9475   5.1946   5.1947
     5.5581   5.5581   5.9299   5.9300   6.4083   6.4084   6.4986   6.4987
     6.7690   6.7692   6.9395   6.9397   7.3387   7.3387   7.7177   7.7177
     7.9042   7.9043   8.4118   8.4119   8.5080   8.5081   8.7459   8.7460
     9.0801   9.0804   9.1479   9.1480   9.3700   9.3701  10.2791  10.2796
    10.3459  10.3464  10.8706  10.8706  11.0518  11.0518  11.2321  11.2322
    11.6169  11.6169  12.0656  12.0657  12.4871  12.4872  12.7001  12.7001
    12.8564  12.8564  13.2156  13.2157

          k = 0.0571 0.1010 0.0000 ( 14817 PWs)   bands (ev):

   -12.5262 -12.5262 -12.0034 -12.0034 -10.9504 -10.9504  -8.2768  -8.2768
    -7.0381  -7.0381  -2.7273  -2.7271  -2.5944  -2.5938  -2.2110  -2.2102
    -1.8996  -1.8986  -1.6724  -1.6718  -1.4706  -1.4701  -1.0966  -1.0962
    -0.6275  -0.6272  -0.3616  -0.3609   0.4604   0.4609   0.7332   0.7340
     1.0985   1.0991   1.6240   1.6250   2.0842   2.0850   2.4233   2.4236
     4.3252   4.3253   4.4075   4.4075   4.9644   4.9644   5.2205   5.2205
     5.5530   5.5530   5.8931   5.8932   6.4162   6.4163   6.5096   6.5096
     6.7486   6.7488   6.9404   6.9405   7.3032   7.3032   7.7132   7.7133
     7.8713   7.8714   8.4050   8.4052   8.4516   8.4518   8.7090   8.7091
     9.0414   9.0416   9.1210   9.1211   9.3590   9.3590  10.2153  10.2157
    10.3113  10.3117  10.8472  10.8472  11.0663  11.0663  11.2335  11.2335
    11.6263  11.6263  12.1483  12.1484  12.5010  12.5010  12.7335  12.7336
    12.8059  12.8059  13.3006  13.3007

          k = 0.0524 0.0925 0.0000 ( 14802 PWs)   bands (ev):

   -12.5394 -12.5394 -12.0153 -12.0153 -10.9574 -10.9573  -8.2736  -8.2736
    -7.0148  -7.0148  -2.6732  -2.6730  -2.5563  -2.5557  -2.1415  -2.1407
    -1.8603  -1.8593  -1.6585  -1.6578  -1.4462  -1.4456  -1.0776  -1.0772
    -0.6702  -0.6698  -0.3614  -0.3608   0.4172   0.4178   0.7198   0.7206
     1.0653   1.0658   1.5787   1.5796   2.0804   2.0811   2.3797   2.3801
     4.3051   4.3052   4.4039   4.4039   4.9781   4.9781   5.2480   5.2481
     5.5507   5.5508   5.8614   5.8615   6.4270   6.4270   6.5230   6.5230
     6.7234   6.7236   6.9361   6.9362   7.2726   7.2727   7.7150   7.7151
     7.8413   7.8414   8.3468   8.3469   8.4288   8.4290   8.6952   8.6953
     8.9899   8.9900   9.1023   9.1024   9.3597   9.3597  10.1494  10.1497
    10.2731  10.2734  10.8282  10.8282  11.0569  11.0569  11.2665  11.2666
    11.6413  11.6413  12.2197  12.2198  12.4905  12.4905  12.7381  12.7381
    12.8189  12.8190  13.2930  13.2930

          k = 0.0476 0.0841 0.0000 ( 14810 PWs)   bands (ev):

   -12.5514 -12.5514 -12.0262 -12.0262 -10.9637 -10.9637  -8.2709  -8.2709
    -6.9934  -6.9934  -2.6312  -2.6310  -2.5089  -2.5083  -2.0738  -2.0729
    -1.8240  -1.8230  -1.6445  -1.6438  -1.4210  -1.4203  -1.0593  -1.0589
    -0.7138  -0.7134  -0.3687  -0.3680   0.3749   0.3755   0.7111   0.7119
     1.0314   1.0317   1.5387   1.5397   2.0785   2.0792   2.3364   2.3367
     4.2863   4.2863   4.4004   4.4004   4.9884   4.9884   5.2766   5.2766
     5.5507   5.5507   5.8354   5.8355   6.4406   6.4406   6.5375   6.5375
     6.6971   6.6973   6.9241   6.9242   7.2477   7.2477   7.7224   7.7225
     7.8136   7.8137   8.2775   8.2776   8.3987   8.3988   8.7056   8.7057
     8.9332   8.9333   9.0922   9.0923   9.3654   9.3655  10.0824  10.0827
    10.2301  10.2304  10.8154  10.8154  11.0332  11.0332  11.3180  11.3180
    11.6642  11.6643  12.2702  12.2703  12.4730  12.4731  12.7203  12.7203
    12.8701  12.8701  13.2758  13.2758

          k = 0.0429 0.0757 0.0000 ( 14804 PWs)   bands (ev):

   -12.5623 -12.5623 -12.0362 -12.0362 -10.9695 -10.9695  -8.2686  -8.2686
    -6.9740  -6.9740  -2.6006  -2.6004  -2.4532  -2.4527  -2.0080  -2.0071
    -1.7923  -1.7914  -1.6295  -1.6287  -1.3954  -1.3944  -1.0419  -1.0414
    -0.7564  -0.7560  -0.3849  -0.3843   0.3349   0.3356   0.7055   0.7062
     0.9993   0.9995   1.5034   1.5045   2.0773   2.0780   2.2945   2.2948
     4.2687   4.2688   4.3971   4.3971   4.9956   4.9956   5.3053   5.3054
     5.5521   5.5521   5.8158   5.8159   6.4563   6.4563   6.5511   6.5511
     6.6726   6.6727   6.9056   6.9056   7.2282   7.2282   7.7331   7.7333
     7.7878   7.7880   8.2106   8.2107   8.3575   8.3575   8.7284   8.7285
     8.8812   8.8812   9.0894   9.0894   9.3729   9.3731  10.0150  10.0154
    10.1821  10.1824  10.8084  10.8085  11.0053  11.0054  11.3755  11.3755
    11.6972  11.6972  12.2934  12.2935  12.4519  12.4520  12.7251  12.7252
    12.9025  12.9026  13.2818  13.2819

          k = 0.0381 0.0673 0.0000 ( 14804 PWs)   bands (ev):

   -12.5721 -12.5721 -12.0450 -12.0450 -10.9748 -10.9748  -8.2666  -8.2666
    -6.9567  -6.9567  -2.5777  -2.5776  -2.3939  -2.3934  -1.9445  -1.9436
    -1.7663  -1.7655  -1.6127  -1.6119  -1.3702  -1.3690  -1.0261  -1.0256
    -0.7957  -0.7952  -0.4102  -0.4095   0.2967   0.2975   0.7019   0.7024
     0.9725   0.9726   1.4716   1.4726   2.0752   2.0758   2.2561   2.2564
     4.2527   4.2527   4.3939   4.3939   5.0000   5.0000   5.3332   5.3333
     5.5541   5.5541   5.8032   5.8033   6.4723   6.4723   6.5602   6.5602
     6.6545   6.6546   6.8829   6.8830   7.2133   7.2134   7.7403   7.7407
     7.7670   7.7673   8.1498   8.1498   8.3120   8.3121   8.7396   8.7397
     8.8520   8.8521   9.0936   9.0937   9.3809   9.3811   9.9480   9.9483
    10.1292  10.1295  10.8064  10.8064  10.9775  10.9775  11.4334  11.4335
    11.7412  11.7413  12.2934  12.2936  12.4252  12.4252  12.7424  12.7425
    12.9173  12.9173  13.3170  13.3170

          k = 0.0333 0.0589 0.0000 ( 14806 PWs)   bands (ev):

   -12.5807 -12.5807 -12.0529 -12.0529 -10.9794 -10.9794  -8.2649  -8.2649
    -6.9414  -6.9413  -2.5597  -2.5596  -2.3344  -2.3340  -1.8846  -1.8837
    -1.7452  -1.7445  -1.5944  -1.5936  -1.3471  -1.3457  -1.0143  -1.0137
    -0.8277  -0.8270  -0.4429  -0.4422   0.2587   0.2595   0.6993   0.6998
     0.9544   0.9546   1.4415   1.4425   2.0700   2.0706   2.2237   2.2240
     4.2382   4.2382   4.3910   4.3910   5.0023   5.0023   5.3591   5.3592
     5.5559   5.5559   5.7981   5.7981   6.4849   6.4849   6.5609   6.5611
     6.6491   6.6493   6.8592   6.8593   7.2025   7.2026   7.7255   7.7257
     7.7656   7.7658   8.0985   8.0986   8.2669   8.2669   8.7161   8.7161
     8.8643   8.8645   9.1061   9.1061   9.3891   9.3893   9.8819   9.8822
    10.0721  10.0724  10.8078  10.8078  10.9514  10.9514  11.4900  11.4901
    11.7960  11.7960  12.2801  12.2802  12.3944  12.3944  12.7378  12.7379
    12.9457  12.9457  13.3655  13.3655

          k = 0.0286 0.0505 0.0000 ( 14809 PWs)   bands (ev):

   -12.5882 -12.5882 -12.0597 -12.0597 -10.9835 -10.9835  -8.2635  -8.2635
    -6.9281  -6.9280  -2.5453  -2.5452  -2.2770  -2.2766  -1.8321  -1.8312
    -1.7247  -1.7239  -1.5754  -1.5745  -1.3282  -1.3265  -1.0109  -1.0102
    -0.8465  -0.8457  -0.4804  -0.4797   0.2192   0.2200   0.6971   0.6976
     0.9476   0.9480   1.4117   1.4128   2.0599   2.0603   2.2000   2.2002
     4.2254   4.2254   4.3884   4.3884   5.0029   5.0029   5.3819   5.3820
     5.5571   5.5571   5.8002   5.8003   6.4865   6.4865   6.5591   6.5594
     6.6566   6.6567   6.8370   6.8370   7.1957   7.1958   7.6986   7.6987
     7.7685   7.7687   8.0604   8.0605   8.2247   8.2248   8.6771   8.6772
     8.8951   8.8952   9.1285   9.1286   9.3977   9.3980   9.8174   9.8177
    10.0117  10.0120  10.8114  10.8114  10.9279  10.9279  11.5456  11.5457
    11.8593  11.8594  12.2595  12.2597  12.3631  12.3632  12.7005  12.7006
    12.9977  12.9977  13.4042  13.4042

          k = 0.0238 0.0421 0.0000 ( 14809 PWs)   bands (ev):

   -12.5945 -12.5945 -12.0655 -12.0655 -10.9869 -10.9869  -8.2623  -8.2623
    -6.9168  -6.9168  -2.5336  -2.5336  -2.2234  -2.2230  -1.7958  -1.7950
    -1.6953  -1.6942  -1.5568  -1.5559  -1.3158  -1.3139  -1.0196  -1.0188
    -0.8476  -0.8468  -0.5191  -0.5184   0.1779   0.1786   0.6949   0.6953
     0.9528   0.9534   1.3812   1.3822   2.0445   2.0449   2.1857   2.1858
     4.2144   4.2144   4.3862   4.3862   5.0024   5.0024   5.4008   5.4008
     5.5577   5.5578   5.8088   5.8088   6.4725   6.4726   6.5646   6.5648
     6.6703   6.6705   6.8184   6.8184   7.1927   7.1928   7.6687   7.6688
     7.7643   7.7644   8.0376   8.0377   8.1870   8.1871   8.6392   8.6392
     8.9250   8.9251   9.1623   9.1624   9.4074   9.4077   9.7553   9.7556
     9.9492   9.9495  10.8160  10.8160  10.9072  10.9072  11.6011  11.6011
    11.9281  11.9281  12.2340  12.2342  12.3342  12.3343  12.6469  12.6470
    13.0512  13.0512  13.4247  13.4248

          k = 0.0190 0.0337 0.0000 ( 14807 PWs)   bands (ev):

   -12.5997 -12.5997 -12.0702 -12.0702 -10.9897 -10.9897  -8.2614  -8.2614
    -6.9076  -6.9076  -2.5244  -2.5244  -2.1750  -2.1747  -1.7801  -1.7794
    -1.6519  -1.6505  -1.5393  -1.5384  -1.3119  -1.3100  -1.0370  -1.0364
    -0.8346  -0.8340  -0.5551  -0.5545   0.1360   0.1366   0.6925   0.6929
     0.9686   0.9694   1.3495   1.3506   2.0265   2.0268   2.1789   2.1790
     4.2052   4.2052   4.3843   4.3843   5.0013   5.0013   5.4152   5.4153
     5.5582   5.5582   5.8220   5.8220   6.4499   6.4499   6.5743   6.5745
     6.6849   6.6851   6.8051   6.8051   7.1930   7.1931   7.6378   7.6378
     7.7531   7.7532   8.0283   8.0284   8.1548   8.1549   8.6069   8.6069
     8.9488   8.9488   9.2062   9.2064   9.4188   9.4192   9.6962   9.6965
     9.8865   9.8868  10.8210  10.8211  10.8895  10.8896  11.6568  11.6568
    11.9984  11.9985  12.2038  12.2040  12.3097  12.3098  12.5895  12.5895
    13.0841  13.0841  13.4473  13.4474

          k = 0.0143 0.0252 0.0000 ( 14801 PWs)   bands (ev):

   -12.6037 -12.6037 -12.0739 -12.0739 -10.9920 -10.9919  -8.2607  -8.2607
    -6.9004  -6.9004  -2.5174  -2.5174  -2.1337  -2.1334  -1.7769  -1.7764
    -1.6033  -1.6019  -1.5227  -1.5218  -1.3179  -1.3160  -1.0563  -1.0558
    -0.8163  -0.8158  -0.5846  -0.5841   0.0965   0.0970   0.6903   0.6906
     0.9919   0.9927   1.3174   1.3184   2.0093   2.0095   2.1765   2.1766
     4.1980   4.1980   4.3828   4.3829   5.0001   5.0001   5.4254   5.4255
     5.5587   5.5588   5.8371   5.8371   6.4260   6.4260   6.5834   6.5835
     6.6969   6.6971   6.7979   6.7980   7.1959   7.1960   7.6083   7.6083
     7.7388   7.7388   8.0277   8.0278   8.1289   8.1289   8.5816   8.5817
     8.9660   8.9660   9.2564   9.2567   9.4328   9.4333   9.6410   9.6413
     9.8263   9.8265  10.8261  10.8262  10.8748  10.8748  11.7117  11.7118
    12.0653  12.0655  12.1706  12.1710  12.2903  12.2904  12.5346  12.5347
    13.0878  13.0879  13.4918  13.4918

          k = 0.0095 0.0168 0.0000 ( 14810 PWs)   bands (ev):

   -12.6066 -12.6066 -12.0765 -12.0765 -10.9935 -10.9935  -8.2602  -8.2602
    -6.8953  -6.8953  -2.5125  -2.5125  -2.1014  -2.1012  -1.7790  -1.7786
    -1.5610  -1.5598  -1.5039  -1.5031  -1.3331  -1.3314  -1.0724  -1.0721
    -0.8001  -0.7998  -0.6047  -0.6044   0.0634   0.0637   0.6886   0.6888
     1.0180   1.0187   1.2870   1.2878   1.9955   1.9957   2.1762   2.1763
     4.1928   4.1928   4.3818   4.3818   4.9990   4.9990   5.4319   5.4319
     5.5594   5.5594   5.8512   5.8512   6.4054   6.4054   6.5900   6.5901
     6.7045   6.7047   6.7965   6.7966   7.1999   7.1999   7.5835   7.5836
     7.7256   7.7256   8.0309   8.0309   8.1096   8.1096   8.5638   8.5638
     8.9776   8.9776   9.3066   9.3070   9.4501   9.4508   9.5900   9.5903
     9.7729   9.7732  10.8313  10.8313  10.8628  10.8628  11.7628  11.7628
    12.1078  12.1083  12.1535  12.1542  12.2754  12.2756  12.4867  12.4867
    13.0736  13.0737  13.5524  13.5524

          k = 0.0048 0.0084 0.0000 ( 14809 PWs)   bands (ev):

   -12.6084 -12.6084 -12.0781 -12.0781 -10.9945 -10.9945  -8.2599  -8.2599
    -6.8922  -6.8922  -2.5096  -2.5096  -2.0805  -2.0804  -1.7819  -1.7817
    -1.5368  -1.5363  -1.4790  -1.4783  -1.3533  -1.3521  -1.0827  -1.0826
    -0.7901  -0.7899  -0.6151  -0.6149   0.0411   0.0413   0.6875   0.6876
     1.0401   1.0405   1.2634   1.2639   1.9868   1.9869   2.1765   2.1765
     4.1896   4.1896   4.3811   4.3811   4.9982   4.9982   5.4354   5.4355
     5.5599   5.5599   5.8612   5.8612   6.3915   6.3915   6.5939   6.5939
     6.7082   6.7083   6.7979   6.7979   7.2032   7.2033   7.5669   7.5670
     7.7164   7.7165   8.0343   8.0343   8.0976   8.0976   8.5532   8.5532
     8.9843   8.9843   9.3471   9.3475   9.4726   9.4734   9.5437   9.5441
     9.7340   9.7342  10.8364  10.8365  10.8536  10.8536  11.8027  11.8027
    12.0904  12.0906  12.1897  12.1900  12.2633  12.2634  12.4509  12.4509
    13.0580  13.0580  13.6087  13.6087

          k = 0.0000 0.0000 0.0000 ( 14817 PWs)   bands (ev):

   -12.6089 -12.6089 -12.0786 -12.0786 -10.9948 -10.9948  -8.2598  -8.2598
    -6.8912  -6.8912  -2.5086  -2.5086  -2.0732  -2.0732  -1.7832  -1.7832
    -1.5301  -1.5301  -1.4638  -1.4638  -1.3644  -1.3644  -1.0862  -1.0862
    -0.7869  -0.7869  -0.6179  -0.6179   0.0333   0.0333   0.6871   0.6871
     1.0493   1.0493   1.2541   1.2541   1.9838   1.9838   2.1767   2.1767
     4.1886   4.1886   4.3809   4.3809   4.9980   4.9980   5.4365   5.4365
     5.5601   5.5601   5.8649   5.8649   6.3866   6.3866   6.5951   6.5951
     6.7093   6.7093   6.7989   6.7989   7.2046   7.2046   7.5611   7.5611
     7.7132   7.7132   8.0357   8.0357   8.0935   8.0935   8.5497   8.5497
     8.9866   8.9866   9.3637   9.3637   9.5027   9.5027   9.5052   9.5052
     9.7193   9.7193  10.8399  10.8399  10.8488  10.8488  11.8188  11.8188
    12.0784  12.0784  12.2115  12.2115  12.2558  12.2558  12.4368  12.4368
    13.0516  13.0516  13.6331  13.6331

     Writing all to output data dir tmp/Sb2Te3-uatsx-c6-soc-3.0.save/ :
     XML data file, pseudopotentials, collected wavefunctions

     init_run     :      1.82s CPU      1.83s WALL (       1 calls)
     electrons    :   2249.45s CPU   1227.21s WALL (       1 calls)

     Called by init_run:
     wfcinit      :      0.00s CPU      0.02s WALL (       1 calls)
     wfcinit:atom :      0.11s CPU      0.08s WALL (     211 calls)
     wfcinit:wfcr :     43.71s CPU     22.84s WALL (     211 calls)
     potinit      :      0.50s CPU      0.48s WALL (       1 calls)
     hinit0       :      0.68s CPU      0.70s WALL (       1 calls)

     Called by electrons:
     c_bands      :   2249.44s CPU   1227.19s WALL (       1 calls)
     v_of_rho     :      0.04s CPU      0.03s WALL (       1 calls)
     v_h          :      0.00s CPU      0.01s WALL (       1 calls)
     v_xc         :      0.04s CPU      0.03s WALL (       1 calls)
     newd         :      0.54s CPU      0.54s WALL (       1 calls)

     Called by c_bands:
     init_us_2    :      0.21s CPU      0.18s WALL (     211 calls)
     cegterg      :   2191.45s CPU   1186.98s WALL (     883 calls)

     Called by sum_band:

     Called by *egterg:
     cdiaghg      :    343.26s CPU    229.92s WALL (   15877 calls)
     cegterg:over :    135.14s CPU     71.17s WALL (   15666 calls)
     cegterg:upda :     67.35s CPU     31.97s WALL (   15666 calls)
     cegterg:last :    156.07s CPU     78.58s WALL (    7832 calls)
     h_psi        :   1362.89s CPU    701.66s WALL (   16760 calls)
     s_psi        :     91.25s CPU     52.75s WALL (   16760 calls)
     g_psi        :      7.47s CPU      4.85s WALL (   15666 calls)

     Called by h_psi:
     h_psi:calbec :     75.06s CPU     37.70s WALL (   16760 calls)
     vloc_psi     :   1209.68s CPU    615.69s WALL (   16760 calls)
     add_vuspsi   :     74.84s CPU     46.13s WALL (   16760 calls)

     General routines
     calbec       :     74.96s CPU     37.66s WALL (   16760 calls)
     fft          :      0.58s CPU      0.58s WALL (      19 calls)
     ffts         :      0.42s CPU      0.42s WALL (       4 calls)
     fftw         :    891.20s CPU    453.12s WALL ( 3114284 calls)
     interpolate  :      0.44s CPU      0.43s WALL (       4 calls)
     davcio       :      0.22s CPU      3.95s WALL (     422 calls)

     Parallel routines

     PWSCF        :  37m48.06s CPU  22m12.30s WALL


   This run was terminated on:  22:50:50  22Aug2025            

=------------------------------------------------------------------------------=
   JOB DONE.
=------------------------------------------------------------------------------=
