
     Program PWSCF v.7.4.1 starts on 14Aug2025 at 15:47:12 

     This program is part of the open-source Quantum ESPRESSO suite
     for quantum simulation of materials; please cite
         "P. Giannozzi et al., J. Phys.:Condens. Matter 21 395502 (2009);
         "P. Giannozzi et al., J. Phys.:Condens. Matter 29 465901 (2017);
         "P. Giannozzi et al., J. Chem. Phys. 152 154105 (2020);
          URL http://www.quantum-espresso.org", 
     in publications or presentations arising from this work. More details at
     http://www.quantum-espresso.org/quote

     Parallel version (MPI & OpenMP), running on      48 processor cores
     Number of MPI processes:                24
     Threads/MPI process:                     2

     MPI processes distributed on     2 nodes
     96514 MiB available memory on the printing compute node when the environment starts

     Waiting for input...
     Reading input from standard input

     Current dimensions of program PWSCF are:
     Max number of different atomic species (ntypx) = 10
     Max number of k-points (npk) =  40000
     Max angular momentum in pseudopotentials (lmaxx) =  4
Error reading attribute index: expected integer, found *
Error reading attribute index: expected integer, found *

     IMPORTANT: XC functional enforced from input :
     Exchange-correlation= PBE
                           (   1   4   3   4   0   0   0)
     Any further DFT definition will be discarded
     Please, verify this is what you really want


     Atomic positions and unit cell read from directory:
     tmp/Sb2Te3-uatsx-c2-soc-2.0.save/

     Message from routine setup:
     no reason to have ecutrho>4*ecutwfc

     R & G space division:  proc/nbgrp/npool/nimage =      24
     Subspace diagonalization in iterative solution of the eigenvalue problem:
     a serial algorithm will be used


     Parallelization info
     --------------------
     sticks:   dense  smooth     PW     G-vecs:    dense   smooth      PW
     Min          97      39     10                19297     4885     728
     Max          98      40     11                19315     4897     761
     Sum        2329     937    263               463351   117389   17987

     Using Slab Decomposition



     bravais-lattice index     =            0
     lattice parameter (alat)  =       8.3085  a.u.
     unit-cell volume          =    2454.7283 (a.u.)^3
     number of atoms/cell      =            5
     number of atomic types    =            2
     number of electrons       =        78.00
     number of Kohn-Sham states=          100
     kinetic-energy cutoff     =      50.0000  Ry
     charge density cutoff     =     500.0000  Ry
     Exchange-correlation= PBE
                           (   1   4   3   4   0   0   0)
     Non magnetic calculation with spin-orbit


     celldm(1)=   8.308546  celldm(2)=   0.000000  celldm(3)=   0.000000
     celldm(4)=   0.000000  celldm(5)=   0.000000  celldm(6)=   0.000000

     crystal axes: (cart. coord. in units of alat)
               a(1) = (   1.000000   0.000000   0.000000 )  
               a(2) = (  -0.490196   0.849036   0.000000 )  
               a(3) = (   0.000000   0.000000   5.040830 )  

     reciprocal axes: (cart. coord. in units 2 pi/alat)
               b(1) = (  1.000000  0.577356 -0.000000 )  
               b(2) = (  0.000000  1.177806  0.000000 )  
               b(3) = (  0.000000 -0.000000  0.198380 )  


     PseudoPot. # 1 for Sb read from file:
     /zfs-home/202401017n1/pseudos/Sb_ONCV_PBE_FR-1.1.upf
     MD5 check sum: 7dc1726f2158e3c51e4807d42b9c5c65
     Pseudo is Norm-conserving, Zval = 15.0
     Generated using ONCVPSP code by D. R. Hamann
     Using radial grid of  602 points, 10 beta functions with: 
                l(1) =   0
                l(2) =   0
                l(3) =   1
                l(4) =   1
                l(5) =   1
                l(6) =   1
                l(7) =   2
                l(8) =   2
                l(9) =   2
               l(10) =   2

     PseudoPot. # 2 for Te read from file:
     /zfs-home/202401017n1/pseudos/Te_ONCV_PBE_FR-1.1.upf
     MD5 check sum: c6e17480449037a9a9d16e6377b5c7c4
     Pseudo is Norm-conserving, Zval = 16.0
     Generated using ONCVPSP code by D. R. Hamann
     Using radial grid of  602 points, 10 beta functions with: 
                l(1) =   0
                l(2) =   0
                l(3) =   1
                l(4) =   1
                l(5) =   1
                l(6) =   1
                l(7) =   2
                l(8) =   2
                l(9) =   2
               l(10) =   2

     atomic species   valence    mass     pseudopotential
     Sb               15.00   121.76000     Sb( 1.00)
     Te               16.00   127.60000     Te( 1.00)

     No symmetry found


                                    s                        frac. trans.

      isym =  1     identity                                     

 cryst.   s( 1) = (     1          0          0      )
                  (     0          1          0      )
                  (     0          0          1      )

 cart.    s( 1) = (  1.0000000  0.0000000  0.0000000 )
                  (  0.0000000  1.0000000  0.0000000 )
                  (  0.0000000  0.0000000  1.0000000 )


   Cartesian axes

     site n.     atom                  positions (alat units)
         1        Sb     tau(   1) = (   0.5829733   0.4189608   2.9724649  )
         2        Te     tau(   2) = (   0.5752175   0.4057666   1.6850437  )
         3        Sb     tau(   3) = (   0.0736071   0.1257310   2.0683360  )
         4        Te     tau(   4) = (   0.0811854   0.1390911   3.3558017  )
         5        Te     tau(   5) = (   0.0831178   0.6970014   2.5203330  )

   Crystallographic axes

     site n.     atom                  positions (cryst. coord.)
         1        Sb     tau(   1) = (  0.8248627  0.4934545  0.5896776  )
         2        Te     tau(   2) = (  0.8094892  0.4779143  0.3342790  )
         3        Sb     tau(   3) = (  0.1461986  0.1480867  0.4103165  )
         4        Te     tau(   4) = (  0.1614904  0.1638223  0.6657240  )
         5        Te     tau(   5) = (  0.4855356  0.8209324  0.4999837  )

     number of k points=   211
                       cart. coord. in units 2pi/alat
        k(    1) = (   0.0000000   0.0000000   0.0000000), wk =   0.0047393
        k(    2) = (   0.0071429   0.0041240   0.0000000), wk =   0.0047393
        k(    3) = (   0.0142857   0.0082479   0.0000000), wk =   0.0047393
        k(    4) = (   0.0214286   0.0123719   0.0000000), wk =   0.0047393
        k(    5) = (   0.0285714   0.0164959   0.0000000), wk =   0.0047393
        k(    6) = (   0.0357143   0.0206199   0.0000000), wk =   0.0047393
        k(    7) = (   0.0428571   0.0247438   0.0000000), wk =   0.0047393
        k(    8) = (   0.0500000   0.0288678   0.0000000), wk =   0.0047393
        k(    9) = (   0.0571429   0.0329918   0.0000000), wk =   0.0047393
        k(   10) = (   0.0642857   0.0371157   0.0000000), wk =   0.0047393
        k(   11) = (   0.0714286   0.0412397   0.0000000), wk =   0.0047393
        k(   12) = (   0.0785714   0.0453637   0.0000000), wk =   0.0047393
        k(   13) = (   0.0857143   0.0494876   0.0000000), wk =   0.0047393
        k(   14) = (   0.0928571   0.0536116   0.0000000), wk =   0.0047393
        k(   15) = (   0.1000000   0.0577356   0.0000000), wk =   0.0047393
        k(   16) = (   0.1071429   0.0618596   0.0000000), wk =   0.0047393
        k(   17) = (   0.1142857   0.0659835   0.0000000), wk =   0.0047393
        k(   18) = (   0.1214286   0.0701075   0.0000000), wk =   0.0047393
        k(   19) = (   0.1285714   0.0742315   0.0000000), wk =   0.0047393
        k(   20) = (   0.1357143   0.0783554   0.0000000), wk =   0.0047393
        k(   21) = (   0.1428571   0.0824794   0.0000000), wk =   0.0047393
        k(   22) = (   0.1500000   0.0866034   0.0000000), wk =   0.0047393
        k(   23) = (   0.1571429   0.0907273   0.0000000), wk =   0.0047393
        k(   24) = (   0.1642857   0.0948513   0.0000000), wk =   0.0047393
        k(   25) = (   0.1714286   0.0989753   0.0000000), wk =   0.0047393
        k(   26) = (   0.1785714   0.1030993   0.0000000), wk =   0.0047393
        k(   27) = (   0.1857143   0.1072232   0.0000000), wk =   0.0047393
        k(   28) = (   0.1928571   0.1113472   0.0000000), wk =   0.0047393
        k(   29) = (   0.2000000   0.1154712   0.0000000), wk =   0.0047393
        k(   30) = (   0.2071429   0.1195951   0.0000000), wk =   0.0047393
        k(   31) = (   0.2142857   0.1237191   0.0000000), wk =   0.0047393
        k(   32) = (   0.2214286   0.1278431   0.0000000), wk =   0.0047393
        k(   33) = (   0.2285714   0.1319671   0.0000000), wk =   0.0047393
        k(   34) = (   0.2357143   0.1360910   0.0000000), wk =   0.0047393
        k(   35) = (   0.2428571   0.1402150   0.0000000), wk =   0.0047393
        k(   36) = (   0.2500000   0.1443390   0.0000000), wk =   0.0047393
        k(   37) = (   0.2571429   0.1484629   0.0000000), wk =   0.0047393
        k(   38) = (   0.2642857   0.1525869   0.0000000), wk =   0.0047393
        k(   39) = (   0.2714286   0.1567109   0.0000000), wk =   0.0047393
        k(   40) = (   0.2785714   0.1608348   0.0000000), wk =   0.0047393
        k(   41) = (   0.2857143   0.1649588   0.0000000), wk =   0.0047393
        k(   42) = (   0.2928571   0.1690828   0.0000000), wk =   0.0047393
        k(   43) = (   0.3000000   0.1732068   0.0000000), wk =   0.0047393
        k(   44) = (   0.3071429   0.1773307   0.0000000), wk =   0.0047393
        k(   45) = (   0.3142857   0.1814547   0.0000000), wk =   0.0047393
        k(   46) = (   0.3214286   0.1855787   0.0000000), wk =   0.0047393
        k(   47) = (   0.3285714   0.1897026   0.0000000), wk =   0.0047393
        k(   48) = (   0.3357143   0.1938266   0.0000000), wk =   0.0047393
        k(   49) = (   0.3428571   0.1979506   0.0000000), wk =   0.0047393
        k(   50) = (   0.3500000   0.2020745   0.0000000), wk =   0.0047393
        k(   51) = (   0.3571429   0.2061985   0.0000000), wk =   0.0047393
        k(   52) = (   0.3642857   0.2103225   0.0000000), wk =   0.0047393
        k(   53) = (   0.3714286   0.2144465   0.0000000), wk =   0.0047393
        k(   54) = (   0.3785714   0.2185704   0.0000000), wk =   0.0047393
        k(   55) = (   0.3857143   0.2226944   0.0000000), wk =   0.0047393
        k(   56) = (   0.3928571   0.2268184   0.0000000), wk =   0.0047393
        k(   57) = (   0.4000000   0.2309423   0.0000000), wk =   0.0047393
        k(   58) = (   0.4071429   0.2350663   0.0000000), wk =   0.0047393
        k(   59) = (   0.4142857   0.2391903   0.0000000), wk =   0.0047393
        k(   60) = (   0.4214286   0.2433143   0.0000000), wk =   0.0047393
        k(   61) = (   0.4285714   0.2474382   0.0000000), wk =   0.0047393
        k(   62) = (   0.4357143   0.2515622   0.0000000), wk =   0.0047393
        k(   63) = (   0.4428571   0.2556862   0.0000000), wk =   0.0047393
        k(   64) = (   0.4500000   0.2598101   0.0000000), wk =   0.0047393
        k(   65) = (   0.4571429   0.2639341   0.0000000), wk =   0.0047393
        k(   66) = (   0.4642857   0.2680581   0.0000000), wk =   0.0047393
        k(   67) = (   0.4714286   0.2721820   0.0000000), wk =   0.0047393
        k(   68) = (   0.4785714   0.2763060   0.0000000), wk =   0.0047393
        k(   69) = (   0.4857143   0.2804300   0.0000000), wk =   0.0047393
        k(   70) = (   0.4928571   0.2845540   0.0000000), wk =   0.0047393
        k(   71) = (   0.5000000   0.2886779   0.0000000), wk =   0.0047393
        k(   72) = (   0.4976190   0.2929119   0.0000000), wk =   0.0047393
        k(   73) = (   0.4952381   0.2971458   0.0000000), wk =   0.0047393
        k(   74) = (   0.4928571   0.3013798   0.0000000), wk =   0.0047393
        k(   75) = (   0.4904762   0.3056137   0.0000000), wk =   0.0047393
        k(   76) = (   0.4880952   0.3098476   0.0000000), wk =   0.0047393
        k(   77) = (   0.4857143   0.3140816   0.0000000), wk =   0.0047393
        k(   78) = (   0.4833333   0.3183155   0.0000000), wk =   0.0047393
        k(   79) = (   0.4809524   0.3225495   0.0000000), wk =   0.0047393
        k(   80) = (   0.4785714   0.3267834   0.0000000), wk =   0.0047393
        k(   81) = (   0.4761905   0.3310174   0.0000000), wk =   0.0047393
        k(   82) = (   0.4738095   0.3352513   0.0000000), wk =   0.0047393
        k(   83) = (   0.4714286   0.3394852   0.0000000), wk =   0.0047393
        k(   84) = (   0.4690476   0.3437192   0.0000000), wk =   0.0047393
        k(   85) = (   0.4666667   0.3479531   0.0000000), wk =   0.0047393
        k(   86) = (   0.4642857   0.3521871   0.0000000), wk =   0.0047393
        k(   87) = (   0.4619048   0.3564210   0.0000000), wk =   0.0047393
        k(   88) = (   0.4595238   0.3606550   0.0000000), wk =   0.0047393
        k(   89) = (   0.4571429   0.3648889   0.0000000), wk =   0.0047393
        k(   90) = (   0.4547619   0.3691228   0.0000000), wk =   0.0047393
        k(   91) = (   0.4523810   0.3733568   0.0000000), wk =   0.0047393
        k(   92) = (   0.4500000   0.3775907   0.0000000), wk =   0.0047393
        k(   93) = (   0.4476190   0.3818247   0.0000000), wk =   0.0047393
        k(   94) = (   0.4452381   0.3860586   0.0000000), wk =   0.0047393
        k(   95) = (   0.4428571   0.3902926   0.0000000), wk =   0.0047393
        k(   96) = (   0.4404762   0.3945265   0.0000000), wk =   0.0047393
        k(   97) = (   0.4380952   0.3987604   0.0000000), wk =   0.0047393
        k(   98) = (   0.4357143   0.4029944   0.0000000), wk =   0.0047393
        k(   99) = (   0.4333333   0.4072283   0.0000000), wk =   0.0047393
        k(  100) = (   0.4309524   0.4114623   0.0000000), wk =   0.0047393
        k(  101) = (   0.4285714   0.4156962   0.0000000), wk =   0.0047393
        k(  102) = (   0.4261905   0.4199302   0.0000000), wk =   0.0047393
        k(  103) = (   0.4238095   0.4241641   0.0000000), wk =   0.0047393
        k(  104) = (   0.4214286   0.4283980   0.0000000), wk =   0.0047393
        k(  105) = (   0.4190476   0.4326320   0.0000000), wk =   0.0047393
        k(  106) = (   0.4166667   0.4368659   0.0000000), wk =   0.0047393
        k(  107) = (   0.4142857   0.4410999   0.0000000), wk =   0.0047393
        k(  108) = (   0.4119048   0.4453338   0.0000000), wk =   0.0047393
        k(  109) = (   0.4095238   0.4495678   0.0000000), wk =   0.0047393
        k(  110) = (   0.4071429   0.4538017   0.0000000), wk =   0.0047393
        k(  111) = (   0.4047619   0.4580356   0.0000000), wk =   0.0047393
        k(  112) = (   0.4023810   0.4622696   0.0000000), wk =   0.0047393
        k(  113) = (   0.4000000   0.4665035   0.0000000), wk =   0.0047393
        k(  114) = (   0.3976190   0.4707375   0.0000000), wk =   0.0047393
        k(  115) = (   0.3952381   0.4749714   0.0000000), wk =   0.0047393
        k(  116) = (   0.3928571   0.4792054   0.0000000), wk =   0.0047393
        k(  117) = (   0.3904762   0.4834393   0.0000000), wk =   0.0047393
        k(  118) = (   0.3880952   0.4876732   0.0000000), wk =   0.0047393
        k(  119) = (   0.3857143   0.4919072   0.0000000), wk =   0.0047393
        k(  120) = (   0.3833333   0.4961411   0.0000000), wk =   0.0047393
        k(  121) = (   0.3809524   0.5003751   0.0000000), wk =   0.0047393
        k(  122) = (   0.3785714   0.5046090   0.0000000), wk =   0.0047393
        k(  123) = (   0.3761905   0.5088430   0.0000000), wk =   0.0047393
        k(  124) = (   0.3738095   0.5130769   0.0000000), wk =   0.0047393
        k(  125) = (   0.3714286   0.5173108   0.0000000), wk =   0.0047393
        k(  126) = (   0.3690476   0.5215448   0.0000000), wk =   0.0047393
        k(  127) = (   0.3666667   0.5257787   0.0000000), wk =   0.0047393
        k(  128) = (   0.3642857   0.5300127   0.0000000), wk =   0.0047393
        k(  129) = (   0.3619048   0.5342466   0.0000000), wk =   0.0047393
        k(  130) = (   0.3595238   0.5384806   0.0000000), wk =   0.0047393
        k(  131) = (   0.3571429   0.5427145   0.0000000), wk =   0.0047393
        k(  132) = (   0.3547619   0.5469484   0.0000000), wk =   0.0047393
        k(  133) = (   0.3523810   0.5511824   0.0000000), wk =   0.0047393
        k(  134) = (   0.3500000   0.5554163   0.0000000), wk =   0.0047393
        k(  135) = (   0.3476190   0.5596503   0.0000000), wk =   0.0047393
        k(  136) = (   0.3452381   0.5638842   0.0000000), wk =   0.0047393
        k(  137) = (   0.3428571   0.5681182   0.0000000), wk =   0.0047393
        k(  138) = (   0.3404762   0.5723521   0.0000000), wk =   0.0047393
        k(  139) = (   0.3380952   0.5765860   0.0000000), wk =   0.0047393
        k(  140) = (   0.3357143   0.5808200   0.0000000), wk =   0.0047393
        k(  141) = (   0.3333333   0.5850539   0.0000000), wk =   0.0047393
        k(  142) = (   0.3285714   0.5766960   0.0000000), wk =   0.0047393
        k(  143) = (   0.3238095   0.5683381   0.0000000), wk =   0.0047393
        k(  144) = (   0.3190476   0.5599802   0.0000000), wk =   0.0047393
        k(  145) = (   0.3142857   0.5516223   0.0000000), wk =   0.0047393
        k(  146) = (   0.3095238   0.5432644   0.0000000), wk =   0.0047393
        k(  147) = (   0.3047619   0.5349065   0.0000000), wk =   0.0047393
        k(  148) = (   0.3000000   0.5265485   0.0000000), wk =   0.0047393
        k(  149) = (   0.2952381   0.5181906   0.0000000), wk =   0.0047393
        k(  150) = (   0.2904762   0.5098327   0.0000000), wk =   0.0047393
        k(  151) = (   0.2857143   0.5014748   0.0000000), wk =   0.0047393
        k(  152) = (   0.2809524   0.4931169   0.0000000), wk =   0.0047393
        k(  153) = (   0.2761905   0.4847590   0.0000000), wk =   0.0047393
        k(  154) = (   0.2714286   0.4764011   0.0000000), wk =   0.0047393
        k(  155) = (   0.2666667   0.4680431   0.0000000), wk =   0.0047393
        k(  156) = (   0.2619048   0.4596852   0.0000000), wk =   0.0047393
        k(  157) = (   0.2571429   0.4513273   0.0000000), wk =   0.0047393
        k(  158) = (   0.2523810   0.4429694   0.0000000), wk =   0.0047393
        k(  159) = (   0.2476190   0.4346115   0.0000000), wk =   0.0047393
        k(  160) = (   0.2428571   0.4262536   0.0000000), wk =   0.0047393
        k(  161) = (   0.2380952   0.4178957   0.0000000), wk =   0.0047393
        k(  162) = (   0.2333333   0.4095378   0.0000000), wk =   0.0047393
        k(  163) = (   0.2285714   0.4011798   0.0000000), wk =   0.0047393
        k(  164) = (   0.2238095   0.3928219   0.0000000), wk =   0.0047393
        k(  165) = (   0.2190476   0.3844640   0.0000000), wk =   0.0047393
        k(  166) = (   0.2142857   0.3761061   0.0000000), wk =   0.0047393
        k(  167) = (   0.2095238   0.3677482   0.0000000), wk =   0.0047393
        k(  168) = (   0.2047619   0.3593903   0.0000000), wk =   0.0047393
        k(  169) = (   0.2000000   0.3510324   0.0000000), wk =   0.0047393
        k(  170) = (   0.1952381   0.3426744   0.0000000), wk =   0.0047393
        k(  171) = (   0.1904762   0.3343165   0.0000000), wk =   0.0047393
        k(  172) = (   0.1857143   0.3259586   0.0000000), wk =   0.0047393
        k(  173) = (   0.1809524   0.3176007   0.0000000), wk =   0.0047393
        k(  174) = (   0.1761905   0.3092428   0.0000000), wk =   0.0047393
        k(  175) = (   0.1714286   0.3008849   0.0000000), wk =   0.0047393
        k(  176) = (   0.1666667   0.2925270   0.0000000), wk =   0.0047393
        k(  177) = (   0.1619048   0.2841691   0.0000000), wk =   0.0047393
        k(  178) = (   0.1571429   0.2758111   0.0000000), wk =   0.0047393
        k(  179) = (   0.1523810   0.2674532   0.0000000), wk =   0.0047393
        k(  180) = (   0.1476190   0.2590953   0.0000000), wk =   0.0047393
        k(  181) = (   0.1428571   0.2507374   0.0000000), wk =   0.0047393
        k(  182) = (   0.1380952   0.2423795   0.0000000), wk =   0.0047393
        k(  183) = (   0.1333333   0.2340216   0.0000000), wk =   0.0047393
        k(  184) = (   0.1285714   0.2256637   0.0000000), wk =   0.0047393
        k(  185) = (   0.1238095   0.2173057   0.0000000), wk =   0.0047393
        k(  186) = (   0.1190476   0.2089478   0.0000000), wk =   0.0047393
        k(  187) = (   0.1142857   0.2005899   0.0000000), wk =   0.0047393
        k(  188) = (   0.1095238   0.1922320   0.0000000), wk =   0.0047393
        k(  189) = (   0.1047619   0.1838741   0.0000000), wk =   0.0047393
        k(  190) = (   0.1000000   0.1755162   0.0000000), wk =   0.0047393
        k(  191) = (   0.0952381   0.1671583   0.0000000), wk =   0.0047393
        k(  192) = (   0.0904762   0.1588004   0.0000000), wk =   0.0047393
        k(  193) = (   0.0857143   0.1504424   0.0000000), wk =   0.0047393
        k(  194) = (   0.0809524   0.1420845   0.0000000), wk =   0.0047393
        k(  195) = (   0.0761905   0.1337266   0.0000000), wk =   0.0047393
        k(  196) = (   0.0714286   0.1253687   0.0000000), wk =   0.0047393
        k(  197) = (   0.0666667   0.1170108   0.0000000), wk =   0.0047393
        k(  198) = (   0.0619048   0.1086529   0.0000000), wk =   0.0047393
        k(  199) = (   0.0571429   0.1002950   0.0000000), wk =   0.0047393
        k(  200) = (   0.0523810   0.0919370   0.0000000), wk =   0.0047393
        k(  201) = (   0.0476190   0.0835791   0.0000000), wk =   0.0047393
        k(  202) = (   0.0428571   0.0752212   0.0000000), wk =   0.0047393
        k(  203) = (   0.0380952   0.0668633   0.0000000), wk =   0.0047393
        k(  204) = (   0.0333333   0.0585054   0.0000000), wk =   0.0047393
        k(  205) = (   0.0285714   0.0501475   0.0000000), wk =   0.0047393
        k(  206) = (   0.0238095   0.0417896   0.0000000), wk =   0.0047393
        k(  207) = (   0.0190476   0.0334317   0.0000000), wk =   0.0047393
        k(  208) = (   0.0142857   0.0250737   0.0000000), wk =   0.0047393
        k(  209) = (   0.0095238   0.0167158   0.0000000), wk =   0.0047393
        k(  210) = (   0.0047619   0.0083579   0.0000000), wk =   0.0047393
        k(  211) = (   0.0000000   0.0000000   0.0000000), wk =   0.0047393

                       cryst. coord.
        k(    1) = (   0.0000000   0.0000000   0.0000000), wk =   0.0047393
        k(    2) = (   0.0071429   0.0000000   0.0000000), wk =   0.0047393
        k(    3) = (   0.0142857   0.0000000   0.0000000), wk =   0.0047393
        k(    4) = (   0.0214286   0.0000000   0.0000000), wk =   0.0047393
        k(    5) = (   0.0285714   0.0000000   0.0000000), wk =   0.0047393
        k(    6) = (   0.0357143   0.0000000   0.0000000), wk =   0.0047393
        k(    7) = (   0.0428571   0.0000000   0.0000000), wk =   0.0047393
        k(    8) = (   0.0500000   0.0000000   0.0000000), wk =   0.0047393
        k(    9) = (   0.0571429   0.0000000   0.0000000), wk =   0.0047393
        k(   10) = (   0.0642857   0.0000000   0.0000000), wk =   0.0047393
        k(   11) = (   0.0714286   0.0000000   0.0000000), wk =   0.0047393
        k(   12) = (   0.0785714   0.0000000   0.0000000), wk =   0.0047393
        k(   13) = (   0.0857143   0.0000000   0.0000000), wk =   0.0047393
        k(   14) = (   0.0928571   0.0000000   0.0000000), wk =   0.0047393
        k(   15) = (   0.1000000   0.0000000   0.0000000), wk =   0.0047393
        k(   16) = (   0.1071429   0.0000000   0.0000000), wk =   0.0047393
        k(   17) = (   0.1142857   0.0000000   0.0000000), wk =   0.0047393
        k(   18) = (   0.1214286   0.0000000   0.0000000), wk =   0.0047393
        k(   19) = (   0.1285714   0.0000000   0.0000000), wk =   0.0047393
        k(   20) = (   0.1357143   0.0000000   0.0000000), wk =   0.0047393
        k(   21) = (   0.1428571   0.0000000   0.0000000), wk =   0.0047393
        k(   22) = (   0.1500000   0.0000000   0.0000000), wk =   0.0047393
        k(   23) = (   0.1571429   0.0000000   0.0000000), wk =   0.0047393
        k(   24) = (   0.1642857   0.0000000   0.0000000), wk =   0.0047393
        k(   25) = (   0.1714286   0.0000000   0.0000000), wk =   0.0047393
        k(   26) = (   0.1785714   0.0000000   0.0000000), wk =   0.0047393
        k(   27) = (   0.1857143   0.0000000   0.0000000), wk =   0.0047393
        k(   28) = (   0.1928571   0.0000000   0.0000000), wk =   0.0047393
        k(   29) = (   0.2000000   0.0000000   0.0000000), wk =   0.0047393
        k(   30) = (   0.2071429   0.0000000   0.0000000), wk =   0.0047393
        k(   31) = (   0.2142857   0.0000000   0.0000000), wk =   0.0047393
        k(   32) = (   0.2214286   0.0000000   0.0000000), wk =   0.0047393
        k(   33) = (   0.2285714   0.0000000   0.0000000), wk =   0.0047393
        k(   34) = (   0.2357143   0.0000000   0.0000000), wk =   0.0047393
        k(   35) = (   0.2428571   0.0000000   0.0000000), wk =   0.0047393
        k(   36) = (   0.2500000   0.0000000   0.0000000), wk =   0.0047393
        k(   37) = (   0.2571429   0.0000000   0.0000000), wk =   0.0047393
        k(   38) = (   0.2642857   0.0000000   0.0000000), wk =   0.0047393
        k(   39) = (   0.2714286   0.0000000   0.0000000), wk =   0.0047393
        k(   40) = (   0.2785714   0.0000000   0.0000000), wk =   0.0047393
        k(   41) = (   0.2857143   0.0000000   0.0000000), wk =   0.0047393
        k(   42) = (   0.2928571   0.0000000   0.0000000), wk =   0.0047393
        k(   43) = (   0.3000000   0.0000000   0.0000000), wk =   0.0047393
        k(   44) = (   0.3071429   0.0000000   0.0000000), wk =   0.0047393
        k(   45) = (   0.3142857   0.0000000   0.0000000), wk =   0.0047393
        k(   46) = (   0.3214286   0.0000000   0.0000000), wk =   0.0047393
        k(   47) = (   0.3285714   0.0000000   0.0000000), wk =   0.0047393
        k(   48) = (   0.3357143   0.0000000   0.0000000), wk =   0.0047393
        k(   49) = (   0.3428571   0.0000000   0.0000000), wk =   0.0047393
        k(   50) = (   0.3500000   0.0000000   0.0000000), wk =   0.0047393
        k(   51) = (   0.3571429   0.0000000   0.0000000), wk =   0.0047393
        k(   52) = (   0.3642857   0.0000000   0.0000000), wk =   0.0047393
        k(   53) = (   0.3714286   0.0000000   0.0000000), wk =   0.0047393
        k(   54) = (   0.3785714   0.0000000   0.0000000), wk =   0.0047393
        k(   55) = (   0.3857143   0.0000000   0.0000000), wk =   0.0047393
        k(   56) = (   0.3928571   0.0000000   0.0000000), wk =   0.0047393
        k(   57) = (   0.4000000   0.0000000   0.0000000), wk =   0.0047393
        k(   58) = (   0.4071429   0.0000000   0.0000000), wk =   0.0047393
        k(   59) = (   0.4142857   0.0000000   0.0000000), wk =   0.0047393
        k(   60) = (   0.4214286   0.0000000   0.0000000), wk =   0.0047393
        k(   61) = (   0.4285714   0.0000000   0.0000000), wk =   0.0047393
        k(   62) = (   0.4357143   0.0000000   0.0000000), wk =   0.0047393
        k(   63) = (   0.4428571   0.0000000   0.0000000), wk =   0.0047393
        k(   64) = (   0.4500000   0.0000000   0.0000000), wk =   0.0047393
        k(   65) = (   0.4571429   0.0000000   0.0000000), wk =   0.0047393
        k(   66) = (   0.4642857   0.0000000   0.0000000), wk =   0.0047393
        k(   67) = (   0.4714286   0.0000000   0.0000000), wk =   0.0047393
        k(   68) = (   0.4785714   0.0000000   0.0000000), wk =   0.0047393
        k(   69) = (   0.4857143   0.0000000   0.0000000), wk =   0.0047393
        k(   70) = (   0.4928571   0.0000000   0.0000000), wk =   0.0047393
        k(   71) = (   0.5000000   0.0000000   0.0000000), wk =   0.0047393
        k(   72) = (   0.4976190   0.0047619   0.0000000), wk =   0.0047393
        k(   73) = (   0.4952381   0.0095238   0.0000000), wk =   0.0047393
        k(   74) = (   0.4928571   0.0142857   0.0000000), wk =   0.0047393
        k(   75) = (   0.4904762   0.0190476   0.0000000), wk =   0.0047393
        k(   76) = (   0.4880952   0.0238095   0.0000000), wk =   0.0047393
        k(   77) = (   0.4857143   0.0285714   0.0000000), wk =   0.0047393
        k(   78) = (   0.4833333   0.0333333   0.0000000), wk =   0.0047393
        k(   79) = (   0.4809524   0.0380952   0.0000000), wk =   0.0047393
        k(   80) = (   0.4785714   0.0428571   0.0000000), wk =   0.0047393
        k(   81) = (   0.4761905   0.0476190   0.0000000), wk =   0.0047393
        k(   82) = (   0.4738095   0.0523810   0.0000000), wk =   0.0047393
        k(   83) = (   0.4714286   0.0571429   0.0000000), wk =   0.0047393
        k(   84) = (   0.4690476   0.0619048   0.0000000), wk =   0.0047393
        k(   85) = (   0.4666667   0.0666667   0.0000000), wk =   0.0047393
        k(   86) = (   0.4642857   0.0714286   0.0000000), wk =   0.0047393
        k(   87) = (   0.4619048   0.0761905   0.0000000), wk =   0.0047393
        k(   88) = (   0.4595238   0.0809524   0.0000000), wk =   0.0047393
        k(   89) = (   0.4571429   0.0857143   0.0000000), wk =   0.0047393
        k(   90) = (   0.4547619   0.0904762   0.0000000), wk =   0.0047393
        k(   91) = (   0.4523810   0.0952381   0.0000000), wk =   0.0047393
        k(   92) = (   0.4500000   0.1000000   0.0000000), wk =   0.0047393
        k(   93) = (   0.4476190   0.1047619   0.0000000), wk =   0.0047393
        k(   94) = (   0.4452381   0.1095238   0.0000000), wk =   0.0047393
        k(   95) = (   0.4428571   0.1142857   0.0000000), wk =   0.0047393
        k(   96) = (   0.4404762   0.1190476   0.0000000), wk =   0.0047393
        k(   97) = (   0.4380952   0.1238095   0.0000000), wk =   0.0047393
        k(   98) = (   0.4357143   0.1285714   0.0000000), wk =   0.0047393
        k(   99) = (   0.4333333   0.1333333   0.0000000), wk =   0.0047393
        k(  100) = (   0.4309524   0.1380952   0.0000000), wk =   0.0047393
        k(  101) = (   0.4285714   0.1428571   0.0000000), wk =   0.0047393
        k(  102) = (   0.4261905   0.1476190   0.0000000), wk =   0.0047393
        k(  103) = (   0.4238095   0.1523810   0.0000000), wk =   0.0047393
        k(  104) = (   0.4214286   0.1571429   0.0000000), wk =   0.0047393
        k(  105) = (   0.4190476   0.1619048   0.0000000), wk =   0.0047393
        k(  106) = (   0.4166667   0.1666667   0.0000000), wk =   0.0047393
        k(  107) = (   0.4142857   0.1714286   0.0000000), wk =   0.0047393
        k(  108) = (   0.4119048   0.1761905   0.0000000), wk =   0.0047393
        k(  109) = (   0.4095238   0.1809524   0.0000000), wk =   0.0047393
        k(  110) = (   0.4071429   0.1857143   0.0000000), wk =   0.0047393
        k(  111) = (   0.4047619   0.1904762   0.0000000), wk =   0.0047393
        k(  112) = (   0.4023810   0.1952381   0.0000000), wk =   0.0047393
        k(  113) = (   0.4000000   0.2000000   0.0000000), wk =   0.0047393
        k(  114) = (   0.3976190   0.2047619   0.0000000), wk =   0.0047393
        k(  115) = (   0.3952381   0.2095238   0.0000000), wk =   0.0047393
        k(  116) = (   0.3928571   0.2142857   0.0000000), wk =   0.0047393
        k(  117) = (   0.3904762   0.2190476   0.0000000), wk =   0.0047393
        k(  118) = (   0.3880952   0.2238095   0.0000000), wk =   0.0047393
        k(  119) = (   0.3857143   0.2285714   0.0000000), wk =   0.0047393
        k(  120) = (   0.3833333   0.2333333   0.0000000), wk =   0.0047393
        k(  121) = (   0.3809524   0.2380952   0.0000000), wk =   0.0047393
        k(  122) = (   0.3785714   0.2428571   0.0000000), wk =   0.0047393
        k(  123) = (   0.3761905   0.2476190   0.0000000), wk =   0.0047393
        k(  124) = (   0.3738095   0.2523810   0.0000000), wk =   0.0047393
        k(  125) = (   0.3714286   0.2571429   0.0000000), wk =   0.0047393
        k(  126) = (   0.3690476   0.2619048   0.0000000), wk =   0.0047393
        k(  127) = (   0.3666667   0.2666667   0.0000000), wk =   0.0047393
        k(  128) = (   0.3642857   0.2714286   0.0000000), wk =   0.0047393
        k(  129) = (   0.3619048   0.2761905   0.0000000), wk =   0.0047393
        k(  130) = (   0.3595238   0.2809524   0.0000000), wk =   0.0047393
        k(  131) = (   0.3571429   0.2857143   0.0000000), wk =   0.0047393
        k(  132) = (   0.3547619   0.2904762   0.0000000), wk =   0.0047393
        k(  133) = (   0.3523810   0.2952381   0.0000000), wk =   0.0047393
        k(  134) = (   0.3500000   0.3000000   0.0000000), wk =   0.0047393
        k(  135) = (   0.3476190   0.3047619   0.0000000), wk =   0.0047393
        k(  136) = (   0.3452381   0.3095238   0.0000000), wk =   0.0047393
        k(  137) = (   0.3428571   0.3142857   0.0000000), wk =   0.0047393
        k(  138) = (   0.3404762   0.3190476   0.0000000), wk =   0.0047393
        k(  139) = (   0.3380952   0.3238095   0.0000000), wk =   0.0047393
        k(  140) = (   0.3357143   0.3285714   0.0000000), wk =   0.0047393
        k(  141) = (   0.3333333   0.3333333   0.0000000), wk =   0.0047393
        k(  142) = (   0.3285714   0.3285714   0.0000000), wk =   0.0047393
        k(  143) = (   0.3238095   0.3238095   0.0000000), wk =   0.0047393
        k(  144) = (   0.3190476   0.3190476   0.0000000), wk =   0.0047393
        k(  145) = (   0.3142857   0.3142857   0.0000000), wk =   0.0047393
        k(  146) = (   0.3095238   0.3095238   0.0000000), wk =   0.0047393
        k(  147) = (   0.3047619   0.3047619   0.0000000), wk =   0.0047393
        k(  148) = (   0.3000000   0.3000000   0.0000000), wk =   0.0047393
        k(  149) = (   0.2952381   0.2952381   0.0000000), wk =   0.0047393
        k(  150) = (   0.2904762   0.2904762   0.0000000), wk =   0.0047393
        k(  151) = (   0.2857143   0.2857143   0.0000000), wk =   0.0047393
        k(  152) = (   0.2809524   0.2809524   0.0000000), wk =   0.0047393
        k(  153) = (   0.2761905   0.2761905   0.0000000), wk =   0.0047393
        k(  154) = (   0.2714286   0.2714286   0.0000000), wk =   0.0047393
        k(  155) = (   0.2666667   0.2666667   0.0000000), wk =   0.0047393
        k(  156) = (   0.2619048   0.2619048   0.0000000), wk =   0.0047393
        k(  157) = (   0.2571429   0.2571429   0.0000000), wk =   0.0047393
        k(  158) = (   0.2523810   0.2523810   0.0000000), wk =   0.0047393
        k(  159) = (   0.2476190   0.2476190   0.0000000), wk =   0.0047393
        k(  160) = (   0.2428571   0.2428571   0.0000000), wk =   0.0047393
        k(  161) = (   0.2380952   0.2380952   0.0000000), wk =   0.0047393
        k(  162) = (   0.2333333   0.2333333   0.0000000), wk =   0.0047393
        k(  163) = (   0.2285714   0.2285714   0.0000000), wk =   0.0047393
        k(  164) = (   0.2238095   0.2238095   0.0000000), wk =   0.0047393
        k(  165) = (   0.2190476   0.2190476   0.0000000), wk =   0.0047393
        k(  166) = (   0.2142857   0.2142857   0.0000000), wk =   0.0047393
        k(  167) = (   0.2095238   0.2095238   0.0000000), wk =   0.0047393
        k(  168) = (   0.2047619   0.2047619   0.0000000), wk =   0.0047393
        k(  169) = (   0.2000000   0.2000000   0.0000000), wk =   0.0047393
        k(  170) = (   0.1952381   0.1952381   0.0000000), wk =   0.0047393
        k(  171) = (   0.1904762   0.1904762   0.0000000), wk =   0.0047393
        k(  172) = (   0.1857143   0.1857143   0.0000000), wk =   0.0047393
        k(  173) = (   0.1809524   0.1809524   0.0000000), wk =   0.0047393
        k(  174) = (   0.1761905   0.1761905   0.0000000), wk =   0.0047393
        k(  175) = (   0.1714286   0.1714286   0.0000000), wk =   0.0047393
        k(  176) = (   0.1666667   0.1666667   0.0000000), wk =   0.0047393
        k(  177) = (   0.1619048   0.1619048   0.0000000), wk =   0.0047393
        k(  178) = (   0.1571429   0.1571429   0.0000000), wk =   0.0047393
        k(  179) = (   0.1523810   0.1523810   0.0000000), wk =   0.0047393
        k(  180) = (   0.1476190   0.1476190   0.0000000), wk =   0.0047393
        k(  181) = (   0.1428571   0.1428571   0.0000000), wk =   0.0047393
        k(  182) = (   0.1380952   0.1380952   0.0000000), wk =   0.0047393
        k(  183) = (   0.1333333   0.1333333   0.0000000), wk =   0.0047393
        k(  184) = (   0.1285714   0.1285714   0.0000000), wk =   0.0047393
        k(  185) = (   0.1238095   0.1238095   0.0000000), wk =   0.0047393
        k(  186) = (   0.1190476   0.1190476   0.0000000), wk =   0.0047393
        k(  187) = (   0.1142857   0.1142857   0.0000000), wk =   0.0047393
        k(  188) = (   0.1095238   0.1095238   0.0000000), wk =   0.0047393
        k(  189) = (   0.1047619   0.1047619   0.0000000), wk =   0.0047393
        k(  190) = (   0.1000000   0.1000000   0.0000000), wk =   0.0047393
        k(  191) = (   0.0952381   0.0952381   0.0000000), wk =   0.0047393
        k(  192) = (   0.0904762   0.0904762   0.0000000), wk =   0.0047393
        k(  193) = (   0.0857143   0.0857143   0.0000000), wk =   0.0047393
        k(  194) = (   0.0809524   0.0809524   0.0000000), wk =   0.0047393
        k(  195) = (   0.0761905   0.0761905   0.0000000), wk =   0.0047393
        k(  196) = (   0.0714286   0.0714286   0.0000000), wk =   0.0047393
        k(  197) = (   0.0666667   0.0666667   0.0000000), wk =   0.0047393
        k(  198) = (   0.0619048   0.0619048   0.0000000), wk =   0.0047393
        k(  199) = (   0.0571429   0.0571429   0.0000000), wk =   0.0047393
        k(  200) = (   0.0523810   0.0523810   0.0000000), wk =   0.0047393
        k(  201) = (   0.0476190   0.0476190   0.0000000), wk =   0.0047393
        k(  202) = (   0.0428571   0.0428571   0.0000000), wk =   0.0047393
        k(  203) = (   0.0380952   0.0380952   0.0000000), wk =   0.0047393
        k(  204) = (   0.0333333   0.0333333   0.0000000), wk =   0.0047393
        k(  205) = (   0.0285714   0.0285714   0.0000000), wk =   0.0047393
        k(  206) = (   0.0238095   0.0238095   0.0000000), wk =   0.0047393
        k(  207) = (   0.0190476   0.0190476   0.0000000), wk =   0.0047393
        k(  208) = (   0.0142857   0.0142857   0.0000000), wk =   0.0047393
        k(  209) = (   0.0095238   0.0095238   0.0000000), wk =   0.0047393
        k(  210) = (   0.0047619   0.0047619   0.0000000), wk =   0.0047393
        k(  211) = (   0.0000000   0.0000000   0.0000000), wk =   0.0047393

     Dense  grid:   463351 G-vectors     FFT dimensions: (  60,  60, 300)

     Smooth grid:   117389 G-vectors     FFT dimensions: (  40,  40, 192)

     Dynamical RAM for                 wfc:       1.86 MB

     Dynamical RAM for     wfc (w. buffer):       1.86 MB

     Dynamical RAM for           str. fact:       0.59 MB

     Dynamical RAM for           local pot:       0.00 MB

     Dynamical RAM for          nlocal pot:       1.58 MB

     Dynamical RAM for                qrad:       9.40 MB

     Dynamical RAM for          rho,v,vnew:       7.82 MB

     Dynamical RAM for           G-vectors:       1.14 MB

     Dynamical RAM for          h,s,v(r/c):       1.83 MB

     Dynamical RAM for          <psi|beta>:       0.52 MB

     Dynamical RAM for                 psi:       3.72 MB

     Dynamical RAM for                hpsi:       3.72 MB

     Dynamical RAM for      wfcinit/wfcrot:       3.02 MB

     Estimated static dynamical RAM per process >      26.13 MB

     Estimated max dynamical RAM per process >      35.93 MB

     Estimated total dynamical RAM >     862.34 MB

     The potential is recalculated from file :
     tmp/Sb2Te3-uatsx-c2-soc-2.0.save/charge-density

     Starting wfcs are random

     Band Structure Calculation
     Davidson diagonalization with overlap

     Computing kpt #:     1  of   211
     total cpu time spent up to now is        5.6 secs

     Computing kpt #:     2  of   211
     total cpu time spent up to now is        9.7 secs

     Computing kpt #:     3  of   211
     total cpu time spent up to now is       13.9 secs

     Computing kpt #:     4  of   211
     total cpu time spent up to now is       17.9 secs

     Computing kpt #:     5  of   211
     total cpu time spent up to now is       21.9 secs

     Computing kpt #:     6  of   211
     total cpu time spent up to now is       26.0 secs

     Computing kpt #:     7  of   211
     total cpu time spent up to now is       29.9 secs

     Computing kpt #:     8  of   211
     total cpu time spent up to now is       33.9 secs

     Computing kpt #:     9  of   211
     total cpu time spent up to now is       37.9 secs

     Computing kpt #:    10  of   211
     total cpu time spent up to now is       41.8 secs

     Computing kpt #:    11  of   211
     total cpu time spent up to now is       45.8 secs

     Computing kpt #:    12  of   211
     total cpu time spent up to now is       49.7 secs

     Computing kpt #:    13  of   211
     total cpu time spent up to now is       53.7 secs

     Computing kpt #:    14  of   211
     total cpu time spent up to now is       57.6 secs

     Computing kpt #:    15  of   211
     total cpu time spent up to now is       61.5 secs

     Computing kpt #:    16  of   211
     total cpu time spent up to now is       65.4 secs

     Computing kpt #:    17  of   211
     total cpu time spent up to now is       69.2 secs

     Computing kpt #:    18  of   211
     total cpu time spent up to now is       73.2 secs

     Computing kpt #:    19  of   211
     total cpu time spent up to now is       77.0 secs

     Computing kpt #:    20  of   211
     total cpu time spent up to now is       80.9 secs

     Computing kpt #:    21  of   211
     total cpu time spent up to now is       84.7 secs

     Computing kpt #:    22  of   211
     total cpu time spent up to now is       88.6 secs

     Computing kpt #:    23  of   211
     total cpu time spent up to now is       92.5 secs

     Computing kpt #:    24  of   211
     total cpu time spent up to now is       96.1 secs

     Computing kpt #:    25  of   211
     total cpu time spent up to now is      100.0 secs

     Computing kpt #:    26  of   211
     total cpu time spent up to now is      103.9 secs

     Computing kpt #:    27  of   211
     total cpu time spent up to now is      107.8 secs

     Computing kpt #:    28  of   211
     total cpu time spent up to now is      111.7 secs

     Computing kpt #:    29  of   211
     total cpu time spent up to now is      115.6 secs

     Computing kpt #:    30  of   211
     total cpu time spent up to now is      119.7 secs

     Computing kpt #:    31  of   211
     total cpu time spent up to now is      123.7 secs

     Computing kpt #:    32  of   211
     total cpu time spent up to now is      127.8 secs

     Computing kpt #:    33  of   211
     total cpu time spent up to now is      131.7 secs

     Computing kpt #:    34  of   211
     total cpu time spent up to now is      135.7 secs

     Computing kpt #:    35  of   211
     total cpu time spent up to now is      139.7 secs

     Computing kpt #:    36  of   211
     total cpu time spent up to now is      143.6 secs

     Computing kpt #:    37  of   211
     total cpu time spent up to now is      147.8 secs

     Computing kpt #:    38  of   211
     total cpu time spent up to now is      152.1 secs

     Computing kpt #:    39  of   211
     total cpu time spent up to now is      156.2 secs

     Computing kpt #:    40  of   211
     total cpu time spent up to now is      160.5 secs

     Computing kpt #:    41  of   211
     total cpu time spent up to now is      164.5 secs

     Computing kpt #:    42  of   211
     total cpu time spent up to now is      168.5 secs

     Computing kpt #:    43  of   211
     total cpu time spent up to now is      172.5 secs

     Computing kpt #:    44  of   211
     total cpu time spent up to now is      176.5 secs

     Computing kpt #:    45  of   211
     total cpu time spent up to now is      180.5 secs

     Computing kpt #:    46  of   211
     total cpu time spent up to now is      184.5 secs

     Computing kpt #:    47  of   211
     total cpu time spent up to now is      188.4 secs

     Computing kpt #:    48  of   211
     total cpu time spent up to now is      192.4 secs

     Computing kpt #:    49  of   211
     total cpu time spent up to now is      196.3 secs

     Computing kpt #:    50  of   211
     total cpu time spent up to now is      200.3 secs

     Computing kpt #:    51  of   211
     total cpu time spent up to now is      204.4 secs

     Computing kpt #:    52  of   211
     total cpu time spent up to now is      208.3 secs

     Computing kpt #:    53  of   211
     total cpu time spent up to now is      212.3 secs

     Computing kpt #:    54  of   211
     total cpu time spent up to now is      216.2 secs

     Computing kpt #:    55  of   211
     total cpu time spent up to now is      220.1 secs

     Computing kpt #:    56  of   211
     total cpu time spent up to now is      224.2 secs

     Computing kpt #:    57  of   211
     total cpu time spent up to now is      228.1 secs

     Computing kpt #:    58  of   211
     total cpu time spent up to now is      232.1 secs

     Computing kpt #:    59  of   211
     total cpu time spent up to now is      236.0 secs

     Computing kpt #:    60  of   211
     total cpu time spent up to now is      240.0 secs

     Computing kpt #:    61  of   211
     total cpu time spent up to now is      244.0 secs

     Computing kpt #:    62  of   211
     total cpu time spent up to now is      248.0 secs

     Computing kpt #:    63  of   211
     total cpu time spent up to now is      252.0 secs

     Computing kpt #:    64  of   211
     total cpu time spent up to now is      256.0 secs

     Computing kpt #:    65  of   211
     total cpu time spent up to now is      259.9 secs

     Computing kpt #:    66  of   211
     total cpu time spent up to now is      263.8 secs

     Computing kpt #:    67  of   211
     total cpu time spent up to now is      267.9 secs

     Computing kpt #:    68  of   211
     total cpu time spent up to now is      271.8 secs

     Computing kpt #:    69  of   211
     total cpu time spent up to now is      275.8 secs

     Computing kpt #:    70  of   211
     total cpu time spent up to now is      279.8 secs

     Computing kpt #:    71  of   211
     total cpu time spent up to now is      283.7 secs

     Computing kpt #:    72  of   211
     total cpu time spent up to now is      287.8 secs

     Computing kpt #:    73  of   211
     total cpu time spent up to now is      291.8 secs

     Computing kpt #:    74  of   211
     total cpu time spent up to now is      295.8 secs

     Computing kpt #:    75  of   211
     total cpu time spent up to now is      300.0 secs

     Computing kpt #:    76  of   211
     total cpu time spent up to now is      304.0 secs

     Computing kpt #:    77  of   211
     total cpu time spent up to now is      308.1 secs

     Computing kpt #:    78  of   211
     total cpu time spent up to now is      312.0 secs

     Computing kpt #:    79  of   211
     total cpu time spent up to now is      316.0 secs

     Computing kpt #:    80  of   211
     total cpu time spent up to now is      320.2 secs

     Computing kpt #:    81  of   211
     total cpu time spent up to now is      324.3 secs

     Computing kpt #:    82  of   211
     total cpu time spent up to now is      328.4 secs

     Computing kpt #:    83  of   211
     total cpu time spent up to now is      332.7 secs

     Computing kpt #:    84  of   211
     total cpu time spent up to now is      336.9 secs

     Computing kpt #:    85  of   211
     total cpu time spent up to now is      341.3 secs

     Computing kpt #:    86  of   211
     total cpu time spent up to now is      345.4 secs

     Computing kpt #:    87  of   211
     total cpu time spent up to now is      349.9 secs

     Computing kpt #:    88  of   211
     total cpu time spent up to now is      354.3 secs

     Computing kpt #:    89  of   211
     total cpu time spent up to now is      358.4 secs

     Computing kpt #:    90  of   211
     total cpu time spent up to now is      362.8 secs

     Computing kpt #:    91  of   211
     total cpu time spent up to now is      366.8 secs

     Computing kpt #:    92  of   211
     total cpu time spent up to now is      370.9 secs

     Computing kpt #:    93  of   211
     total cpu time spent up to now is      375.6 secs

     Computing kpt #:    94  of   211
     total cpu time spent up to now is      380.0 secs

     Computing kpt #:    95  of   211
     total cpu time spent up to now is      384.5 secs

     Computing kpt #:    96  of   211
     total cpu time spent up to now is      389.0 secs

     Computing kpt #:    97  of   211
     total cpu time spent up to now is      393.5 secs

     Computing kpt #:    98  of   211
     total cpu time spent up to now is      397.9 secs

     Computing kpt #:    99  of   211
     total cpu time spent up to now is      402.4 secs

     Computing kpt #:   100  of   211
     total cpu time spent up to now is      406.9 secs

     Computing kpt #:   101  of   211
     total cpu time spent up to now is      411.4 secs

     Computing kpt #:   102  of   211
     total cpu time spent up to now is      415.9 secs

     Computing kpt #:   103  of   211
     total cpu time spent up to now is      420.3 secs

     Computing kpt #:   104  of   211
     total cpu time spent up to now is      424.8 secs

     Computing kpt #:   105  of   211
     total cpu time spent up to now is      428.9 secs

     Computing kpt #:   106  of   211
     total cpu time spent up to now is      433.3 secs

     Computing kpt #:   107  of   211
     total cpu time spent up to now is      437.8 secs

     Computing kpt #:   108  of   211
     total cpu time spent up to now is      441.9 secs

     Computing kpt #:   109  of   211
     total cpu time spent up to now is      446.3 secs

     Computing kpt #:   110  of   211
     total cpu time spent up to now is      450.8 secs

     Computing kpt #:   111  of   211
     total cpu time spent up to now is      455.3 secs

     Computing kpt #:   112  of   211
     total cpu time spent up to now is      459.7 secs

     Computing kpt #:   113  of   211
     total cpu time spent up to now is      464.3 secs

     Computing kpt #:   114  of   211
     total cpu time spent up to now is      468.8 secs

     Computing kpt #:   115  of   211
     total cpu time spent up to now is      473.3 secs

     Computing kpt #:   116  of   211
     total cpu time spent up to now is      477.8 secs

     Computing kpt #:   117  of   211
     total cpu time spent up to now is      482.2 secs

     Computing kpt #:   118  of   211
     total cpu time spent up to now is      486.4 secs

     Computing kpt #:   119  of   211
     total cpu time spent up to now is      490.5 secs

     Computing kpt #:   120  of   211
     total cpu time spent up to now is      494.7 secs

     Computing kpt #:   121  of   211
     total cpu time spent up to now is      498.8 secs

     Computing kpt #:   122  of   211
     total cpu time spent up to now is      502.9 secs

     Computing kpt #:   123  of   211
     total cpu time spent up to now is      506.9 secs

     Computing kpt #:   124  of   211
     total cpu time spent up to now is      511.0 secs

     Computing kpt #:   125  of   211
     total cpu time spent up to now is      515.0 secs

     Computing kpt #:   126  of   211
     total cpu time spent up to now is      519.1 secs

     Computing kpt #:   127  of   211
     total cpu time spent up to now is      523.1 secs

     Computing kpt #:   128  of   211
     total cpu time spent up to now is      527.2 secs

     Computing kpt #:   129  of   211
     total cpu time spent up to now is      531.2 secs

     Computing kpt #:   130  of   211
     total cpu time spent up to now is      535.2 secs

     Computing kpt #:   131  of   211
     total cpu time spent up to now is      539.2 secs

     Computing kpt #:   132  of   211
     total cpu time spent up to now is      543.2 secs

     Computing kpt #:   133  of   211
     total cpu time spent up to now is      547.4 secs

     Computing kpt #:   134  of   211
     total cpu time spent up to now is      551.4 secs

     Computing kpt #:   135  of   211
     total cpu time spent up to now is      555.5 secs

     Computing kpt #:   136  of   211
     total cpu time spent up to now is      559.5 secs

     Computing kpt #:   137  of   211
     total cpu time spent up to now is      563.6 secs

     Computing kpt #:   138  of   211
     total cpu time spent up to now is      567.6 secs

     Computing kpt #:   139  of   211
     total cpu time spent up to now is      571.8 secs

     Computing kpt #:   140  of   211
     total cpu time spent up to now is      575.9 secs

     Computing kpt #:   141  of   211
     total cpu time spent up to now is      580.0 secs

     Computing kpt #:   142  of   211
     total cpu time spent up to now is      584.1 secs

     Computing kpt #:   143  of   211
     total cpu time spent up to now is      588.1 secs

     Computing kpt #:   144  of   211
     total cpu time spent up to now is      592.1 secs

     Computing kpt #:   145  of   211
     total cpu time spent up to now is      596.2 secs

     Computing kpt #:   146  of   211
     total cpu time spent up to now is      600.7 secs

     Computing kpt #:   147  of   211
     total cpu time spent up to now is      604.7 secs

     Computing kpt #:   148  of   211
     total cpu time spent up to now is      608.9 secs

     Computing kpt #:   149  of   211
     total cpu time spent up to now is      613.0 secs

     Computing kpt #:   150  of   211
     total cpu time spent up to now is      617.0 secs

     Computing kpt #:   151  of   211
     total cpu time spent up to now is      621.2 secs

     Computing kpt #:   152  of   211
     total cpu time spent up to now is      625.2 secs

     Computing kpt #:   153  of   211
     total cpu time spent up to now is      629.3 secs

     Computing kpt #:   154  of   211
     total cpu time spent up to now is      633.3 secs

     Computing kpt #:   155  of   211
     total cpu time spent up to now is      637.4 secs

     Computing kpt #:   156  of   211
     total cpu time spent up to now is      641.5 secs

     Computing kpt #:   157  of   211
     total cpu time spent up to now is      645.6 secs

     Computing kpt #:   158  of   211
     total cpu time spent up to now is      650.0 secs

     Computing kpt #:   159  of   211
     total cpu time spent up to now is      654.5 secs

     Computing kpt #:   160  of   211
     total cpu time spent up to now is      658.6 secs

     Computing kpt #:   161  of   211
     total cpu time spent up to now is      662.7 secs

     Computing kpt #:   162  of   211
     total cpu time spent up to now is      666.6 secs

     Computing kpt #:   163  of   211
     total cpu time spent up to now is      670.6 secs

     Computing kpt #:   164  of   211
     total cpu time spent up to now is      674.5 secs

     Computing kpt #:   165  of   211
     total cpu time spent up to now is      678.4 secs

     Computing kpt #:   166  of   211
     total cpu time spent up to now is      682.2 secs

     Computing kpt #:   167  of   211
     total cpu time spent up to now is      686.1 secs

     Computing kpt #:   168  of   211
     total cpu time spent up to now is      690.0 secs

     Computing kpt #:   169  of   211
     total cpu time spent up to now is      693.8 secs

     Computing kpt #:   170  of   211
     total cpu time spent up to now is      697.4 secs

     Computing kpt #:   171  of   211
     total cpu time spent up to now is      701.3 secs

     Computing kpt #:   172  of   211
     total cpu time spent up to now is      705.3 secs

     Computing kpt #:   173  of   211
     total cpu time spent up to now is      709.2 secs

     Computing kpt #:   174  of   211
     total cpu time spent up to now is      713.1 secs

     Computing kpt #:   175  of   211
     total cpu time spent up to now is      716.9 secs

     Computing kpt #:   176  of   211
     total cpu time spent up to now is      720.9 secs

     Computing kpt #:   177  of   211
     total cpu time spent up to now is      724.8 secs

     Computing kpt #:   178  of   211
     total cpu time spent up to now is      728.9 secs

     Computing kpt #:   179  of   211
     total cpu time spent up to now is      732.8 secs

     Computing kpt #:   180  of   211
     total cpu time spent up to now is      737.2 secs

     Computing kpt #:   181  of   211
     total cpu time spent up to now is      741.7 secs

     Computing kpt #:   182  of   211
     total cpu time spent up to now is      746.2 secs

     Computing kpt #:   183  of   211
     total cpu time spent up to now is      750.6 secs

     Computing kpt #:   184  of   211
     total cpu time spent up to now is      754.6 secs

     Computing kpt #:   185  of   211
     total cpu time spent up to now is      758.6 secs

     Computing kpt #:   186  of   211
     total cpu time spent up to now is      762.5 secs

     Computing kpt #:   187  of   211
     total cpu time spent up to now is      766.4 secs

     Computing kpt #:   188  of   211
     total cpu time spent up to now is      770.3 secs

     Computing kpt #:   189  of   211
     total cpu time spent up to now is      774.2 secs

     Computing kpt #:   190  of   211
     total cpu time spent up to now is      778.1 secs

     Computing kpt #:   191  of   211
     total cpu time spent up to now is      782.0 secs

     Computing kpt #:   192  of   211
     total cpu time spent up to now is      785.6 secs

     Computing kpt #:   193  of   211
     total cpu time spent up to now is      789.4 secs

     Computing kpt #:   194  of   211
     total cpu time spent up to now is      793.3 secs

     Computing kpt #:   195  of   211
     total cpu time spent up to now is      797.2 secs

     Computing kpt #:   196  of   211
     total cpu time spent up to now is      801.1 secs

     Computing kpt #:   197  of   211
     total cpu time spent up to now is      805.3 secs

     Computing kpt #:   198  of   211
     total cpu time spent up to now is      809.2 secs

     Computing kpt #:   199  of   211
     total cpu time spent up to now is      813.2 secs

     Computing kpt #:   200  of   211
     total cpu time spent up to now is      817.1 secs

     Computing kpt #:   201  of   211
     total cpu time spent up to now is      821.0 secs

     Computing kpt #:   202  of   211
     total cpu time spent up to now is      825.0 secs

     Computing kpt #:   203  of   211
     total cpu time spent up to now is      829.0 secs

     Computing kpt #:   204  of   211
     total cpu time spent up to now is      833.2 secs

     Computing kpt #:   205  of   211
     total cpu time spent up to now is      837.3 secs

     Computing kpt #:   206  of   211
     total cpu time spent up to now is      841.4 secs

     Computing kpt #:   207  of   211
     total cpu time spent up to now is      845.5 secs

     Computing kpt #:   208  of   211
     total cpu time spent up to now is      849.6 secs

     Computing kpt #:   209  of   211
     total cpu time spent up to now is      853.7 secs

     Computing kpt #:   210  of   211
     total cpu time spent up to now is      857.9 secs

     Computing kpt #:   211  of   211
     total cpu time spent up to now is      861.9 secs

     ethr =  1.28E-10,  avg # of iterations = 51.6

     total cpu time spent up to now is      861.9 secs

     End of band structure calculation

          k = 0.0000 0.0000 0.0000 ( 14667 PWs)   bands (ev):

   -35.5040 -35.5040 -35.5003 -35.5003 -35.4753 -35.4753 -35.4717 -35.4717
   -35.3932 -35.3932 -35.3596 -35.3596 -34.0447 -34.0447 -34.0410 -34.0410
   -34.0204 -34.0204 -34.0168 -34.0168 -34.0074 -34.0074 -34.0039 -34.0039
   -33.9308 -33.9308 -33.9154 -33.9154 -33.8871 -33.8871 -28.1360 -28.1360
   -28.1323 -28.1323 -28.1275 -28.1275 -28.1239 -28.1239 -26.8968 -26.8968
   -26.8931 -26.8931 -26.8874 -26.8874 -26.8856 -26.8856 -26.8837 -26.8837
   -26.8820 -26.8820 -10.6283 -10.6283 -10.0969 -10.0969  -9.0161  -9.0161
    -6.2628  -6.2628  -4.8676  -4.8676  -0.5043  -0.5043  -0.0252  -0.0252
     0.2369   0.2369   0.4960   0.4960   0.5728   0.5728   0.6835   0.6835
     0.9302   0.9302   1.2733   1.2733   1.4260   1.4260   2.1125   2.1125
     2.7393   2.7393   3.0785   3.0785   3.2980   3.2980   4.0408   4.0408
     4.1905   4.1905   6.2085   6.2085   6.4014   6.4014   6.9907   6.9907
     7.5463   7.5463   7.6122   7.6122

          k = 0.0071 0.0041 0.0000 ( 14665 PWs)   bands (ev):

   -35.5040 -35.5040 -35.5003 -35.5003 -35.4753 -35.4753 -35.4717 -35.4717
   -35.3932 -35.3932 -35.3596 -35.3596 -34.0447 -34.0447 -34.0410 -34.0410
   -34.0204 -34.0204 -34.0168 -34.0168 -34.0074 -34.0074 -34.0039 -34.0039
   -33.9308 -33.9308 -33.9154 -33.9154 -33.8871 -33.8871 -28.1360 -28.1360
   -28.1323 -28.1323 -28.1275 -28.1275 -28.1239 -28.1239 -26.8968 -26.8968
   -26.8931 -26.8931 -26.8874 -26.8874 -26.8856 -26.8856 -26.8837 -26.8837
   -26.8820 -26.8820 -10.6279 -10.6279 -10.0965 -10.0965  -9.0159  -9.0159
    -6.2629  -6.2629  -4.8683  -4.8683  -0.5050  -0.5050  -0.0317  -0.0311
     0.2377   0.2381   0.4933   0.4937   0.5585   0.5593   0.6929   0.6940
     0.9332   0.9334   1.2699   1.2700   1.4290   1.4292   2.1186   2.1188
     2.7389   2.7390   3.0725   3.0727   3.3046   3.3049   4.0431   4.0432
     4.1901   4.1901   6.2093   6.2093   6.4015   6.4015   6.9909   6.9909
     7.5436   7.5436   7.6118   7.6119

          k = 0.0143 0.0082 0.0000 ( 14659 PWs)   bands (ev):

   -35.5040 -35.5040 -35.5003 -35.5003 -35.4753 -35.4753 -35.4717 -35.4717
   -35.3932 -35.3932 -35.3596 -35.3596 -34.0447 -34.0447 -34.0410 -34.0410
   -34.0204 -34.0204 -34.0168 -34.0168 -34.0074 -34.0074 -34.0039 -34.0039
   -33.9308 -33.9308 -33.9154 -33.9154 -33.8871 -33.8871 -28.1360 -28.1360
   -28.1323 -28.1323 -28.1275 -28.1275 -28.1239 -28.1239 -26.8968 -26.8968
   -26.8931 -26.8931 -26.8874 -26.8874 -26.8856 -26.8856 -26.8837 -26.8837
   -26.8820 -26.8820 -10.6266 -10.6266 -10.0953 -10.0953  -9.0151  -9.0151
    -6.2631  -6.2631  -4.8707  -4.8707  -0.5072  -0.5071  -0.0497  -0.0487
     0.2398   0.2406   0.4827   0.4839   0.5297   0.5309   0.7119   0.7134
     0.9421   0.9424   1.2601   1.2604   1.4387   1.4390   2.1364   2.1366
     2.7378   2.7381   3.0572   3.0576   3.3224   3.3229   4.0499   4.0501
     4.1890   4.1891   6.2117   6.2117   6.4020   6.4020   6.9915   6.9915
     7.5354   7.5354   7.6110   7.6111

          k = 0.0214 0.0124 0.0000 ( 14651 PWs)   bands (ev):

   -35.5040 -35.5040 -35.5003 -35.5003 -35.4753 -35.4753 -35.4717 -35.4717
   -35.3932 -35.3932 -35.3596 -35.3596 -34.0447 -34.0447 -34.0410 -34.0410
   -34.0204 -34.0204 -34.0168 -34.0168 -34.0074 -34.0074 -34.0039 -34.0039
   -33.9308 -33.9308 -33.9154 -33.9154 -33.8871 -33.8871 -28.1360 -28.1360
   -28.1323 -28.1323 -28.1275 -28.1275 -28.1239 -28.1238 -26.8968 -26.8968
   -26.8931 -26.8931 -26.8874 -26.8874 -26.8856 -26.8856 -26.8837 -26.8837
   -26.8820 -26.8820 -10.6245 -10.6245 -10.0934 -10.0934  -9.0139  -9.0139
    -6.2634  -6.2634  -4.8745  -4.8745  -0.5108  -0.5107  -0.0777  -0.0763
     0.2416   0.2426   0.4553   0.4572   0.5073   0.5087   0.7293   0.7310
     0.9559   0.9564   1.2453   1.2457   1.4555   1.4560   2.1637   2.1641
     2.7359   2.7362   3.0379   3.0385   3.3469   3.3475   4.0610   4.0612
     4.1876   4.1877   6.2156   6.2156   6.4028   6.4028   6.9924   6.9924
     7.5214   7.5214   7.6103   7.6104

          k = 0.0286 0.0165 0.0000 ( 14645 PWs)   bands (ev):

   -35.5039 -35.5039 -35.5003 -35.5003 -35.4753 -35.4753 -35.4717 -35.4717
   -35.3932 -35.3932 -35.3596 -35.3596 -34.0447 -34.0447 -34.0410 -34.0410
   -34.0204 -34.0204 -34.0168 -34.0168 -34.0074 -34.0074 -34.0039 -34.0038
   -33.9308 -33.9308 -33.9154 -33.9154 -33.8871 -33.8871 -28.1360 -28.1360
   -28.1323 -28.1323 -28.1275 -28.1275 -28.1239 -28.1238 -26.8968 -26.8968
   -26.8931 -26.8931 -26.8874 -26.8874 -26.8856 -26.8856 -26.8837 -26.8837
   -26.8820 -26.8820 -10.6214 -10.6214 -10.0906 -10.0906  -9.0122  -9.0122
    -6.2638  -6.2638  -4.8800  -4.8799  -0.5160  -0.5158  -0.1136  -0.1120
     0.2413   0.2423   0.4128   0.4148   0.4949   0.4962   0.7409   0.7427
     0.9726   0.9732   1.2285   1.2291   1.4791   1.4797   2.1979   2.1985
     2.7332   2.7335   3.0195   3.0201   3.3743   3.3749   4.0755   4.0758
     4.1867   4.1868   6.2211   6.2211   6.4039   6.4039   6.9935   6.9935
     7.5021   7.5021   7.6100   7.6101

          k = 0.0357 0.0206 0.0000 ( 14656 PWs)   bands (ev):

   -35.5039 -35.5039 -35.5003 -35.5003 -35.4753 -35.4753 -35.4717 -35.4717
   -35.3932 -35.3932 -35.3596 -35.3596 -34.0447 -34.0447 -34.0410 -34.0410
   -34.0204 -34.0204 -34.0168 -34.0168 -34.0074 -34.0074 -34.0039 -34.0038
   -33.9308 -33.9308 -33.9154 -33.9154 -33.8871 -33.8871 -28.1360 -28.1360
   -28.1323 -28.1323 -28.1275 -28.1275 -28.1239 -28.1238 -26.8968 -26.8968
   -26.8931 -26.8931 -26.8874 -26.8874 -26.8856 -26.8856 -26.8837 -26.8837
   -26.8820 -26.8820 -10.6176 -10.6176 -10.0871 -10.0871  -9.0101  -9.0101
    -6.2644  -6.2644  -4.8870  -4.8870  -0.5228  -0.5226  -0.1559  -0.1541
     0.2374   0.2385   0.3650   0.3669   0.4850   0.4861   0.7459   0.7477
     0.9886   0.9894   1.2147   1.2154   1.5081   1.5088   2.2359   2.2365
     2.7300   2.7303   3.0052   3.0057   3.4022   3.4029   4.0918   4.0922
     4.1878   4.1878   6.2281   6.2281   6.4052   6.4053   6.9945   6.9946
     7.4781   7.4782   7.6103   7.6104

          k = 0.0429 0.0247 0.0000 ( 14656 PWs)   bands (ev):

   -35.5039 -35.5039 -35.5003 -35.5003 -35.4753 -35.4753 -35.4717 -35.4717
   -35.3932 -35.3932 -35.3596 -35.3596 -34.0447 -34.0446 -34.0410 -34.0410
   -34.0204 -34.0204 -34.0168 -34.0168 -34.0074 -34.0074 -34.0039 -34.0038
   -33.9308 -33.9308 -33.9154 -33.9154 -33.8871 -33.8871 -28.1360 -28.1360
   -28.1323 -28.1323 -28.1275 -28.1275 -28.1239 -28.1238 -26.8968 -26.8968
   -26.8931 -26.8931 -26.8874 -26.8874 -26.8856 -26.8856 -26.8837 -26.8837
   -26.8820 -26.8820 -10.6129 -10.6129 -10.0827 -10.0827  -9.0074  -9.0074
    -6.2652  -6.2652  -4.8955  -4.8955  -0.5314  -0.5311  -0.2033  -0.2012
     0.2290   0.2298   0.3160   0.3178   0.4747   0.4757   0.7441   0.7457
     1.0004   1.0012   1.2090   1.2098   1.5407   1.5415   2.2742   2.2749
     2.7277   2.7280   2.9971   2.9976   3.4295   3.4302   4.1071   4.1076
     4.1934   4.1936   6.2365   6.2366   6.4068   6.4069   6.9953   6.9954
     7.4508   7.4508   7.6110   7.6111

          k = 0.0500 0.0289 0.0000 ( 14654 PWs)   bands (ev):

   -35.5039 -35.5039 -35.5003 -35.5003 -35.4753 -35.4753 -35.4717 -35.4717
   -35.3932 -35.3932 -35.3596 -35.3596 -34.0446 -34.0446 -34.0410 -34.0410
   -34.0204 -34.0204 -34.0168 -34.0168 -34.0074 -34.0074 -34.0039 -34.0038
   -33.9308 -33.9308 -33.9154 -33.9154 -33.8871 -33.8871 -28.1360 -28.1360
   -28.1323 -28.1323 -28.1275 -28.1275 -28.1239 -28.1238 -26.8968 -26.8968
   -26.8931 -26.8931 -26.8874 -26.8874 -26.8856 -26.8856 -26.8838 -26.8837
   -26.8820 -26.8820 -10.6073 -10.6073 -10.0776 -10.0776  -9.0043  -9.0043
    -6.2661  -6.2661  -4.9056  -4.9056  -0.5420  -0.5415  -0.2546  -0.2524
     0.2142   0.2147   0.2690   0.2706   0.4632   0.4641   0.7351   0.7367
     1.0061   1.0069   1.2150   1.2157   1.5749   1.5757   2.3097   2.3105
     2.7287   2.7289   2.9962   2.9966   3.4554   3.4562   4.1178   4.1185
     4.2073   4.2075   6.2464   6.2464   6.4087   6.4087   6.9954   6.9955
     7.4214   7.4215   7.6121   7.6122

          k = 0.0571 0.0330 0.0000 ( 14649 PWs)   bands (ev):

   -35.5039 -35.5039 -35.5003 -35.5003 -35.4753 -35.4753 -35.4717 -35.4717
   -35.3932 -35.3932 -35.3596 -35.3596 -34.0446 -34.0446 -34.0410 -34.0410
   -34.0204 -34.0204 -34.0168 -34.0168 -34.0074 -34.0074 -34.0039 -34.0038
   -33.9308 -33.9308 -33.9154 -33.9154 -33.8871 -33.8871 -28.1360 -28.1360
   -28.1323 -28.1323 -28.1275 -28.1275 -28.1239 -28.1238 -26.8968 -26.8968
   -26.8931 -26.8931 -26.8874 -26.8874 -26.8856 -26.8856 -26.8838 -26.8837
   -26.8820 -26.8820 -10.6009 -10.6009 -10.0717 -10.0717  -9.0007  -9.0007
    -6.2672  -6.2672  -4.9173  -4.9172  -0.5549  -0.5543  -0.3089  -0.3064
     0.1872   0.1884   0.2303   0.2317   0.4497   0.4507   0.7193   0.7207
     1.0071   1.0079   1.2321   1.2328   1.6085   1.6093   2.3397   2.3406
     2.7359   2.7361   3.0026   3.0028   3.4798   3.4806   4.1228   4.1235
     4.2303   4.2306   6.2575   6.2576   6.4106   6.4107   6.9943   6.9943
     7.3915   7.3915   7.6134   7.6135

          k = 0.0643 0.0371 0.0000 ( 14648 PWs)   bands (ev):

   -35.5039 -35.5039 -35.5003 -35.5003 -35.4753 -35.4753 -35.4717 -35.4717
   -35.3932 -35.3932 -35.3596 -35.3596 -34.0446 -34.0446 -34.0410 -34.0410
   -34.0204 -34.0204 -34.0168 -34.0168 -34.0074 -34.0074 -34.0038 -34.0038
   -33.9308 -33.9308 -33.9154 -33.9154 -33.8871 -33.8871 -28.1360 -28.1360
   -28.1323 -28.1323 -28.1275 -28.1275 -28.1239 -28.1238 -26.8968 -26.8968
   -26.8931 -26.8931 -26.8874 -26.8874 -26.8856 -26.8856 -26.8838 -26.8837
   -26.8820 -26.8820 -10.5936 -10.5936 -10.0650 -10.0650  -8.9967  -8.9967
    -6.2685  -6.2685  -4.9305  -4.9304  -0.5707  -0.5699  -0.3648  -0.3622
     0.1455   0.1473   0.2036   0.2049   0.4338   0.4348   0.6974   0.6986
     1.0069   1.0076   1.2573   1.2579   1.6392   1.6399   2.3629   2.3638
     2.7513   2.7518   3.0157   3.0158   3.5027   3.5034   4.1239   4.1247
     4.2603   4.2607   6.2700   6.2701   6.4127   6.4128   6.9913   6.9913
     7.3624   7.3625   7.6149   7.6150

          k = 0.0714 0.0412 0.0000 ( 14642 PWs)   bands (ev):

   -35.5039 -35.5039 -35.5003 -35.5003 -35.4753 -35.4753 -35.4717 -35.4717
   -35.3932 -35.3932 -35.3596 -35.3596 -34.0446 -34.0446 -34.0410 -34.0410
   -34.0204 -34.0204 -34.0168 -34.0168 -34.0074 -34.0074 -34.0038 -34.0038
   -33.9308 -33.9308 -33.9154 -33.9154 -33.8871 -33.8871 -28.1360 -28.1360
   -28.1323 -28.1323 -28.1275 -28.1275 -28.1239 -28.1238 -26.8967 -26.8967
   -26.8930 -26.8930 -26.8874 -26.8874 -26.8856 -26.8856 -26.8838 -26.8837
   -26.8820 -26.8820 -10.5854 -10.5854 -10.0576 -10.0576  -8.9922  -8.9922
    -6.2700  -6.2700  -4.9452  -4.9451  -0.5907  -0.5896  -0.4208  -0.4179
     0.0976   0.0994   0.1814   0.1825   0.4147   0.4159   0.6710   0.6720
     1.0078   1.0084   1.2873   1.2879   1.6646   1.6654   2.3804   2.3812
     2.7754   2.7760   3.0350   3.0352   3.5242   3.5250   4.1238   4.1246
     4.2948   4.2951   6.2836   6.2837   6.4148   6.4149   6.9856   6.9857
     7.3358   7.3359   7.6165   7.6166

          k = 0.0786 0.0454 0.0000 ( 14641 PWs)   bands (ev):

   -35.5039 -35.5039 -35.5003 -35.5003 -35.4753 -35.4753 -35.4717 -35.4717
   -35.3932 -35.3932 -35.3596 -35.3596 -34.0446 -34.0446 -34.0410 -34.0410
   -34.0204 -34.0204 -34.0168 -34.0168 -34.0074 -34.0074 -34.0038 -34.0038
   -33.9307 -33.9307 -33.9154 -33.9154 -33.8871 -33.8871 -28.1360 -28.1360
   -28.1323 -28.1323 -28.1275 -28.1275 -28.1239 -28.1238 -26.8967 -26.8967
   -26.8930 -26.8930 -26.8875 -26.8874 -26.8856 -26.8856 -26.8838 -26.8837
   -26.8820 -26.8820 -10.5764 -10.5764 -10.0494 -10.0494  -8.9873  -8.9873
    -6.2717  -6.2717  -4.9614  -4.9614  -0.6169  -0.6155  -0.4741  -0.4709
     0.0479   0.0497   0.1595   0.1605   0.3921   0.3935   0.6421   0.6430
     1.0104   1.0109   1.3201   1.3206   1.6828   1.6836   2.3949   2.3957
     2.8063   2.8071   3.0599   3.0602   3.5450   3.5458   4.1240   4.1248
     4.3318   4.3321   6.2984   6.2985   6.4167   6.4168   6.9766   6.9767
     7.3130   7.3131   7.6183   7.6183

          k = 0.0857 0.0495 0.0000 ( 14641 PWs)   bands (ev):

   -35.5039 -35.5039 -35.5003 -35.5003 -35.4753 -35.4753 -35.4717 -35.4717
   -35.3932 -35.3932 -35.3596 -35.3596 -34.0446 -34.0446 -34.0410 -34.0410
   -34.0204 -34.0204 -34.0168 -34.0168 -34.0074 -34.0074 -34.0038 -34.0038
   -33.9307 -33.9307 -33.9154 -33.9154 -33.8870 -33.8870 -28.1360 -28.1360
   -28.1323 -28.1323 -28.1275 -28.1275 -28.1239 -28.1238 -26.8967 -26.8967
   -26.8930 -26.8930 -26.8875 -26.8874 -26.8856 -26.8856 -26.8838 -26.8837
   -26.8820 -26.8820 -10.5666 -10.5666 -10.0404 -10.0404  -8.9819  -8.9819
    -6.2737  -6.2737  -4.9792  -4.9792  -0.6523  -0.6508  -0.5210  -0.5179
    -0.0024  -0.0006   0.1372   0.1380   0.3658   0.3673   0.6128   0.6135
     1.0146   1.0151   1.3540   1.3546   1.6921   1.6929   2.4102   2.4109
     2.8417   2.8426   3.0894   3.0898   3.5656   3.5664   4.1257   4.1265
     4.3702   4.3705   6.3141   6.3142   6.4184   6.4185   6.9636   6.9637
     7.2953   7.2954   7.6202   7.6203

          k = 0.0929 0.0536 0.0000 ( 14631 PWs)   bands (ev):

   -35.5039 -35.5039 -35.5003 -35.5003 -35.4753 -35.4753 -35.4717 -35.4717
   -35.3932 -35.3932 -35.3596 -35.3596 -34.0446 -34.0446 -34.0410 -34.0410
   -34.0204 -34.0204 -34.0168 -34.0168 -34.0074 -34.0074 -34.0038 -34.0038
   -33.9307 -33.9307 -33.9154 -33.9154 -33.8870 -33.8870 -28.1360 -28.1360
   -28.1323 -28.1323 -28.1275 -28.1275 -28.1239 -28.1238 -26.8967 -26.8967
   -26.8930 -26.8930 -26.8875 -26.8874 -26.8856 -26.8856 -26.8838 -26.8837
   -26.8820 -26.8819 -10.5559 -10.5559 -10.0307 -10.0307  -8.9761  -8.9761
    -6.2759  -6.2759  -4.9985  -4.9984  -0.6988  -0.6976  -0.5592  -0.5563
    -0.0532  -0.0515   0.1144   0.1150   0.3359   0.3376   0.5844   0.5850
     1.0199   1.0204   1.3880   1.3887   1.6920   1.6928   2.4287   2.4294
     2.8793   2.8802   3.1222   3.1227   3.5869   3.5877   4.1296   4.1304
     4.4091   4.4094   6.3306   6.3307   6.4196   6.4198   6.9468   6.9469
     7.2832   7.2833   7.6224   7.6225

          k = 0.1000 0.0577 0.0000 ( 14634 PWs)   bands (ev):

   -35.5039 -35.5039 -35.5003 -35.5003 -35.4753 -35.4753 -35.4717 -35.4717
   -35.3932 -35.3932 -35.3596 -35.3596 -34.0446 -34.0446 -34.0409 -34.0409
   -34.0204 -34.0204 -34.0168 -34.0168 -34.0074 -34.0074 -34.0038 -34.0038
   -33.9307 -33.9307 -33.9154 -33.9154 -33.8870 -33.8870 -28.1360 -28.1359
   -28.1323 -28.1323 -28.1276 -28.1275 -28.1239 -28.1238 -26.8967 -26.8967
   -26.8930 -26.8930 -26.8875 -26.8874 -26.8856 -26.8856 -26.8838 -26.8837
   -26.8820 -26.8819 -10.5443 -10.5443 -10.0202 -10.0202  -8.9700  -8.9699
    -6.2785  -6.2785  -5.0193  -5.0192  -0.7549  -0.7541  -0.5898  -0.5873
    -0.1044  -0.1028   0.0910   0.0915   0.3028   0.3047   0.5577   0.5585
     1.0257   1.0261   1.4212   1.4218   1.6830   1.6839   2.4517   2.4523
     2.9177   2.9187   3.1567   3.1572   3.6099   3.6106   4.1364   4.1372
     4.4478   4.4481   6.3476   6.3478   6.4203   6.4205   6.9267   6.9268
     7.2767   7.2769   7.6250   7.6251

          k = 0.1071 0.0619 0.0000 ( 14644 PWs)   bands (ev):

   -35.5039 -35.5039 -35.5003 -35.5003 -35.4753 -35.4753 -35.4717 -35.4717
   -35.3932 -35.3932 -35.3596 -35.3596 -34.0446 -34.0446 -34.0409 -34.0409
   -34.0204 -34.0204 -34.0168 -34.0168 -34.0074 -34.0074 -34.0038 -34.0038
   -33.9307 -33.9307 -33.9154 -33.9154 -33.8870 -33.8870 -28.1360 -28.1359
   -28.1323 -28.1322 -28.1276 -28.1275 -28.1239 -28.1238 -26.8967 -26.8967
   -26.8929 -26.8929 -26.8875 -26.8874 -26.8856 -26.8856 -26.8838 -26.8837
   -26.8820 -26.8819 -10.5320 -10.5320 -10.0090 -10.0090  -8.9634  -8.9634
    -6.2814  -6.2814  -5.0416  -5.0415  -0.8172  -0.8167  -0.6161  -0.6140
    -0.1562  -0.1546   0.0671   0.0675   0.2675   0.2696   0.5332   0.5340
     1.0314   1.0318   1.4519   1.4527   1.6670   1.6679   2.4792   2.4797
     2.9565   2.9574   3.1909   3.1915   3.6356   3.6363   4.1465   4.1473
     4.4859   4.4861   6.3644   6.3647   6.4205   6.4208   6.9047   6.9048
     7.2754   7.2756   7.6282   7.6283

          k = 0.1143 0.0660 0.0000 ( 14640 PWs)   bands (ev):

   -35.5039 -35.5039 -35.5003 -35.5003 -35.4753 -35.4753 -35.4717 -35.4717
   -35.3932 -35.3932 -35.3596 -35.3596 -34.0446 -34.0446 -34.0409 -34.0409
   -34.0204 -34.0204 -34.0168 -34.0168 -34.0074 -34.0074 -34.0038 -34.0038
   -33.9307 -33.9307 -33.9154 -33.9154 -33.8870 -33.8870 -28.1360 -28.1359
   -28.1323 -28.1322 -28.1276 -28.1275 -28.1239 -28.1238 -26.8966 -26.8966
   -26.8929 -26.8929 -26.8875 -26.8874 -26.8856 -26.8856 -26.8839 -26.8837
   -26.8820 -26.8819 -10.5188 -10.5188  -9.9970  -9.9970  -8.9564  -8.9564
    -6.2846  -6.2846  -5.0653  -5.0652  -0.8831  -0.8828  -0.6402  -0.6384
    -0.2086  -0.2071   0.0426   0.0428   0.2311   0.2332   0.5108   0.5117
     1.0366   1.0370   1.4777   1.4785   1.6477   1.6488   2.5100   2.5105
     2.9957   2.9965   3.2230   3.2236   3.6650   3.6656   4.1605   4.1612
     4.5228   4.5230   6.3794   6.3798   6.4213   6.4217   6.8822   6.8823
     7.2786   7.2787   7.6322   7.6323

          k = 0.1214 0.0701 0.0000 ( 14633 PWs)   bands (ev):

   -35.5039 -35.5039 -35.5003 -35.5003 -35.4753 -35.4753 -35.4717 -35.4717
   -35.3932 -35.3932 -35.3596 -35.3596 -34.0446 -34.0446 -34.0409 -34.0409
   -34.0204 -34.0204 -34.0168 -34.0168 -34.0074 -34.0074 -34.0038 -34.0038
   -33.9307 -33.9307 -33.9154 -33.9154 -33.8870 -33.8870 -28.1359 -28.1359
   -28.1322 -28.1322 -28.1276 -28.1275 -28.1239 -28.1238 -26.8966 -26.8966
   -26.8929 -26.8929 -26.8875 -26.8874 -26.8856 -26.8856 -26.8839 -26.8838
   -26.8820 -26.8819 -10.5048 -10.5048  -9.9843  -9.9843  -8.9490  -8.9490
    -6.2883  -6.2883  -5.0904  -5.0904  -0.9509  -0.9507  -0.6634  -0.6618
    -0.2616  -0.2602   0.0170   0.0173   0.1946   0.1968   0.4903   0.4912
     1.0409   1.0412   1.4930   1.4939   1.6322   1.6333   2.5427   2.5432
     3.0353   3.0360   3.2516   3.2522   3.6984   3.6990   4.1786   4.1793
     4.5583   4.5585   6.3879   6.3882   6.4269   6.4272   6.8609   6.8610
     7.2853   7.2854   7.6372   7.6372

          k = 0.1286 0.0742 0.0000 ( 14635 PWs)   bands (ev):

   -35.5039 -35.5039 -35.5003 -35.5002 -35.4753 -35.4753 -35.4717 -35.4717
   -35.3932 -35.3932 -35.3596 -35.3596 -34.0446 -34.0445 -34.0409 -34.0409
   -34.0204 -34.0204 -34.0168 -34.0168 -34.0074 -34.0074 -34.0038 -34.0038
   -33.9307 -33.9307 -33.9154 -33.9154 -33.8870 -33.8870 -28.1359 -28.1359
   -28.1322 -28.1322 -28.1276 -28.1275 -28.1239 -28.1238 -26.8966 -26.8966
   -26.8929 -26.8929 -26.8876 -26.8874 -26.8856 -26.8856 -26.8839 -26.8838
   -26.8820 -26.8819 -10.4899 -10.4899  -9.9708  -9.9708  -8.9413  -8.9413
    -6.2924  -6.2924  -5.1170  -5.1169  -1.0198  -1.0197  -0.6861  -0.6847
    -0.3154  -0.3140  -0.0098  -0.0095   0.1590   0.1612   0.4714   0.4724
     1.0438   1.0442   1.4897   1.4906   1.6297   1.6307   2.5761   2.5765
     3.0755   3.0762   3.2762   3.2769   3.7358   3.7363   4.2012   4.2018
     4.5921   4.5922   6.3858   6.3860   6.4404   6.4406   6.8423   6.8424
     7.2949   7.2950   7.6434   7.6434

          k = 0.1357 0.0784 0.0000 ( 14640 PWs)   bands (ev):

   -35.5039 -35.5039 -35.5002 -35.5002 -35.4753 -35.4753 -35.4717 -35.4717
   -35.3932 -35.3932 -35.3596 -35.3596 -34.0445 -34.0445 -34.0409 -34.0409
   -34.0204 -34.0204 -34.0168 -34.0168 -34.0074 -34.0074 -34.0038 -34.0038
   -33.9307 -33.9307 -33.9154 -33.9154 -33.8870 -33.8870 -28.1359 -28.1359
   -28.1322 -28.1322 -28.1276 -28.1275 -28.1239 -28.1238 -26.8966 -26.8966
   -26.8929 -26.8928 -26.8876 -26.8874 -26.8856 -26.8856 -26.8839 -26.8838
   -26.8820 -26.8819 -10.4742 -10.4742  -9.9567  -9.9567  -8.9332  -8.9332
    -6.2969  -6.2969  -5.1450  -5.1449  -1.0893  -1.0891  -0.7087  -0.7074
    -0.3698  -0.3685  -0.0381  -0.0377   0.1251   0.1272   0.4540   0.4550
     1.0450   1.0456   1.4672   1.4680   1.6422   1.6429   2.6087   2.6090
     3.1164   3.1170   3.2973   3.2979   3.7763   3.7767   4.2285   4.2290
     4.6240   4.6242   6.3756   6.3757   6.4586   6.4587   6.8277   6.8278
     7.3069   7.3070   7.6510   7.6510

          k = 0.1429 0.0825 0.0000 ( 14654 PWs)   bands (ev):

   -35.5039 -35.5039 -35.5002 -35.5002 -35.4753 -35.4753 -35.4717 -35.4717
   -35.3932 -35.3932 -35.3595 -35.3595 -34.0445 -34.0445 -34.0409 -34.0409
[...]
    -6.2953  -6.2953  -5.1545  -5.1545  -1.0352  -1.0348  -0.7312  -0.7299
    -0.5420  -0.5415  -0.1003  -0.0983   0.2300   0.2306   0.4543   0.4548
     0.8239   0.8242   1.5386   1.5396   1.6713   1.6724   2.6398   2.6406
     3.0122   3.0126   3.2673   3.2676   3.9161   3.9171   4.2414   4.2423
     4.6577   4.6579   6.4420   6.4424   6.4736   6.4739   6.8674   6.8675
     7.1410   7.1411   7.6586   7.6586

          k = 0.0762 0.1337 0.0000 ( 14643 PWs)   bands (ev):

   -35.5039 -35.5039 -35.5002 -35.5002 -35.4753 -35.4753 -35.4717 -35.4717
   -35.3932 -35.3932 -35.3595 -35.3595 -34.0445 -34.0445 -34.0409 -34.0409
   -34.0204 -34.0204 -34.0168 -34.0168 -34.0074 -34.0074 -34.0038 -34.0038
   -33.9307 -33.9307 -33.9154 -33.9154 -33.8870 -33.8870 -28.1359 -28.1359
   -28.1322 -28.1322 -28.1276 -28.1275 -28.1239 -28.1238 -26.8966 -26.8965
   -26.8929 -26.8928 -26.8875 -26.8874 -26.8857 -26.8856 -26.8838 -26.8837
   -26.8821 -26.8819 -10.4797 -10.4797  -9.9611  -9.9611  -8.9347  -8.9347
    -6.2904  -6.2904  -5.1221  -5.1221  -0.9657  -0.9653  -0.6961  -0.6945
    -0.4728  -0.4723  -0.0590  -0.0569   0.2561   0.2567   0.4760   0.4765
     0.8464   0.8467   1.5377   1.5390   1.6579   1.6593   2.6306   2.6315
     2.9563   2.9566   3.2393   3.2396   3.8782   3.8794   4.1955   4.1965
     4.6229   4.6231   6.4352   6.4360   6.4523   6.4530   6.8913   6.8915
     7.1571   7.1573   7.6419   7.6419

          k = 0.0714 0.1254 0.0000 ( 14643 PWs)   bands (ev):

   -35.5039 -35.5039 -35.5003 -35.5003 -35.4753 -35.4753 -35.4717 -35.4717
   -35.3932 -35.3932 -35.3596 -35.3596 -34.0446 -34.0445 -34.0409 -34.0409
   -34.0204 -34.0204 -34.0168 -34.0168 -34.0074 -34.0074 -34.0038 -34.0038
   -33.9307 -33.9307 -33.9154 -33.9154 -33.8870 -33.8870 -28.1359 -28.1359
   -28.1322 -28.1322 -28.1276 -28.1275 -28.1239 -28.1238 -26.8966 -26.8966
   -26.8929 -26.8929 -26.8875 -26.8874 -26.8857 -26.8856 -26.8838 -26.8837
   -26.8821 -26.8819 -10.4975 -10.4975  -9.9773  -9.9773  -8.9442  -8.9442
    -6.2861  -6.2860  -5.0916  -5.0916  -0.8964  -0.8961  -0.6639  -0.6620
    -0.4009  -0.4005  -0.0170  -0.0148   0.2791   0.2797   0.4981   0.4986
     0.8693   0.8696   1.5220   1.5232   1.6556   1.6570   2.6170   2.6179
     2.9028   2.9031   3.2139   3.2142   3.8315   3.8328   4.1619   4.1631
     4.5862   4.5864   6.4165   6.4170   6.4436   6.4441   6.9136   6.9137
     7.1777   7.1779   7.6281   7.6281

          k = 0.0667 0.1170 0.0000 ( 14639 PWs)   bands (ev):

   -35.5039 -35.5039 -35.5003 -35.5003 -35.4753 -35.4753 -35.4717 -35.4717
   -35.3932 -35.3932 -35.3596 -35.3596 -34.0446 -34.0446 -34.0409 -34.0409
   -34.0204 -34.0204 -34.0168 -34.0168 -34.0074 -34.0074 -34.0038 -34.0038
   -33.9307 -33.9307 -33.9154 -33.9154 -33.8870 -33.8870 -28.1359 -28.1359
   -28.1322 -28.1322 -28.1276 -28.1275 -28.1239 -28.1238 -26.8966 -26.8966
   -26.8929 -26.8929 -26.8875 -26.8874 -26.8857 -26.8856 -26.8838 -26.8837
   -26.8821 -26.8819 -10.5143 -10.5143  -9.9926  -9.9926  -8.9531  -8.9531
    -6.2822  -6.2822  -5.0630  -5.0629  -0.8286  -0.8281  -0.6328  -0.6305
    -0.3283  -0.3279   0.0255   0.0279   0.2992   0.2998   0.5206   0.5211
     0.8921   0.8924   1.4929   1.4940   1.6625   1.6638   2.5963   2.5972
     2.8563   2.8566   3.1890   3.1893   3.7789   3.7803   4.1394   4.1405
     4.5474   4.5476   6.3936   6.3939   6.4394   6.4397   6.9336   6.9337
     7.2024   7.2026   7.6171   7.6171

          k = 0.0619 0.1087 0.0000 ( 14646 PWs)   bands (ev):

   -35.5039 -35.5039 -35.5003 -35.5003 -35.4753 -35.4753 -35.4717 -35.4717
   -35.3932 -35.3932 -35.3596 -35.3596 -34.0446 -34.0446 -34.0409 -34.0409
   -34.0204 -34.0204 -34.0168 -34.0168 -34.0074 -34.0074 -34.0038 -34.0038
   -33.9307 -33.9307 -33.9154 -33.9154 -33.8870 -33.8870 -28.1360 -28.1359
   -28.1323 -28.1322 -28.1276 -28.1275 -28.1239 -28.1238 -26.8966 -26.8966
   -26.8929 -26.8929 -26.8875 -26.8874 -26.8857 -26.8856 -26.8838 -26.8837
   -26.8820 -26.8819 -10.5299 -10.5299 -10.0068 -10.0068  -8.9615  -8.9615
    -6.2789  -6.2789  -5.0362  -5.0362  -0.7640  -0.7632  -0.6005  -0.5978
    -0.2563  -0.2558   0.0686   0.0711   0.3170   0.3176   0.5438   0.5444
     0.9145   0.9147   1.4555   1.4564   1.6726   1.6738   2.5669   2.5678
     2.8201   2.8205   3.1628   3.1631   3.7247   3.7261   4.1253   4.1264
     4.5066   4.5067   6.3708   6.3711   6.4355   6.4357   6.9509   6.9511
     7.2307   7.2309   7.6092   7.6092

          k = 0.0571 0.1003 0.0000 ( 14653 PWs)   bands (ev):

   -35.5039 -35.5039 -35.5003 -35.5003 -35.4753 -35.4753 -35.4717 -35.4717
   -35.3932 -35.3932 -35.3596 -35.3596 -34.0446 -34.0446 -34.0409 -34.0409
   -34.0204 -34.0204 -34.0168 -34.0168 -34.0074 -34.0074 -34.0038 -34.0038
   -33.9307 -33.9307 -33.9154 -33.9154 -33.8870 -33.8870 -28.1360 -28.1359
   -28.1323 -28.1322 -28.1276 -28.1275 -28.1239 -28.1238 -26.8967 -26.8967
   -26.8930 -26.8930 -26.8875 -26.8874 -26.8857 -26.8856 -26.8838 -26.8837
   -26.8820 -26.8819 -10.5444 -10.5444 -10.0200 -10.0200  -8.9694  -8.9694
    -6.2760  -6.2760  -5.0114  -5.0113  -0.7055  -0.7043  -0.5643  -0.5612
    -0.1854  -0.1849   0.1116   0.1141   0.3331   0.3337   0.5679   0.5686
     0.9360   0.9363   1.4136   1.4143   1.6811   1.6822   2.5299   2.5309
     2.7950   2.7954   3.1340   3.1343   3.6724   3.6738   4.1173   4.1183
     4.4639   4.4640   6.3490   6.3492   6.4315   6.4317   6.9653   6.9655
     7.2621   7.2623   7.6041   7.6041

          k = 0.0524 0.0919 0.0000 ( 14649 PWs)   bands (ev):

   -35.5039 -35.5039 -35.5003 -35.5003 -35.4753 -35.4753 -35.4717 -35.4717
   -35.3932 -35.3932 -35.3596 -35.3596 -34.0446 -34.0446 -34.0410 -34.0410
   -34.0204 -34.0204 -34.0168 -34.0168 -34.0074 -34.0074 -34.0038 -34.0038
   -33.9307 -33.9307 -33.9154 -33.9154 -33.8870 -33.8870 -28.1360 -28.1360
   -28.1323 -28.1323 -28.1276 -28.1275 -28.1239 -28.1238 -26.8967 -26.8967
   -26.8930 -26.8930 -26.8875 -26.8874 -26.8857 -26.8856 -26.8838 -26.8837
   -26.8820 -26.8819 -10.5578 -10.5578 -10.0322 -10.0322  -8.9767  -8.9767
    -6.2735  -6.2735  -4.9884  -4.9884  -0.6567  -0.6553  -0.5208  -0.5173
    -0.1161  -0.1156   0.1536   0.1561   0.3483   0.3488   0.5928   0.5936
     0.9567   0.9570   1.3693   1.3700   1.6845   1.6856   2.4888   2.4898
     2.7789   2.7794   3.1023   3.1028   3.6245   3.6259   4.1136   4.1146
     4.4199   4.4200   6.3283   6.3284   6.4274   6.4276   6.9767   6.9768
     7.2960   7.2962   7.6016   7.6016

          k = 0.0476 0.0836 0.0000 ( 14653 PWs)   bands (ev):

   -35.5039 -35.5039 -35.5003 -35.5003 -35.4753 -35.4753 -35.4717 -35.4717
   -35.3932 -35.3932 -35.3596 -35.3596 -34.0446 -34.0446 -34.0410 -34.0410
   -34.0204 -34.0204 -34.0168 -34.0168 -34.0074 -34.0074 -34.0038 -34.0038
   -33.9308 -33.9308 -33.9154 -33.9154 -33.8870 -33.8870 -28.1360 -28.1360
   -28.1323 -28.1323 -28.1276 -28.1275 -28.1239 -28.1238 -26.8967 -26.8967
   -26.8930 -26.8930 -26.8874 -26.8874 -26.8857 -26.8856 -26.8838 -26.8837
   -26.8820 -26.8819 -10.5700 -10.5700 -10.0434 -10.0434  -8.9834  -8.9834
    -6.2713  -6.2713  -4.9675  -4.9674  -0.6192  -0.6178  -0.4686  -0.4652
    -0.0485  -0.0481   0.1930   0.1955   0.3633   0.3638   0.6186   0.6195
     0.9763   0.9767   1.3246   1.3252   1.6802   1.6812   2.4472   2.4482
     2.7692   2.7698   3.0689   3.0694   3.5821   3.5833   4.1128   4.1138
     4.3753   4.3754   6.3088   6.3090   6.4235   6.4236   6.9851   6.9852
     7.3317   7.3319   7.6013   7.6013

          k = 0.0429 0.0752 0.0000 ( 14645 PWs)   bands (ev):

   -35.5039 -35.5039 -35.5003 -35.5003 -35.4753 -35.4753 -35.4717 -35.4717
   -35.3932 -35.3932 -35.3596 -35.3596 -34.0446 -34.0446 -34.0410 -34.0410
   -34.0204 -34.0204 -34.0168 -34.0168 -34.0074 -34.0074 -34.0038 -34.0038
   -33.9308 -33.9308 -33.9154 -33.9154 -33.8871 -33.8871 -28.1360 -28.1360
   -28.1323 -28.1323 -28.1275 -28.1275 -28.1239 -28.1238 -26.8967 -26.8967
   -26.8930 -26.8930 -26.8874 -26.8874 -26.8857 -26.8856 -26.8838 -26.8837
   -26.8820 -26.8819 -10.5810 -10.5810 -10.0535 -10.0535  -8.9895  -8.9895
    -6.2695  -6.2695  -4.9485  -4.9485  -0.5911  -0.5900  -0.4104  -0.4073
     0.0172   0.0175   0.2283   0.2306   0.3792   0.3797   0.6447   0.6459
     0.9946   0.9951   1.2812   1.2818   1.6666   1.6676   2.4073   2.4084
     2.7637   2.7644   3.0362   3.0367   3.5448   3.5460   4.1138   4.1147
     4.3312   4.3313   6.2908   6.2909   6.4197   6.4198   6.9908   6.9909
     7.3682   7.3684   7.6026   7.6026

          k = 0.0381 0.0669 0.0000 ( 14647 PWs)   bands (ev):

   -35.5039 -35.5039 -35.5003 -35.5003 -35.4753 -35.4753 -35.4717 -35.4717
   -35.3932 -35.3932 -35.3596 -35.3596 -34.0446 -34.0446 -34.0410 -34.0410
   -34.0204 -34.0204 -34.0168 -34.0168 -34.0074 -34.0074 -34.0038 -34.0038
   -33.9308 -33.9308 -33.9154 -33.9154 -33.8871 -33.8871 -28.1360 -28.1360
   -28.1323 -28.1323 -28.1275 -28.1275 -28.1239 -28.1238 -26.8968 -26.8967
   -26.8930 -26.8930 -26.8874 -26.8874 -26.8857 -26.8856 -26.8838 -26.8837
   -26.8820 -26.8820 -10.5910 -10.5910 -10.0626 -10.0626  -8.9950  -8.9950
    -6.2679  -6.2679  -4.9315  -4.9315  -0.5694  -0.5686  -0.3499  -0.3471
     0.0802   0.0805   0.2585   0.2606   0.3967   0.3972   0.6703   0.6718
     1.0106   1.0113   1.2418   1.2425   1.6436   1.6446   2.3693   2.3703
     2.7607   2.7614   3.0078   3.0084   3.5115   3.5126   4.1153   4.1161
     4.2891   4.2892   6.2743   6.2744   6.4161   6.4161   6.9942   6.9942
     7.4044   7.4045   7.6047   7.6048

          k = 0.0333 0.0585 0.0000 ( 14655 PWs)   bands (ev):

   -35.5039 -35.5039 -35.5003 -35.5003 -35.4753 -35.4753 -35.4717 -35.4717
   -35.3932 -35.3932 -35.3596 -35.3596 -34.0446 -34.0446 -34.0410 -34.0410
   -34.0204 -34.0204 -34.0168 -34.0168 -34.0074 -34.0074 -34.0039 -34.0038
   -33.9308 -33.9308 -33.9154 -33.9154 -33.8871 -33.8871 -28.1360 -28.1360
   -28.1323 -28.1323 -28.1275 -28.1275 -28.1239 -28.1238 -26.8968 -26.8968
   -26.8931 -26.8931 -26.8874 -26.8874 -26.8857 -26.8856 -26.8837 -26.8837
   -26.8820 -26.8820 -10.5997 -10.5997 -10.0706 -10.0706  -8.9999  -8.9999
    -6.2666  -6.2666  -4.9165  -4.9165  -0.5523  -0.5517  -0.2898  -0.2873
     0.1389   0.1390   0.2847   0.2866   0.4158   0.4164   0.6939   0.6956
     1.0213   1.0222   1.2109   1.2117   1.6123   1.6133   2.3317   2.3327
     2.7586   2.7592   2.9878   2.9884   3.4807   3.4816   4.1155   4.1161
     4.2512   4.2514   6.2595   6.2595   6.4128   6.4129   6.9957   6.9958
     7.4389   7.4390   7.6070   7.6071

          k = 0.0286 0.0501 0.0000 ( 14655 PWs)   bands (ev):

   -35.5039 -35.5039 -35.5003 -35.5003 -35.4753 -35.4753 -35.4717 -35.4717
   -35.3932 -35.3932 -35.3596 -35.3596 -34.0446 -34.0446 -34.0410 -34.0410
   -34.0204 -34.0204 -34.0168 -34.0168 -34.0074 -34.0074 -34.0039 -34.0038
   -33.9308 -33.9308 -33.9154 -33.9154 -33.8871 -33.8871 -28.1360 -28.1360
   -28.1323 -28.1323 -28.1275 -28.1275 -28.1239 -28.1238 -26.8968 -26.8968
   -26.8931 -26.8931 -26.8874 -26.8874 -26.8857 -26.8856 -26.8837 -26.8837
   -26.8820 -26.8820 -10.6073 -10.6073 -10.0776 -10.0776  -9.0042  -9.0042
    -6.2656  -6.2655  -4.9035  -4.9035  -0.5386  -0.5381  -0.2321  -0.2298
     0.1882   0.1887   0.3120   0.3135   0.4355   0.4364   0.7134   0.7154
     1.0217   1.0227   1.1950   1.1959   1.5754   1.5763   2.2931   2.2940
     2.7562   2.7568   2.9794   2.9801   3.4507   3.4515   4.1117   4.1122
     4.2208   4.2210   6.2463   6.2464   6.4098   6.4099   6.9959   6.9959
     7.4702   7.4702   7.6088   7.6089

          k = 0.0238 0.0418 0.0000 ( 14660 PWs)   bands (ev):

   -35.5039 -35.5039 -35.5003 -35.5003 -35.4753 -35.4753 -35.4717 -35.4717
   -35.3932 -35.3932 -35.3596 -35.3596 -34.0447 -34.0446 -34.0410 -34.0410
   -34.0204 -34.0204 -34.0168 -34.0168 -34.0074 -34.0074 -34.0039 -34.0038
   -33.9308 -33.9308 -33.9154 -33.9154 -33.8871 -33.8871 -28.1360 -28.1360
   -28.1323 -28.1323 -28.1275 -28.1275 -28.1239 -28.1238 -26.8968 -26.8968
   -26.8931 -26.8931 -26.8874 -26.8874 -26.8857 -26.8856 -26.8837 -26.8837
   -26.8820 -26.8820 -10.6137 -10.6137 -10.0835 -10.0835  -9.0078  -9.0078
    -6.2647  -6.2646  -4.8925  -4.8925  -0.5276  -0.5273  -0.1780  -0.1760
     0.2212   0.2222   0.3480   0.3494   0.4548   0.4558   0.7266   0.7287
     1.0089   1.0099   1.1979   1.1987   1.5363   1.5372   2.2528   2.2537
     2.7528   2.7533   2.9838   2.9846   3.4204   3.4211   4.1013   4.1017
     4.2012   4.2015   6.2350   6.2350   6.4073   6.4074   6.9952   6.9952
     7.4966   7.4967   7.6099   7.6100

          k = 0.0190 0.0334 0.0000 ( 14654 PWs)   bands (ev):

   -35.5039 -35.5039 -35.5003 -35.5003 -35.4753 -35.4753 -35.4717 -35.4717
   -35.3932 -35.3932 -35.3596 -35.3596 -34.0447 -34.0447 -34.0410 -34.0410
   -34.0204 -34.0204 -34.0168 -34.0168 -34.0074 -34.0074 -34.0039 -34.0038
   -33.9308 -33.9308 -33.9154 -33.9154 -33.8871 -33.8871 -28.1360 -28.1360
   -28.1323 -28.1323 -28.1275 -28.1275 -28.1239 -28.1238 -26.8968 -26.8968
   -26.8931 -26.8931 -26.8874 -26.8874 -26.8857 -26.8856 -26.8837 -26.8837
   -26.8820 -26.8820 -10.6190 -10.6190 -10.0883 -10.0883  -9.0108  -9.0108
    -6.2639  -6.2639  -4.8835  -4.8835  -0.5189  -0.5187  -0.1293  -0.1275
     0.2369   0.2381   0.3944   0.3959   0.4728   0.4741   0.7316   0.7337
     0.9876   0.9885   1.2145   1.2152   1.4988   1.4996   2.2122   2.2129
     2.7488   2.7492   2.9995   3.0003   3.3894   3.3900   4.0851   4.0854
     4.1922   4.1924   6.2256   6.2256   6.4052   6.4052   6.9940   6.9940
     7.5172   7.5172   7.6105   7.6106

          k = 0.0143 0.0251 0.0000 ( 14654 PWs)   bands (ev):

   -35.5040 -35.5039 -35.5003 -35.5003 -35.4753 -35.4753 -35.4717 -35.4717
   -35.3932 -35.3932 -35.3596 -35.3596 -34.0447 -34.0447 -34.0410 -34.0410
   -34.0204 -34.0204 -34.0168 -34.0168 -34.0074 -34.0074 -34.0039 -34.0038
   -33.9308 -33.9308 -33.9154 -33.9154 -33.8871 -33.8871 -28.1360 -28.1360
   -28.1323 -28.1323 -28.1275 -28.1275 -28.1239 -28.1238 -26.8968 -26.8968
   -26.8931 -26.8931 -26.8874 -26.8874 -26.8857 -26.8856 -26.8837 -26.8837
   -26.8820 -26.8820 -10.6231 -10.6231 -10.0921 -10.0921  -9.0131  -9.0131
    -6.2634  -6.2634  -4.8765  -4.8765  -0.5124  -0.5123  -0.0874  -0.0859
     0.2413   0.2424   0.4431   0.4448   0.4909   0.4926   0.7270   0.7291
     0.9651   0.9657   1.2363   1.2368   1.4668   1.4675   2.1738   2.1744
     2.7449   2.7452   3.0228   3.0235   3.3583   3.3588   4.0678   4.0679
     4.1895   4.1897   6.2182   6.2182   6.4035   6.4036   6.9927   6.9928
     7.5315   7.5316   7.6109   7.6110

          k = 0.0095 0.0167 0.0000 ( 14658 PWs)   bands (ev):

   -35.5040 -35.5040 -35.5003 -35.5003 -35.4753 -35.4753 -35.4717 -35.4717
   -35.3932 -35.3932 -35.3596 -35.3596 -34.0447 -34.0447 -34.0410 -34.0410
   -34.0204 -34.0204 -34.0168 -34.0168 -34.0074 -34.0074 -34.0039 -34.0039
   -33.9308 -33.9308 -33.9154 -33.9154 -33.8871 -33.8871 -28.1360 -28.1360
   -28.1323 -28.1323 -28.1275 -28.1275 -28.1239 -28.1238 -26.8968 -26.8968
   -26.8931 -26.8931 -26.8874 -26.8874 -26.8857 -26.8856 -26.8837 -26.8837
   -26.8820 -26.8820 -10.6260 -10.6260 -10.0948 -10.0948  -9.0148  -9.0148
    -6.2631  -6.2631  -4.8715  -4.8715  -0.5079  -0.5078  -0.0544  -0.0533
     0.2403   0.2411   0.4784   0.4796   0.5181   0.5198   0.7131   0.7150
     0.9463   0.9468   1.2560   1.2564   1.4434   1.4438   2.1417   2.1421
     2.7418   2.7420   3.0485   3.0490   3.3291   3.3295   4.0533   4.0534
     4.1895   4.1897   6.2128   6.2128   6.4023   6.4023   6.9917   6.9917
     7.5404   7.5404   7.6114   7.6115

          k = 0.0048 0.0084 0.0000 ( 14665 PWs)   bands (ev):

   -35.5040 -35.5040 -35.5003 -35.5003 -35.4753 -35.4753 -35.4717 -35.4717
   -35.3932 -35.3932 -35.3596 -35.3596 -34.0447 -34.0447 -34.0410 -34.0410
   -34.0204 -34.0204 -34.0168 -34.0168 -34.0074 -34.0074 -34.0039 -34.0039
   -33.9308 -33.9308 -33.9154 -33.9154 -33.8871 -33.8871 -28.1360 -28.1360
   -28.1323 -28.1323 -28.1275 -28.1275 -28.1239 -28.1239 -26.8968 -26.8968
   -26.8931 -26.8931 -26.8874 -26.8874 -26.8856 -26.8856 -26.8837 -26.8837
   -26.8820 -26.8820 -10.6277 -10.6277 -10.0964 -10.0964  -9.0158  -9.0158
    -6.2629  -6.2629  -4.8686  -4.8686  -0.5052  -0.5051  -0.0329  -0.0324
     0.2379   0.2384   0.4923   0.4928   0.5544   0.5554   0.6940   0.6953
     0.9343   0.9345   1.2689   1.2691   1.4300   1.4303   2.1201   2.1203
     2.7399   2.7400   3.0698   3.0701   3.3067   3.3069   4.0440   4.0440
     4.1901   4.1902   6.2096   6.2096   6.4016   6.4016   6.9909   6.9909
     7.5450   7.5450   7.6120   7.6120

          k = 0.0000 0.0000 0.0000 ( 14667 PWs)   bands (ev):

   -35.5040 -35.5040 -35.5003 -35.5003 -35.4753 -35.4753 -35.4717 -35.4717
   -35.3932 -35.3932 -35.3596 -35.3596 -34.0447 -34.0447 -34.0410 -34.0410
   -34.0204 -34.0204 -34.0168 -34.0168 -34.0074 -34.0074 -34.0039 -34.0039
   -33.9308 -33.9308 -33.9154 -33.9154 -33.8871 -33.8871 -28.1360 -28.1360
   -28.1323 -28.1323 -28.1275 -28.1275 -28.1239 -28.1239 -26.8968 -26.8968
   -26.8931 -26.8931 -26.8874 -26.8874 -26.8856 -26.8856 -26.8837 -26.8837
   -26.8820 -26.8820 -10.6283 -10.6283 -10.0969 -10.0969  -9.0161  -9.0161
    -6.2628  -6.2628  -4.8676  -4.8676  -0.5043  -0.5043  -0.0252  -0.0252
     0.2369   0.2369   0.4960   0.4960   0.5728   0.5728   0.6835   0.6835
     0.9302   0.9302   1.2733   1.2733   1.4260   1.4260   2.1125   2.1125
     2.7393   2.7393   3.0785   3.0785   3.2980   3.2980   4.0408   4.0408
     4.1905   4.1905   6.2085   6.2085   6.4014   6.4014   6.9907   6.9907
     7.5463   7.5463   7.6122   7.6122

     Writing all to output data dir tmp/Sb2Te3-uatsx-c2-soc-2.0.save/ :
     XML data file, pseudopotentials, collected wavefunctions

     init_run     :      1.16s CPU      1.17s WALL (       1 calls)
     electrons    :   1587.33s CPU    860.24s WALL (       1 calls)

     Called by init_run:
     wfcinit      :      0.00s CPU      0.01s WALL (       1 calls)
     wfcinit:wfcr :     40.54s CPU     21.08s WALL (     211 calls)
     potinit      :      0.51s CPU      0.48s WALL (       1 calls)
     hinit0       :      0.55s CPU      0.57s WALL (       1 calls)

     Called by electrons:
     c_bands      :   1587.31s CPU    860.22s WALL (       1 calls)
     v_of_rho     :      0.05s CPU      0.03s WALL (       1 calls)
     v_h          :      0.01s CPU      0.00s WALL (       1 calls)
     v_xc         :      0.05s CPU      0.03s WALL (       1 calls)

     Called by c_bands:
     init_us_2    :      0.21s CPU      0.18s WALL (     211 calls)
     cegterg      :   1538.88s CPU    832.65s WALL (     665 calls)

     Called by sum_band:

     Called by *egterg:
     cdiaghg      :    252.61s CPU    170.21s WALL (   11099 calls)
     cegterg:over :     99.01s CPU     51.74s WALL (   10888 calls)
     cegterg:upda :     50.54s CPU     23.91s WALL (   10888 calls)
     cegterg:last :     81.84s CPU     41.26s WALL (    5699 calls)
     h_psi        :   1043.33s CPU    537.98s WALL (   11764 calls)
     g_psi        :      5.86s CPU      3.95s WALL (   10888 calls)

     Called by h_psi:
     h_psi:calbec :     56.95s CPU     29.00s WALL (   11764 calls)
     vloc_psi     :    924.27s CPU    470.61s WALL (   11764 calls)
     add_vuspsi   :     59.20s CPU     36.58s WALL (   11764 calls)

     General routines
     calbec       :     56.88s CPU     28.97s WALL (   11764 calls)
     fft          :      0.59s CPU      0.59s WALL (      17 calls)
     ffts         :      0.42s CPU      0.42s WALL (       4 calls)
     fftw         :    674.77s CPU    343.52s WALL ( 2430360 calls)
     interpolate  :      0.43s CPU      0.43s WALL (       4 calls)
     davcio       :      0.26s CPU      0.37s WALL (     422 calls)

     Parallel routines

     PWSCF        :  26m43.69s CPU  16m19.80s WALL


   This run was terminated on:  16: 3:31  14Aug2025            

=------------------------------------------------------------------------------=
   JOB DONE.
=------------------------------------------------------------------------------=
