
     Program PWSCF v.7.3.1 starts on 14May2025 at 23:45: 5 

     This program is part of the open-source Quantum ESPRESSO suite
     for quantum simulation of materials; please cite
         "P. Giannozzi et al., J. Phys.:Condens. Matter 21 395502 (2009);
         "P. Giannozzi et al., J. Phys.:Condens. Matter 29 465901 (2017);
         "P. Giannozzi et al., J. Chem. Phys. 152 154105 (2020);
          URL http://www.quantum-espresso.org", 
     in publications or presentations arising from this work. More details at
     http://www.quantum-espresso.org/quote

     Parallel version (MPI & OpenMP), running on      72 processor cores
     Number of MPI processes:                72
     Threads/MPI process:                     1

     MPI processes distributed on     3 nodes
     93294 MiB available memory on the printing compute node when the environment starts

     Waiting for input...
     Reading input from standard input

     Current dimensions of program PWSCF are:
     Max number of different atomic species (ntypx) = 10
     Max number of k-points (npk) =  40000
     Max angular momentum in pseudopotentials (lmaxx) =  4

     IMPORTANT: XC functional enforced from input :
     Exchange-correlation= B3LYP-V1R
                           (   7  13   9   7   0   0   0)
     EXX-fraction              =        0.20
     Any further DFT definition will be discarded
     Please, verify this is what you really want


     Atomic positions and unit cell read from directory:
     tmp/Sb2Te3-uatsx-c1-3.0.save/

     EXX fraction changed:   0.20

     R & G space division:  proc/nbgrp/npool/nimage =      72
     Subspace diagonalization in iterative solution of the eigenvalue problem:
     a serial algorithm will be used

     EXX: q-point mesh:     1    1    1
     EXX: setup a grid of 85 q-points centered on each k-point
     (k+q)-points:
   0.0000000   0.0000000   0.0000000         1    1
   0.0000000   0.0914887   0.0000000         2    1
   0.0000000   0.1829774   0.0000000         3    1
   0.0000000   0.2744661   0.0000000         4    1
   0.0000000   0.3659548   0.0000000         5    1
   0.0000000   0.4574435   0.0000000         6    1
   0.0000000   0.5489322   0.0000000         7    1
   0.0769231   0.0444120   0.0000000         8    1
   0.0769231   0.1359007   0.0000000         9    1
   0.0769231   0.2273894   0.0000000        10    1
   0.0769231   0.3188781   0.0000000        11    1
   0.0769231   0.4103668   0.0000000        12    1
   0.0769231   0.5018555   0.0000000        13    1
   0.0769231   0.5933442   0.0000000        14    1
   0.0769231  -0.5045202   0.0000000        15    1
   0.0769231  -0.4130315   0.0000000        16    1
   0.0769231  -0.3215428   0.0000000        17    1
   0.0769231  -0.2300541   0.0000000        18    1
   0.0769231  -0.1385654   0.0000000        19    1
   0.0769231  -0.0470767   0.0000000        20    1
   0.1538462   0.0888240   0.0000000        21    1
   0.1538462   0.1803127   0.0000000        22    1
   0.1538462   0.2718014   0.0000000        23    1
   0.1538462   0.3632901   0.0000000        24    1
   0.1538462   0.4547788   0.0000000        25    1
   0.1538462   0.5462675   0.0000000        26    1
   0.1538462   0.6377562   0.0000000        27    1
   0.1538462  -0.4601082   0.0000000        28    1
   0.1538462  -0.3686195   0.0000000        29    1
   0.1538462  -0.2771308   0.0000000        30    1
   0.1538462  -0.1856421   0.0000000        31    1
   0.1538462  -0.0941534   0.0000000        32    1
   0.1538462  -0.0026647   0.0000000        33    1
   0.2307692   0.1332360   0.0000000        34    1
   0.2307692   0.2247247   0.0000000        35    1
   0.2307692   0.3162134   0.0000000        36    1
   0.2307692   0.4077021   0.0000000        37    1
   0.2307692   0.4991908   0.0000000        38    1
   0.2307692   0.5906795   0.0000000        39    1
   0.2307692   0.6821681   0.0000000        40    1
   0.2307692  -0.4156962   0.0000000        41    1
   0.2307692  -0.3242075   0.0000000        42    1
   0.2307692  -0.2327188   0.0000000        43    1
   0.2307692  -0.1412301   0.0000000        44    1
   0.2307692  -0.0497414   0.0000000        45    1
   0.2307692   0.0417473   0.0000000        46    1
   0.3076923   0.1776480   0.0000000        47    1
   0.3076923   0.2691367   0.0000000        48    1
   0.3076923   0.3606253   0.0000000        49    1
   0.3076923   0.4521140   0.0000000        50    1
   0.3076923   0.5436027   0.0000000        51    1
   0.3076923   0.6350914   0.0000000        52    1
   0.3076923   0.7265801   0.0000000        53    1
   0.3076923  -0.3712842   0.0000000        54    1
   0.3076923  -0.2797955   0.0000000        55    1
   0.3076923  -0.1883068   0.0000000        56    1
   0.3076923  -0.0968181   0.0000000        57    1
   0.3076923  -0.0053294   0.0000000        58    1
   0.3076923   0.0861593   0.0000000        59    1
   0.3846154   0.2220599   0.0000000        60    1
   0.3846154   0.3135486   0.0000000        61    1
   0.3846154   0.4050373   0.0000000        62    1
   0.3846154   0.4965260   0.0000000        63    1
   0.3846154   0.5880147   0.0000000        64    1
   0.3846154   0.6795034   0.0000000        65    1
   0.3846154   0.7709921   0.0000000        66    1
   0.3846154  -0.3268722   0.0000000        67    1
   0.3846154  -0.2353835   0.0000000        68    1
   0.3846154  -0.1438948   0.0000000        69    1
   0.3846154  -0.0524061   0.0000000        70    1
   0.3846154   0.0390826   0.0000000        71    1
   0.3846154   0.1305712   0.0000000        72    1
   0.4615385   0.2664719   0.0000000        73    1
   0.4615385   0.3579606   0.0000000        74    1
   0.4615385   0.4494493   0.0000000        75    1
   0.4615385   0.5409380   0.0000000        76    1
   0.4615385   0.6324267   0.0000000        77    1
   0.4615385   0.7239154   0.0000000        78    1
   0.4615385   0.8154041   0.0000000        79    1
   0.4615385  -0.2824602   0.0000000        80    1
   0.4615385  -0.1909716   0.0000000        81    1
   0.4615385  -0.0994829   0.0000000        82    1
   0.4615385  -0.0079942   0.0000000        83    1
   0.4615385   0.0834945   0.0000000        84    1
   0.4615385   0.1749832   0.0000000        85    1

     Parallelization info
     --------------------
     sticks:   dense  smooth     PW     G-vecs:    dense   smooth      PW
     Min          18      18      5                 2714     2714     423
     Max          19      19      6                 2741     2741     448
     Sum        1319    1319    385               196125   196125   31161

     Using Slab Decomposition



     bravais-lattice index     =            0
     lattice parameter (alat)  =       8.3900  a.u.
     unit-cell volume          =    2478.7943 (a.u.)^3
     number of atoms/cell      =            5
     number of atomic types    =            2
     number of electrons       =        78.00
     number of Kohn-Sham states=           60
     kinetic-energy cutoff     =      70.0000  Ry
     charge density cutoff     =     280.0000  Ry
     cutoff for Fock operator  =     280.0000  Ry
     Exchange-correlation= B3LYP-V1R
                           (   7  13   9   7   0   0   0)
     EXX-fraction              =        0.20

     celldm(1)=   8.390002  celldm(2)=   0.000000  celldm(3)=   0.000000
     celldm(4)=   0.000000  celldm(5)=   0.000000  celldm(6)=   0.000000

     crystal axes: (cart. coord. in units of alat)
               a(1) = (   1.000000   0.000000   0.000000 )  
               a(2) = (  -0.485437   0.840793   0.000000 )  
               a(3) = (   0.000000   0.000000   4.991890 )  

     reciprocal axes: (cart. coord. in units 2 pi/alat)
               b(1) = (  1.000000  0.577356 -0.000000 )  
               b(2) = (  0.000000  1.189353  0.000000 )  
               b(3) = (  0.000000 -0.000000  0.200325 )  


     PseudoPot. # 1 for Sb read from file:
     /zfs-home/202401017n/pseudos/Sb_ONCV_PBE-1.2.upf
     MD5 check sum: 0417cd6c0fe8ce4611e2b23135f1abd9
     Pseudo is Norm-conserving, Zval = 15.0
     Generated using ONCVPSP code by D. R. Hamann
     Using radial grid of  602 points,  6 beta functions with: 
                l(1) =   0
                l(2) =   0
                l(3) =   1
                l(4) =   1
                l(5) =   2
                l(6) =   2

     PseudoPot. # 2 for Te read from file:
     /zfs-home/202401017n/pseudos/Te_ONCV_PBE-1.2.upf
     MD5 check sum: dd4de4dac1e38587f63aaf3700bb29d3
     Pseudo is Norm-conserving, Zval = 16.0
     Generated using ONCVPSP code by D. R. Hamann
     Using radial grid of  602 points,  6 beta functions with: 
                l(1) =   0
                l(2) =   0
                l(3) =   1
                l(4) =   1
                l(5) =   2
                l(6) =   2

     atomic species   valence    mass     pseudopotential
     Sb               15.00   121.76000     Sb( 1.00)
     Te               16.00   127.60000     Te( 1.00)

     No symmetry found


                                    s                        frac. trans.

      isym =  1     identity                                     

 cryst.   s( 1) = (     1          0          0      )
                  (     0          1          0      )
                  (     0          0          1      )

 cart.    s( 1) = (  1.0000000  0.0000000  0.0000000 )
                  (  0.0000000  1.0000000  0.0000000 )
                  (  0.0000000  0.0000000  1.0000000 )


   Cartesian axes

     site n.     atom                  positions (alat units)
         1        Sb     tau(   1) = (   0.5867812   0.4172984   2.9417443  )
         2        Te     tau(   2) = (   0.5754457   0.3979752   1.6726131  )
         3        Sb     tau(   3) = (   0.0727921   0.1220272   2.0501240  )
         4        Te     tau(   4) = (   0.0840698   0.1416820   3.3192296  )
         5        Te     tau(   5) = (   0.0870265   0.6902229   2.4959189  )

     -------------------------------------------------
     Parameters for Dispersion (Grimme-D2) Correction:
     -------------------------------------------------
       atom      VdW radius       C_6     

        Sb         3.555       1333.532
        Te         3.575       1101.101

   Crystallographic axes

     site n.     atom                  positions (cryst. coord.)
         1        Sb     tau(   1) = (  0.8277109  0.4963151  0.5893047  )
         2        Te     tau(   2) = (  0.8052190  0.4733330  0.3350661  )
         3        Sb     tau(   3) = (  0.1432452  0.1451335  0.4106909  )
         4        Te     tau(   4) = (  0.1658708  0.1685099  0.6649244  )
         5        Te     tau(   5) = (  0.4855307  0.8209187  0.4999948  )

     number of k points=    85
                       cart. coord. in units 2pi/alat
        k(    1) = (   0.0000000   0.0000000   0.0000000), wk =   0.0118343
        k(    2) = (   0.0000000   0.0914887   0.0000000), wk =   0.0236686
        k(    3) = (   0.0000000   0.1829774   0.0000000), wk =   0.0236686
        k(    4) = (   0.0000000   0.2744661   0.0000000), wk =   0.0236686
        k(    5) = (   0.0000000   0.3659548   0.0000000), wk =   0.0236686
        k(    6) = (   0.0000000   0.4574435   0.0000000), wk =   0.0236686
        k(    7) = (   0.0000000   0.5489322   0.0000000), wk =   0.0236686
        k(    8) = (   0.0769231   0.0444120   0.0000000), wk =   0.0236686
        k(    9) = (   0.0769231   0.1359007   0.0000000), wk =   0.0236686
        k(   10) = (   0.0769231   0.2273894   0.0000000), wk =   0.0236686
        k(   11) = (   0.0769231   0.3188781   0.0000000), wk =   0.0236686
        k(   12) = (   0.0769231   0.4103668   0.0000000), wk =   0.0236686
        k(   13) = (   0.0769231   0.5018555   0.0000000), wk =   0.0236686
        k(   14) = (   0.0769231   0.5933442   0.0000000), wk =   0.0236686
        k(   15) = (   0.0769231  -0.5045202   0.0000000), wk =   0.0236686
        k(   16) = (   0.0769231  -0.4130315   0.0000000), wk =   0.0236686
        k(   17) = (   0.0769231  -0.3215428   0.0000000), wk =   0.0236686
        k(   18) = (   0.0769231  -0.2300541   0.0000000), wk =   0.0236686
        k(   19) = (   0.0769231  -0.1385654   0.0000000), wk =   0.0236686
        k(   20) = (   0.0769231  -0.0470767   0.0000000), wk =   0.0236686
        k(   21) = (   0.1538462   0.0888240   0.0000000), wk =   0.0236686
        k(   22) = (   0.1538462   0.1803127   0.0000000), wk =   0.0236686
        k(   23) = (   0.1538462   0.2718014   0.0000000), wk =   0.0236686
        k(   24) = (   0.1538462   0.3632901   0.0000000), wk =   0.0236686
        k(   25) = (   0.1538462   0.4547788   0.0000000), wk =   0.0236686
        k(   26) = (   0.1538462   0.5462675   0.0000000), wk =   0.0236686
        k(   27) = (   0.1538462   0.6377562   0.0000000), wk =   0.0236686
        k(   28) = (   0.1538462  -0.4601082   0.0000000), wk =   0.0236686
        k(   29) = (   0.1538462  -0.3686195   0.0000000), wk =   0.0236686
        k(   30) = (   0.1538462  -0.2771308   0.0000000), wk =   0.0236686
        k(   31) = (   0.1538462  -0.1856421   0.0000000), wk =   0.0236686
        k(   32) = (   0.1538462  -0.0941534   0.0000000), wk =   0.0236686
        k(   33) = (   0.1538462  -0.0026647   0.0000000), wk =   0.0236686
        k(   34) = (   0.2307692   0.1332360   0.0000000), wk =   0.0236686
        k(   35) = (   0.2307692   0.2247247   0.0000000), wk =   0.0236686
        k(   36) = (   0.2307692   0.3162134   0.0000000), wk =   0.0236686
        k(   37) = (   0.2307692   0.4077021   0.0000000), wk =   0.0236686
        k(   38) = (   0.2307692   0.4991908   0.0000000), wk =   0.0236686
        k(   39) = (   0.2307692   0.5906795   0.0000000), wk =   0.0236686
        k(   40) = (   0.2307692   0.6821681   0.0000000), wk =   0.0236686
        k(   41) = (   0.2307692  -0.4156962   0.0000000), wk =   0.0236686
        k(   42) = (   0.2307692  -0.3242075   0.0000000), wk =   0.0236686
        k(   43) = (   0.2307692  -0.2327188   0.0000000), wk =   0.0236686
        k(   44) = (   0.2307692  -0.1412301   0.0000000), wk =   0.0236686
        k(   45) = (   0.2307692  -0.0497414   0.0000000), wk =   0.0236686
        k(   46) = (   0.2307692   0.0417473   0.0000000), wk =   0.0236686
        k(   47) = (   0.3076923   0.1776480   0.0000000), wk =   0.0236686
        k(   48) = (   0.3076923   0.2691367   0.0000000), wk =   0.0236686
        k(   49) = (   0.3076923   0.3606253   0.0000000), wk =   0.0236686
        k(   50) = (   0.3076923   0.4521140   0.0000000), wk =   0.0236686
        k(   51) = (   0.3076923   0.5436027   0.0000000), wk =   0.0236686
        k(   52) = (   0.3076923   0.6350914   0.0000000), wk =   0.0236686
        k(   53) = (   0.3076923   0.7265801   0.0000000), wk =   0.0236686
        k(   54) = (   0.3076923  -0.3712842   0.0000000), wk =   0.0236686
        k(   55) = (   0.3076923  -0.2797955   0.0000000), wk =   0.0236686
        k(   56) = (   0.3076923  -0.1883068   0.0000000), wk =   0.0236686
        k(   57) = (   0.3076923  -0.0968181   0.0000000), wk =   0.0236686
        k(   58) = (   0.3076923  -0.0053294   0.0000000), wk =   0.0236686
        k(   59) = (   0.3076923   0.0861593   0.0000000), wk =   0.0236686
        k(   60) = (   0.3846154   0.2220599   0.0000000), wk =   0.0236686
        k(   61) = (   0.3846154   0.3135486   0.0000000), wk =   0.0236686
        k(   62) = (   0.3846154   0.4050373   0.0000000), wk =   0.0236686
        k(   63) = (   0.3846154   0.4965260   0.0000000), wk =   0.0236686
        k(   64) = (   0.3846154   0.5880147   0.0000000), wk =   0.0236686
        k(   65) = (   0.3846154   0.6795034   0.0000000), wk =   0.0236686
        k(   66) = (   0.3846154   0.7709921   0.0000000), wk =   0.0236686
        k(   67) = (   0.3846154  -0.3268722   0.0000000), wk =   0.0236686
        k(   68) = (   0.3846154  -0.2353835   0.0000000), wk =   0.0236686
        k(   69) = (   0.3846154  -0.1438948   0.0000000), wk =   0.0236686
        k(   70) = (   0.3846154  -0.0524061   0.0000000), wk =   0.0236686
        k(   71) = (   0.3846154   0.0390826   0.0000000), wk =   0.0236686
        k(   72) = (   0.3846154   0.1305712   0.0000000), wk =   0.0236686
        k(   73) = (   0.4615385   0.2664719   0.0000000), wk =   0.0236686
        k(   74) = (   0.4615385   0.3579606   0.0000000), wk =   0.0236686
        k(   75) = (   0.4615385   0.4494493   0.0000000), wk =   0.0236686
        k(   76) = (   0.4615385   0.5409380   0.0000000), wk =   0.0236686
        k(   77) = (   0.4615385   0.6324267   0.0000000), wk =   0.0236686
        k(   78) = (   0.4615385   0.7239154   0.0000000), wk =   0.0236686
        k(   79) = (   0.4615385   0.8154041   0.0000000), wk =   0.0236686
        k(   80) = (   0.4615385  -0.2824602   0.0000000), wk =   0.0236686
        k(   81) = (   0.4615385  -0.1909716   0.0000000), wk =   0.0236686
        k(   82) = (   0.4615385  -0.0994829   0.0000000), wk =   0.0236686
        k(   83) = (   0.4615385  -0.0079942   0.0000000), wk =   0.0236686
        k(   84) = (   0.4615385   0.0834945   0.0000000), wk =   0.0236686
        k(   85) = (   0.4615385   0.1749832   0.0000000), wk =   0.0236686

                       cryst. coord.
        k(    1) = (   0.0000000   0.0000000   0.0000000), wk =   0.0118343
        k(    2) = (   0.0000000   0.0769231   0.0000000), wk =   0.0236686
        k(    3) = (   0.0000000   0.1538462   0.0000000), wk =   0.0236686
        k(    4) = (   0.0000000   0.2307692   0.0000000), wk =   0.0236686
        k(    5) = (   0.0000000   0.3076923   0.0000000), wk =   0.0236686
        k(    6) = (   0.0000000   0.3846154   0.0000000), wk =   0.0236686
        k(    7) = (   0.0000000   0.4615385   0.0000000), wk =   0.0236686
        k(    8) = (   0.0769231   0.0000000   0.0000000), wk =   0.0236686
        k(    9) = (   0.0769231   0.0769231   0.0000000), wk =   0.0236686
        k(   10) = (   0.0769231   0.1538462   0.0000000), wk =   0.0236686
        k(   11) = (   0.0769231   0.2307692   0.0000000), wk =   0.0236686
        k(   12) = (   0.0769231   0.3076923   0.0000000), wk =   0.0236686
        k(   13) = (   0.0769231   0.3846154   0.0000000), wk =   0.0236686
        k(   14) = (   0.0769231   0.4615385   0.0000000), wk =   0.0236686
        k(   15) = (   0.0769231  -0.4615385   0.0000000), wk =   0.0236686
        k(   16) = (   0.0769231  -0.3846154   0.0000000), wk =   0.0236686
        k(   17) = (   0.0769231  -0.3076923   0.0000000), wk =   0.0236686
        k(   18) = (   0.0769231  -0.2307692   0.0000000), wk =   0.0236686
        k(   19) = (   0.0769231  -0.1538462   0.0000000), wk =   0.0236686
        k(   20) = (   0.0769231  -0.0769231   0.0000000), wk =   0.0236686
        k(   21) = (   0.1538462   0.0000000   0.0000000), wk =   0.0236686
        k(   22) = (   0.1538462   0.0769231   0.0000000), wk =   0.0236686
        k(   23) = (   0.1538462   0.1538462   0.0000000), wk =   0.0236686
        k(   24) = (   0.1538462   0.2307692   0.0000000), wk =   0.0236686
        k(   25) = (   0.1538462   0.3076923   0.0000000), wk =   0.0236686
        k(   26) = (   0.1538462   0.3846154   0.0000000), wk =   0.0236686
        k(   27) = (   0.1538462   0.4615385   0.0000000), wk =   0.0236686
        k(   28) = (   0.1538462  -0.4615385   0.0000000), wk =   0.0236686
        k(   29) = (   0.1538462  -0.3846154   0.0000000), wk =   0.0236686
        k(   30) = (   0.1538462  -0.3076923   0.0000000), wk =   0.0236686
        k(   31) = (   0.1538462  -0.2307692   0.0000000), wk =   0.0236686
        k(   32) = (   0.1538462  -0.1538462   0.0000000), wk =   0.0236686
        k(   33) = (   0.1538462  -0.0769231   0.0000000), wk =   0.0236686
        k(   34) = (   0.2307692  -0.0000000   0.0000000), wk =   0.0236686
        k(   35) = (   0.2307692   0.0769231   0.0000000), wk =   0.0236686
        k(   36) = (   0.2307692   0.1538462   0.0000000), wk =   0.0236686
        k(   37) = (   0.2307692   0.2307692   0.0000000), wk =   0.0236686
        k(   38) = (   0.2307692   0.3076923   0.0000000), wk =   0.0236686
        k(   39) = (   0.2307692   0.3846154   0.0000000), wk =   0.0236686
        k(   40) = (   0.2307692   0.4615385   0.0000000), wk =   0.0236686
        k(   41) = (   0.2307692  -0.4615385   0.0000000), wk =   0.0236686
        k(   42) = (   0.2307692  -0.3846154   0.0000000), wk =   0.0236686
        k(   43) = (   0.2307692  -0.3076923   0.0000000), wk =   0.0236686
        k(   44) = (   0.2307692  -0.2307692   0.0000000), wk =   0.0236686
        k(   45) = (   0.2307692  -0.1538462   0.0000000), wk =   0.0236686
        k(   46) = (   0.2307692  -0.0769231   0.0000000), wk =   0.0236686
        k(   47) = (   0.3076923   0.0000000   0.0000000), wk =   0.0236686
        k(   48) = (   0.3076923   0.0769231   0.0000000), wk =   0.0236686
        k(   49) = (   0.3076923   0.1538462   0.0000000), wk =   0.0236686
        k(   50) = (   0.3076923   0.2307692   0.0000000), wk =   0.0236686
        k(   51) = (   0.3076923   0.3076923   0.0000000), wk =   0.0236686
        k(   52) = (   0.3076923   0.3846154   0.0000000), wk =   0.0236686
        k(   53) = (   0.3076923   0.4615385   0.0000000), wk =   0.0236686
        k(   54) = (   0.3076923  -0.4615385   0.0000000), wk =   0.0236686
        k(   55) = (   0.3076923  -0.3846154   0.0000000), wk =   0.0236686
        k(   56) = (   0.3076923  -0.3076923   0.0000000), wk =   0.0236686
        k(   57) = (   0.3076923  -0.2307692   0.0000000), wk =   0.0236686
        k(   58) = (   0.3076923  -0.1538462   0.0000000), wk =   0.0236686
        k(   59) = (   0.3076923  -0.0769231   0.0000000), wk =   0.0236686
        k(   60) = (   0.3846154  -0.0000000   0.0000000), wk =   0.0236686
        k(   61) = (   0.3846154   0.0769231   0.0000000), wk =   0.0236686
        k(   62) = (   0.3846154   0.1538462   0.0000000), wk =   0.0236686
        k(   63) = (   0.3846154   0.2307692   0.0000000), wk =   0.0236686
        k(   64) = (   0.3846154   0.3076923   0.0000000), wk =   0.0236686
        k(   65) = (   0.3846154   0.3846154   0.0000000), wk =   0.0236686
        k(   66) = (   0.3846154   0.4615385   0.0000000), wk =   0.0236686
        k(   67) = (   0.3846154  -0.4615385   0.0000000), wk =   0.0236686
        k(   68) = (   0.3846154  -0.3846154   0.0000000), wk =   0.0236686
        k(   69) = (   0.3846154  -0.3076923   0.0000000), wk =   0.0236686
        k(   70) = (   0.3846154  -0.2307692   0.0000000), wk =   0.0236686
        k(   71) = (   0.3846154  -0.1538462   0.0000000), wk =   0.0236686
        k(   72) = (   0.3846154  -0.0769231   0.0000000), wk =   0.0236686
        k(   73) = (   0.4615385  -0.0000000   0.0000000), wk =   0.0236686
        k(   74) = (   0.4615385   0.0769231   0.0000000), wk =   0.0236686
        k(   75) = (   0.4615385   0.1538462   0.0000000), wk =   0.0236686
        k(   76) = (   0.4615385   0.2307692   0.0000000), wk =   0.0236686
        k(   77) = (   0.4615385   0.3076923   0.0000000), wk =   0.0236686
        k(   78) = (   0.4615385   0.3846154   0.0000000), wk =   0.0236686
        k(   79) = (   0.4615385   0.4615385   0.0000000), wk =   0.0236686
        k(   80) = (   0.4615385  -0.4615385   0.0000000), wk =   0.0236686
        k(   81) = (   0.4615385  -0.3846154   0.0000000), wk =   0.0236686
        k(   82) = (   0.4615385  -0.3076923   0.0000000), wk =   0.0236686
        k(   83) = (   0.4615385  -0.2307692   0.0000000), wk =   0.0236686
        k(   84) = (   0.4615385  -0.1538462   0.0000000), wk =   0.0236686
        k(   85) = (   0.4615385  -0.0769231   0.0000000), wk =   0.0236686

     Dense  grid:   196125 G-vectors     FFT dimensions: (  45,  45, 225)

     Dynamical RAM for                 wfc:       0.31 MB

     Dynamical RAM for     wfc (w. buffer):       0.31 MB

     Dynamical RAM for                 EXX:     462.48 MB

     Dynamical RAM for           str. fact:       0.08 MB

     Dynamical RAM for           local pot:       0.00 MB

     Dynamical RAM for          nlocal pot:       0.47 MB

     Dynamical RAM for                qrad:       2.85 MB

     Dynamical RAM for          rho,v,vnew:       0.31 MB

     Dynamical RAM for           G-vectors:       0.18 MB

     Dynamical RAM for          h,s,v(r/c):       0.66 MB

     Dynamical RAM for          <psi|beta>:       0.08 MB

     Dynamical RAM for                 psi:       0.62 MB

     Dynamical RAM for                hpsi:       0.62 MB

     Dynamical RAM for      wfcinit/wfcrot:       0.71 MB

     Estimated static dynamical RAM per process >     467.11 MB

     Estimated max dynamical RAM per process >     469.10 MB

     Estimated total dynamical RAM >      32.98 GB
     EXX: initializing ACE and reading from file
     ACE potential read for       60 bands
     ACE potential read for       60 bands
     ACE potential read for       60 bands
     ACE potential read for       60 bands
     ACE potential read for       60 bands
     ACE potential read for       60 bands
     ACE potential read for       60 bands
     ACE potential read for       60 bands
     ACE potential read for       60 bands
     ACE potential read for       60 bands
     ACE potential read for       60 bands
     ACE potential read for       60 bands
     ACE potential read for       60 bands
     ACE potential read for       60 bands
     ACE potential read for       60 bands
     ACE potential read for       60 bands
     ACE potential read for       60 bands
     ACE potential read for       60 bands
     ACE potential read for       60 bands
     ACE potential read for       60 bands
     ACE potential read for       60 bands
     ACE potential read for       60 bands
     ACE potential read for       60 bands
     ACE potential read for       60 bands
     ACE potential read for       60 bands
     ACE potential read for       60 bands
     ACE potential read for       60 bands
     ACE potential read for       60 bands
     ACE potential read for       60 bands
     ACE potential read for       60 bands
     ACE potential read for       60 bands
     ACE potential read for       60 bands
     ACE potential read for       60 bands
     ACE potential read for       60 bands
     ACE potential read for       60 bands
     ACE potential read for       60 bands
     ACE potential read for       60 bands
     ACE potential read for       60 bands
     ACE potential read for       60 bands
     ACE potential read for       60 bands
     ACE potential read for       60 bands
     ACE potential read for       60 bands
     ACE potential read for       60 bands
     ACE potential read for       60 bands
     ACE potential read for       60 bands
     ACE potential read for       60 bands
     ACE potential read for       60 bands
     ACE potential read for       60 bands
     ACE potential read for       60 bands
     ACE potential read for       60 bands
     ACE potential read for       60 bands
     ACE potential read for       60 bands
     ACE potential read for       60 bands
     ACE potential read for       60 bands
     ACE potential read for       60 bands
     ACE potential read for       60 bands
     ACE potential read for       60 bands
     ACE potential read for       60 bands
     ACE potential read for       60 bands
     ACE potential read for       60 bands
     ACE potential read for       60 bands
     ACE potential read for       60 bands
     ACE potential read for       60 bands
     ACE potential read for       60 bands
     ACE potential read for       60 bands
     ACE potential read for       60 bands
     ACE potential read for       60 bands
     ACE potential read for       60 bands
     ACE potential read for       60 bands
     ACE potential read for       60 bands
     ACE potential read for       60 bands
     ACE potential read for       60 bands
     ACE potential read for       60 bands
     ACE potential read for       60 bands
     ACE potential read for       60 bands
     ACE potential read for       60 bands
     ACE potential read for       60 bands
     ACE potential read for       60 bands
     ACE potential read for       60 bands
     ACE potential read for       60 bands
     ACE potential read for       60 bands
     ACE potential read for       60 bands
     ACE potential read for       60 bands
     ACE potential read for       60 bands
     ACE potential read for       60 bands
     Starting ACE correctly read from file

     The potential is recalculated from file :
     tmp/Sb2Te3-uatsx-c1-3.0.save/charge-density

     Starting wfcs are random

     Band Structure Calculation
     Davidson diagonalization with overlap

     Computing kpt #:     1  of    85
     total cpu time spent up to now is       13.2 secs

     Computing kpt #:     2  of    85
     total cpu time spent up to now is       14.5 secs

     Computing kpt #:     3  of    85
     total cpu time spent up to now is       15.8 secs

     Computing kpt #:     4  of    85
     total cpu time spent up to now is       17.1 secs

     Computing kpt #:     5  of    85
     total cpu time spent up to now is       18.4 secs

     Computing kpt #:     6  of    85
     total cpu time spent up to now is       20.0 secs

     Computing kpt #:     7  of    85
     total cpu time spent up to now is       21.4 secs

     Computing kpt #:     8  of    85
     total cpu time spent up to now is       22.7 secs

     Computing kpt #:     9  of    85
     total cpu time spent up to now is       24.0 secs

     Computing kpt #:    10  of    85
     total cpu time spent up to now is       25.4 secs

     Computing kpt #:    11  of    85
     total cpu time spent up to now is       26.7 secs

     Computing kpt #:    12  of    85
     total cpu time spent up to now is       28.2 secs

     Computing kpt #:    13  of    85
     total cpu time spent up to now is       29.6 secs

     Computing kpt #:    14  of    85
     total cpu time spent up to now is       31.0 secs

     Computing kpt #:    15  of    85
     total cpu time spent up to now is       32.4 secs

     Computing kpt #:    16  of    85
     total cpu time spent up to now is       33.9 secs

     Computing kpt #:    17  of    85
     total cpu time spent up to now is       35.3 secs

     Computing kpt #:    18  of    85
     total cpu time spent up to now is       36.7 secs

     Computing kpt #:    19  of    85
     total cpu time spent up to now is       38.0 secs

     Computing kpt #:    20  of    85
     total cpu time spent up to now is       39.4 secs

     Computing kpt #:    21  of    85
     total cpu time spent up to now is       40.8 secs

     Computing kpt #:    22  of    85
     total cpu time spent up to now is       42.1 secs

     Computing kpt #:    23  of    85
     total cpu time spent up to now is       43.4 secs

     Computing kpt #:    24  of    85
     total cpu time spent up to now is       45.2 secs

     Computing kpt #:    25  of    85
     total cpu time spent up to now is       46.5 secs

     Computing kpt #:    26  of    85
     total cpu time spent up to now is       47.9 secs

     Computing kpt #:    27  of    85
     total cpu time spent up to now is       49.2 secs

     Computing kpt #:    28  of    85
     total cpu time spent up to now is       50.6 secs

     Computing kpt #:    29  of    85
     total cpu time spent up to now is       52.0 secs

     Computing kpt #:    30  of    85
     total cpu time spent up to now is       53.3 secs

     Computing kpt #:    31  of    85
     total cpu time spent up to now is       54.7 secs

     Computing kpt #:    32  of    85
     total cpu time spent up to now is       55.9 secs

     Computing kpt #:    33  of    85
     total cpu time spent up to now is       57.3 secs

     Computing kpt #:    34  of    85
     total cpu time spent up to now is       58.7 secs

     Computing kpt #:    35  of    85
     total cpu time spent up to now is       60.1 secs

     Computing kpt #:    36  of    85
     total cpu time spent up to now is       61.5 secs

     Computing kpt #:    37  of    85
     total cpu time spent up to now is       62.9 secs

     Computing kpt #:    38  of    85
     total cpu time spent up to now is       64.2 secs

     Computing kpt #:    39  of    85
     total cpu time spent up to now is       66.1 secs

     Computing kpt #:    40  of    85
     total cpu time spent up to now is       67.4 secs

     Computing kpt #:    41  of    85
     total cpu time spent up to now is       68.7 secs

     Computing kpt #:    42  of    85
     total cpu time spent up to now is       70.5 secs

     Computing kpt #:    43  of    85
     total cpu time spent up to now is       71.9 secs

     Computing kpt #:    44  of    85
     total cpu time spent up to now is       73.2 secs

     Computing kpt #:    45  of    85
     total cpu time spent up to now is       74.6 secs

     Computing kpt #:    46  of    85
     total cpu time spent up to now is       76.0 secs

     Computing kpt #:    47  of    85
     total cpu time spent up to now is       77.3 secs

     Computing kpt #:    48  of    85
     total cpu time spent up to now is       78.5 secs

     Computing kpt #:    49  of    85
     total cpu time spent up to now is       79.8 secs

     Computing kpt #:    50  of    85
     total cpu time spent up to now is       81.1 secs

     Computing kpt #:    51  of    85
     total cpu time spent up to now is       82.5 secs

     Computing kpt #:    52  of    85
     total cpu time spent up to now is       83.9 secs

     Computing kpt #:    53  of    85
     total cpu time spent up to now is       85.2 secs

     Computing kpt #:    54  of    85
     total cpu time spent up to now is       86.5 secs

     Computing kpt #:    55  of    85
     total cpu time spent up to now is       87.9 secs

     Computing kpt #:    56  of    85
     total cpu time spent up to now is       89.2 secs

     Computing kpt #:    57  of    85
     total cpu time spent up to now is       90.4 secs

     Computing kpt #:    58  of    85
     total cpu time spent up to now is       91.8 secs

     Computing kpt #:    59  of    85
     total cpu time spent up to now is       93.2 secs

     Computing kpt #:    60  of    85
     total cpu time spent up to now is       94.6 secs

     Computing kpt #:    61  of    85
     total cpu time spent up to now is       96.1 secs

     Computing kpt #:    62  of    85
     total cpu time spent up to now is       97.7 secs

     Computing kpt #:    63  of    85
     total cpu time spent up to now is       99.1 secs

     Computing kpt #:    64  of    85
     total cpu time spent up to now is      100.5 secs

     Computing kpt #:    65  of    85
     total cpu time spent up to now is      101.8 secs

     Computing kpt #:    66  of    85
     total cpu time spent up to now is      103.3 secs

     Computing kpt #:    67  of    85
     total cpu time spent up to now is      104.7 secs

     Computing kpt #:    68  of    85
     total cpu time spent up to now is      106.0 secs

     Computing kpt #:    69  of    85
     total cpu time spent up to now is      107.6 secs

     Computing kpt #:    70  of    85
     total cpu time spent up to now is      109.1 secs

     Computing kpt #:    71  of    85
     total cpu time spent up to now is      110.5 secs

     Computing kpt #:    72  of    85
     total cpu time spent up to now is      111.9 secs

     Computing kpt #:    73  of    85
     total cpu time spent up to now is      113.3 secs

     Computing kpt #:    74  of    85
     total cpu time spent up to now is      114.7 secs

     Computing kpt #:    75  of    85
     total cpu time spent up to now is      116.3 secs

     Computing kpt #:    76  of    85
     total cpu time spent up to now is      117.8 secs

     Computing kpt #:    77  of    85
     total cpu time spent up to now is      119.1 secs

     Computing kpt #:    78  of    85
     total cpu time spent up to now is      120.8 secs

     Computing kpt #:    79  of    85
     total cpu time spent up to now is      122.3 secs

     Computing kpt #:    80  of    85
     total cpu time spent up to now is      123.7 secs

     Computing kpt #:    81  of    85
     total cpu time spent up to now is      125.0 secs

     Computing kpt #:    82  of    85
     total cpu time spent up to now is      126.4 secs

     Computing kpt #:    83  of    85
     total cpu time spent up to now is      127.9 secs

     Computing kpt #:    84  of    85
     total cpu time spent up to now is      129.2 secs

     Computing kpt #:    85  of    85
     total cpu time spent up to now is      130.6 secs

     ethr =  1.28E-09,  avg # of iterations = 45.4

     total cpu time spent up to now is      131.9 secs

     End of band structure calculation

          k = 0.0000 0.0000 0.0000 ( 24437 PWs)   bands (ev):

   -35.6980 -35.6941 -35.6912 -35.6876 -35.6721 -35.6685 -35.6640 -35.6602
   -35.6436 -35.6399 -35.2679 -35.2636 -35.2444 -35.2389 -35.2353 -28.6424
   -28.6412 -28.6402 -28.6391 -28.6026 -28.6007 -28.5985 -28.5966 -28.5659
   -28.5641 -12.1856 -11.7177 -10.4748  -7.6357  -6.2613  -1.1361  -0.9240
    -0.8086  -0.7851  -0.6322  -0.0983   0.2320   0.3534   0.6168   2.4033
     2.9184   3.0218   4.1426   4.2431   4.3870   6.5021   6.7355   7.5377
     8.2294   8.6007   8.8164   9.0040   9.5160   9.5970   9.8446  10.2661
    10.6305  10.7246  10.8636  10.9309

     occupation numbers 
     1.0000   1.0000   1.0000   1.0000   1.0000   1.0000   1.0000   1.0000
     1.0000   1.0000   1.0000   1.0000   1.0000   1.0000   1.0000   1.0000
     1.0000   1.0000   1.0000   1.0000   1.0000   1.0000   1.0000   1.0000
     1.0000   1.0000   1.0000   1.0000   1.0000   1.0000   1.0000   1.0000
     1.0000   1.0000   1.0000   1.0000   1.0000   1.0000   1.0000   0.0000
     0.0000   0.0000   0.0000   0.0000   0.0000   0.0000   0.0000   0.0000
     0.0000   0.0000   0.0000   0.0000   0.0000   0.0000   0.0000   0.0000
     0.0000   0.0000   0.0000   0.0000

          k = 0.0000 0.0915 0.0000 ( 24432 PWs)   bands (ev):

   -35.6967 -35.6934 -35.6929 -35.6898 -35.6678 -35.6642 -35.6641 -35.6606
   -35.6379 -35.6342 -35.2736 -35.2624 -35.2485 -35.2310 -35.2237 -28.6357
   -28.6344 -28.6336 -28.6323 -28.6035 -28.6016 -28.5978 -28.5958 -28.5694
   -28.5676 -12.1221 -11.6561 -10.4422  -7.6644  -6.3711  -1.4251  -1.2905
    -1.0408  -0.8703  -0.7483  -0.3253   0.3103   0.4492   1.0023   2.5138
     2.9981   3.1126   4.0975   4.3347   4.6698   6.5859   6.7870   7.6309
     8.1320   8.5019   8.7287   8.9921   9.5142   9.7081   9.8534  10.0823
    10.5667  10.9143  11.0929  11.4641

     occupation numbers 
     1.0000   1.0000   1.0000   1.0000   1.0000   1.0000   1.0000   1.0000
     1.0000   1.0000   1.0000   1.0000   1.0000   1.0000   1.0000   1.0000
     1.0000   1.0000   1.0000   1.0000   1.0000   1.0000   1.0000   1.0000
     1.0000   1.0000   1.0000   1.0000   1.0000   1.0000   1.0000   1.0000
     1.0000   1.0000   1.0000   1.0000   1.0000   1.0000   1.0000   0.0000
     0.0000   0.0000   0.0000   0.0000   0.0000   0.0000   0.0000   0.0000
     0.0000   0.0000   0.0000   0.0000   0.0000   0.0000   0.0000   0.0000
     0.0000   0.0000   0.0000   0.0000

          k = 0.0000 0.1830 0.0000 ( 24476 PWs)   bands (ev):

   -35.6846 -35.6819 -35.6810 -35.6782 -35.6508 -35.6472 -35.6451 -35.6413
   -35.6199 -35.6162 -35.2693 -35.2563 -35.2447 -35.2269 -35.2198 -28.6309
   -28.6288 -28.6262 -28.6241 -28.6057 -28.6038 -28.5958 -28.5939 -28.5801
   -28.5783 -11.9427 -11.4646 -10.3431  -7.7450  -6.6573  -2.2328  -1.6590
    -1.4722  -1.2080  -1.0935  -0.6080   0.3846   0.6859   1.0975   2.6844
     3.1886   3.4322   4.3420   4.5988   5.1169   6.7994   6.9359   7.6930
     7.9048   8.3712   9.0110   9.0796   9.4507   9.6454  10.0446  10.3222
    10.3488  11.1055  11.5600  11.7156

     occupation numbers 
     1.0000   1.0000   1.0000   1.0000   1.0000   1.0000   1.0000   1.0000
     1.0000   1.0000   1.0000   1.0000   1.0000   1.0000   1.0000   1.0000
     1.0000   1.0000   1.0000   1.0000   1.0000   1.0000   1.0000   1.0000
     1.0000   1.0000   1.0000   1.0000   1.0000   1.0000   1.0000   1.0000
     1.0000   1.0000   1.0000   1.0000   1.0000   1.0000   1.0000   0.0000
     0.0000   0.0000   0.0000   0.0000   0.0000   0.0000   0.0000   0.0000
     0.0000   0.0000   0.0000   0.0000   0.0000   0.0000   0.0000   0.0000
     0.0000   0.0000   0.0000   0.0000

          k = 0.0000 0.2745 0.0000 ( 24510 PWs)   bands (ev):

   -35.6778 -35.6743 -35.6735 -35.6698 -35.6407 -35.6371 -35.6336 -35.6297
   -35.6098 -35.6062 -35.2584 -35.2436 -35.2326 -35.2153 -35.2084 -28.6280
   -28.6257 -28.6193 -28.6172 -28.6050 -28.6031 -28.5953 -28.5933 -28.5796
   -28.5776 -11.6711 -11.2243 -10.2075  -7.8745  -7.0736  -2.9450  -2.0241
    -1.9984  -1.5662  -1.3737  -0.6176   0.1439   0.3685   1.2084   2.7544
     3.3602   3.7821   4.6853   4.9123   5.5954   6.9107   7.1154   7.5396
     8.1610   8.6020   9.1776   9.4513   9.5099   9.6373  10.4864  10.5298
    10.6782  11.2503  11.3480  12.2169

     occupation numbers 
     1.0000   1.0000   1.0000   1.0000   1.0000   1.0000   1.0000   1.0000
     1.0000   1.0000   1.0000   1.0000   1.0000   1.0000   1.0000   1.0000
     1.0000   1.0000   1.0000   1.0000   1.0000   1.0000   1.0000   1.0000
     1.0000   1.0000   1.0000   1.0000   1.0000   1.0000   1.0000   1.0000
     1.0000   1.0000   1.0000   1.0000   1.0000   1.0000   1.0000   0.0000
     0.0000   0.0000   0.0000   0.0000   0.0000   0.0000   0.0000   0.0000
     0.0000   0.0000   0.0000   0.0000   0.0000   0.0000   0.0000   0.0000
     0.0000   0.0000   0.0000   0.0000

          k = 0.0000 0.3660 0.0000 ( 24538 PWs)   bands (ev):

   -35.6708 -35.6673 -35.6654 -35.6617 -35.6318 -35.6283 -35.6230 -35.6191
   -35.5993 -35.5956 -35.2519 -35.2373 -35.2194 -35.2007 -35.1914 -28.6280
   -28.6257 -28.6159 -28.6139 -28.6051 -28.6033 -28.5988 -28.5968 -28.5803
   -28.5784 -11.3185 -10.9256 -10.0766  -8.1197  -7.5411  -3.5021  -2.4417
    -2.3243  -1.7561  -1.6239  -0.8970   0.0505   0.3002   0.9657   2.8228
     3.4645   3.8133   4.9206   5.2065   6.0533   6.6045   7.5439   7.7579
     8.4505   8.8561   9.3282   9.7520  10.0185  10.2691  10.7660  10.8751
    11.0608  11.2600  11.6650  11.7907

     occupation numbers 
     1.0000   1.0000   1.0000   1.0000   1.0000   1.0000   1.0000   1.0000
     1.0000   1.0000   1.0000   1.0000   1.0000   1.0000   1.0000   1.0000
     1.0000   1.0000   1.0000   1.0000   1.0000   1.0000   1.0000   1.0000
     1.0000   1.0000   1.0000   1.0000   1.0000   1.0000   1.0000   1.0000
     1.0000   1.0000   1.0000   1.0000   1.0000   1.0000   1.0000   0.0000
     0.0000   0.0000   0.0000   0.0000   0.0000   0.0000   0.0000   0.0000
     0.0000   0.0000   0.0000   0.0000   0.0000   0.0000   0.0000   0.0000
     0.0000   0.0000   0.0000   0.0000

          k = 0.0000 0.4574 0.0000 ( 24542 PWs)   bands (ev):

   -35.6639 -35.6604 -35.6579 -35.6542 -35.6299 -35.6264 -35.6175 -35.6136
   -35.5969 -35.5932 -35.2502 -35.2368 -35.2143 -35.1927 -35.1819 -28.6266
   -28.6242 -28.6131 -28.6111 -28.6039 -28.6020 -28.5976 -28.5956 -28.5788
   -28.5769 -10.9145 -10.6145 -10.0336  -8.4577  -7.9414  -3.8819  -2.6535
    -2.5344  -1.9926  -1.8084  -1.1164   0.1270   0.2251   0.6727   2.8164
     3.5012   3.7192   5.0886   5.4161   6.1918   6.4575   7.8072   8.1825
     8.7255   9.2071   9.8215  10.0001  10.1824  10.7434  10.9069  11.2612
    11.2668  11.5913  11.6196  11.9019

     occupation numbers 
     1.0000   1.0000   1.0000   1.0000   1.0000   1.0000   1.0000   1.0000
     1.0000   1.0000   1.0000   1.0000   1.0000   1.0000   1.0000   1.0000
     1.0000   1.0000   1.0000   1.0000   1.0000   1.0000   1.0000   1.0000
     1.0000   1.0000   1.0000   1.0000   1.0000   1.0000   1.0000   1.0000
     1.0000   1.0000   1.0000   1.0000   1.0000   1.0000   1.0000   0.0000
     0.0000   0.0000   0.0000   0.0000   0.0000   0.0000   0.0000   0.0000
     0.0000   0.0000   0.0000   0.0000   0.0000   0.0000   0.0000   0.0000
     0.0000   0.0000   0.0000   0.0000

          k = 0.0000 0.5489 0.0000 ( 24555 PWs)   bands (ev):

   -35.6600 -35.6566 -35.6538 -35.6502 -35.6305 -35.6270 -35.6150 -35.6111
   -35.5987 -35.5950 -35.2505 -35.2382 -35.2135 -35.1895 -35.1782 -28.6246
   -28.6223 -28.6112 -28.6092 -28.6024 -28.6006 -28.5949 -28.5930 -28.5763
   -28.5744 -10.5134 -10.3882 -10.1558  -8.7269  -8.1789  -4.0785  -2.6635
    -2.6411  -2.2396  -1.9047  -1.1692   0.1648   0.1802   0.5070   2.7448
     3.5079   3.7130   5.1201   5.5189   6.1854   6.3869   7.9648   8.7726
     9.0691   9.3954   9.6489   9.8077  10.3569  10.4829  10.9875  11.5511
    11.6794  11.9764  12.1040  12.3851

     occupation numbers 
     1.0000   1.0000   1.0000   1.0000   1.0000   1.0000   1.0000   1.0000
     1.0000   1.0000   1.0000   1.0000   1.0000   1.0000   1.0000   1.0000
     1.0000   1.0000   1.0000   1.0000   1.0000   1.0000   1.0000   1.0000
     1.0000   1.0000   1.0000   1.0000   1.0000   1.0000   1.0000   1.0000
     1.0000   1.0000   1.0000   1.0000   1.0000   1.0000   1.0000   0.0000
     0.0000   0.0000   0.0000   0.0000   0.0000   0.0000   0.0000   0.0000
     0.0000   0.0000   0.0000   0.0000   0.0000   0.0000   0.0000   0.0000
     0.0000   0.0000   0.0000   0.0000

          k = 0.0769 0.0444 0.0000 ( 24447 PWs)   bands (ev):

   -35.7000 -35.6961 -35.6917 -35.6881 -35.6717 -35.6681 -35.6589 -35.6551
   -35.6380 -35.6343 -35.2685 -35.2632 -35.2497 -35.2320 -35.2282 -28.6364
   -28.6349 -28.6342 -28.6328 -28.6079 -28.6059 -28.5951 -28.5932 -28.5709
   -28.5691 -12.1257 -11.6603 -10.4452  -7.6687  -6.3832  -1.5140  -1.2935
    -1.0725  -0.7527  -0.6842  -0.3494   0.4103   0.4490   0.9663   2.6549
     2.8758   3.1007   4.2097   4.3147   4.5775   6.5814   6.7817   7.6296
     8.1086   8.3508   8.9463   9.0712   9.4340   9.6285   9.8429  10.2123
    10.6097  10.9638  11.0681  11.2889

     occupation numbers 
     1.0000   1.0000   1.0000   1.0000   1.0000   1.0000   1.0000   1.0000
     1.0000   1.0000   1.0000   1.0000   1.0000   1.0000   1.0000   1.0000
     1.0000   1.0000   1.0000   1.0000   1.0000   1.0000   1.0000   1.0000
     1.0000   1.0000   1.0000   1.0000   1.0000   1.0000   1.0000   1.0000
     1.0000   1.0000   1.0000   1.0000   1.0000   1.0000   1.0000   0.0000
     0.0000   0.0000   0.0000   0.0000   0.0000   0.0000   0.0000   0.0000
     0.0000   0.0000   0.0000   0.0000   0.0000   0.0000   0.0000   0.0000
     0.0000   0.0000   0.0000   0.0000

          k = 0.0769 0.1359 0.0000 ( 24471 PWs)   bands (ev):

   -35.6985 -35.6948 -35.6826 -35.6790 -35.6594 -35.6557 -35.6498 -35.6460
   -35.6274 -35.6237 -35.2690 -35.2604 -35.2546 -35.2228 -35.2220 -28.6322
   -28.6302 -28.6264 -28.6243 -28.6073 -28.6054 -28.5936 -28.5917 -28.5761
   -28.5742 -12.0060 -11.5342 -10.3821  -7.7259  -6.5815  -2.0157  -1.6220
    -1.4030  -1.1601  -0.7177  -0.5222   0.2009   0.9286   1.0421   2.8334
     2.9860   3.2995   4.3386   4.4866   4.9231   6.7298   6.8866   7.7951
     7.9444   8.1064   9.0532   9.1713   9.4159   9.6541   9.8388  10.1957
    10.6984  11.1001  11.3613  11.6679

     occupation numbers 
     1.0000   1.0000   1.0000   1.0000   1.0000   1.0000   1.0000   1.0000
     1.0000   1.0000   1.0000   1.0000   1.0000   1.0000   1.0000   1.0000
     1.0000   1.0000   1.0000   1.0000   1.0000   1.0000   1.0000   1.0000
     1.0000   1.0000   1.0000   1.0000   1.0000   1.0000   1.0000   1.0000
     1.0000   1.0000   1.0000   1.0000   1.0000   1.0000   1.0000   0.0000
     0.0000   0.0000   0.0000   0.0000   0.0000   0.0000   0.0000   0.0000
     0.0000   0.0000   0.0000   0.0000   0.0000   0.0000   0.0000   0.0000
     0.0000   0.0000   0.0000   0.0000

          k = 0.0769 0.2274 0.0000 ( 24488 PWs)   bands (ev):

   -35.6831 -35.6795 -35.6771 -35.6735 -35.6432 -35.6396 -35.6392 -35.6352
   -35.6136 -35.6099 -35.2613 -35.2483 -35.2458 -35.2160 -35.2150 -28.6296
   -28.6276 -28.6199 -28.6178 -28.6031 -28.6012 -28.5954 -28.5935 -28.5834
   -28.5815 -11.7829 -11.3233 -10.2642  -7.8249  -6.9342  -2.5965  -2.2175
    -1.6455  -1.5586  -1.0817  -0.7027   0.2131   0.6962   1.2105   2.9755
     3.1003   3.6799   4.5460   4.9026   5.3707   6.9809   7.0481   7.6223
     8.0279   8.1575   9.1979   9.3393   9.4063   9.6374  10.2058  10.4747
    10.7764  11.1446  11.6608  11.8934

     occupation numbers 
     1.0000   1.0000   1.0000   1.0000   1.0000   1.0000   1.0000   1.0000
     1.0000   1.0000   1.0000   1.0000   1.0000   1.0000   1.0000   1.0000
     1.0000   1.0000   1.0000   1.0000   1.0000   1.0000   1.0000   1.0000
     1.0000   1.0000   1.0000   1.0000   1.0000   1.0000   1.0000   1.0000
     1.0000   1.0000   1.0000   1.0000   1.0000   1.0000   1.0000   0.0000
     0.0000   0.0000   0.0000   0.0000   0.0000   0.0000   0.0000   0.0000
     0.0000   0.0000   0.0000   0.0000   0.0000   0.0000   0.0000   0.0000
     0.0000   0.0000   0.0000   0.0000

          k = 0.0769 0.3189 0.0000 ( 24516 PWs)   bands (ev):

   -35.6737 -35.6702 -35.6670 -35.6634 -35.6349 -35.6314 -35.6279 -35.6240
   -35.6047 -35.6010 -35.2521 -35.2387 -35.2312 -35.2031 -35.2001 -28.6279
   -28.6257 -28.6161 -28.6141 -28.6032 -28.6013 -28.5988 -28.5968 -28.5830
   -28.5811 -11.4719 -11.0535 -10.1256  -8.0064  -7.3819  -3.2108  -2.5556
    -1.9921  -1.9013  -1.4440  -0.8307   0.2284   0.3363   1.1455   3.0645
     3.2364   3.8161   4.8911   5.1798   5.8486   6.8848   7.3517   7.6777
     8.2912   8.6250   8.9188   9.6186   9.6884  10.2583  10.5620  10.8076
    10.9328  11.2103  11.9149  11.9400

     occupation numbers 
     1.0000   1.0000   1.0000   1.0000   1.0000   1.0000   1.0000   1.0000
     1.0000   1.0000   1.0000   1.0000   1.0000   1.0000   1.0000   1.0000
     1.0000   1.0000   1.0000   1.0000   1.0000   1.0000   1.0000   1.0000
     1.0000   1.0000   1.0000   1.0000   1.0000   1.0000   1.0000   1.0000
     1.0000   1.0000   1.0000   1.0000   1.0000   1.0000   1.0000   0.0000
     0.0000   0.0000   0.0000   0.0000   0.0000   0.0000   0.0000   0.0000
     0.0000   0.0000   0.0000   0.0000   0.0000   0.0000   0.0000   0.0000
     0.0000   0.0000   0.0000   0.0000

          k = 0.0769 0.4104 0.0000 ( 24529 PWs)   bands (ev):

   -35.6650 -35.6615 -35.6591 -35.6555 -35.6300 -35.6265 -35.6218 -35.6178
   -35.6004 -35.5967 -35.2484 -35.2363 -35.2217 -35.1933 -35.1873 -28.6265
   -28.6242 -28.6126 -28.6105 -28.6024 -28.6006 -28.5989 -28.5970 -28.5815
   -28.5795 -11.0929 -10.7448 -10.0288  -8.2975  -7.8261  -3.6827  -2.6873
    -2.4281  -2.1734  -1.5661  -1.0628   0.0555   0.3137   0.9359   3.1031
     3.2358   3.8501   5.1266   5.3727   6.1760   6.6230   7.7711   7.9565
     8.6080   8.9608   9.3246   9.9368  10.0709  10.4744  10.9365  11.0741
    11.2753  11.4604  11.8498  11.9480

     occupation numbers 
     1.0000   1.0000   1.0000   1.0000   1.0000   1.0000   1.0000   1.0000
     1.0000   1.0000   1.0000   1.0000   1.0000   1.0000   1.0000   1.0000
     1.0000   1.0000   1.0000   1.0000   1.0000   1.0000   1.0000   1.0000
     1.0000   1.0000   1.0000   1.0000   1.0000   1.0000   1.0000   1.0000
     1.0000   1.0000   1.0000   1.0000   1.0000   1.0000   1.0000   0.0000
     0.0000   0.0000   0.0000   0.0000   0.0000   0.0000   0.0000   0.0000
     0.0000   0.0000   0.0000   0.0000   0.0000   0.0000   0.0000   0.0000
     0.0000   0.0000   0.0000   0.0000

          k = 0.0769 0.5019 0.0000 ( 24550 PWs)   bands (ev):

   -35.6597 -35.6562 -35.6537 -35.6501 -35.6283 -35.6248 -35.6180 -35.6141
   -35.5996 -35.5959 -35.2472 -35.2365 -35.2177 -35.1872 -35.1796 -28.6252
   -28.6229 -28.6104 -28.6084 -28.6016 -28.5998 -28.5974 -28.5955 -28.5798
   -28.5779 -10.6812 -10.4601 -10.0508  -8.6257  -8.1546  -3.9717  -2.7334
    -2.6480  -2.3704  -1.7081  -1.2410   0.0518   0.2801   0.7291   3.0912
     3.2352   3.7776   5.3079   5.4366   6.2562   6.5011   7.9382   8.4995
     8.8924   9.4566   9.7355   9.7971  10.3295  10.5847  10.9409  11.0204
    11.5387  11.6359  12.0146  12.1861

     occupation numbers 
     1.0000   1.0000   1.0000   1.0000   1.0000   1.0000   1.0000   1.0000
     1.0000   1.0000   1.0000   1.0000   1.0000   1.0000   1.0000   1.0000
     1.0000   1.0000   1.0000   1.0000   1.0000   1.0000   1.0000   1.0000
     1.0000   1.0000   1.0000   1.0000   1.0000   1.0000   1.0000   1.0000
     1.0000   1.0000   1.0000   1.0000   1.0000   1.0000   1.0000   0.0000
     0.0000   0.0000   0.0000   0.0000   0.0000   0.0000   0.0000   0.0000
     0.0000   0.0000   0.0000   0.0000   0.0000   0.0000   0.0000   0.0000
     0.0000   0.0000   0.0000   0.0000

          k = 0.0769 0.5933 0.0000 ( 24545 PWs)   bands (ev):

   -35.6582 -35.6547 -35.6517 -35.6481 -35.6284 -35.6249 -35.6163 -35.6124
   -35.5998 -35.5961 -35.2475 -35.2371 -35.2167 -35.1852 -35.1772 -28.6246
   -28.6223 -28.6097 -28.6077 -28.6016 -28.5997 -28.5961 -28.5942 -28.5788
   -28.5770 -10.3657 -10.3288 -10.2100  -8.7811  -8.2798  -4.0706  -2.8338
    -2.5575  -2.4863  -1.8152  -1.2765   0.1510   0.1707   0.6540   3.0407
     3.2896   3.7110   5.3713   5.4408   6.3381   6.3536   8.0341   9.0047
     9.1857   9.2585   9.4833  10.0746  10.2014  10.3698  10.9733  11.4067
    11.5816  11.7917  12.0731  12.2766

     occupation numbers 
     1.0000   1.0000   1.0000   1.0000   1.0000   1.0000   1.0000   1.0000
     1.0000   1.0000   1.0000   1.0000   1.0000   1.0000   1.0000   1.0000
     1.0000   1.0000   1.0000   1.0000   1.0000   1.0000   1.0000   1.0000
     1.0000   1.0000   1.0000   1.0000   1.0000   1.0000   1.0000   1.0000
     1.0000   1.0000   1.0000   1.0000   1.0000   1.0000   1.0000   0.0000
     0.0000   0.0000   0.0000   0.0000   0.0000   0.0000   0.0000   0.0000
     0.0000   0.0000   0.0000   0.0000   0.0000   0.0000   0.0000   0.0000
     0.0000   0.0000   0.0000   0.0000

          k = 0.0769-0.5045 0.0000 ( 24534 PWs)   bands (ev):

   -35.6599 -35.6564 -35.6540 -35.6503 -35.6299 -35.6263 -35.6169 -35.6130
   -35.5996 -35.5959 -35.2487 -35.2371 -35.2173 -35.1870 -35.1796 -28.6253
   -28.6230 -28.6103 -28.6083 -28.6026 -28.6007 -28.5964 -28.5944 -28.5794
   -28.5775 -10.6708 -10.4528 -10.0541  -8.6300  -8.1521  -3.9763  -2.7416
    -2.6597  -2.3432  -1.7324  -1.2196   0.0659   0.2441   0.7313   3.0697
     3.2472   3.7491   5.3118   5.4043   6.2429   6.4780   7.9293   8.5131
     8.9100   9.4542   9.6761   9.7082  10.3134  10.4641  10.8705  10.9911
    11.4141  11.6398  12.0517  12.2730

     occupation numbers 
     1.0000   1.0000   1.0000   1.0000   1.0000   1.0000   1.0000   1.0000
     1.0000   1.0000   1.0000   1.0000   1.0000   1.0000   1.0000   1.0000
     1.0000   1.0000   1.0000   1.0000   1.0000   1.0000   1.0000   1.0000
     1.0000   1.0000   1.0000   1.0000   1.0000   1.0000   1.0000   1.0000
     1.0000   1.0000   1.0000   1.0000   1.0000   1.0000   1.0000   0.0000
     0.0000   0.0000   0.0000   0.0000   0.0000   0.0000   0.0000   0.0000
     0.0000   0.0000   0.0000   0.0000   0.0000   0.0000   0.0000   0.0000
     0.0000   0.0000   0.0000   0.0000

          k = 0.0769-0.4130 0.0000 ( 24563 PWs)   bands (ev):

   -35.6654 -35.6619 -35.6589 -35.6552 -35.6321 -35.6286 -35.6208 -35.6169
   -35.6004 -35.5967 -35.2507 -35.2372 -35.2203 -35.1926 -35.1866 -28.6269
   -28.6246 -28.6126 -28.6105 -28.6041 -28.6023 -28.5976 -28.5956 -28.5811
   -28.5791 -11.0827 -10.7351 -10.0262  -8.3011  -7.8197  -3.6918  -2.7059
    -2.4290  -2.1415  -1.6008  -1.0276   0.0680   0.2620   0.9215   3.0943
     3.2284   3.7857   5.0918   5.3729   6.1394   6.5937   7.7668   7.9630
     8.5982   8.9300   9.1559   9.8895  10.0586  10.4491  10.9360  11.1630
    11.2547  11.6259  11.8728  11.9795

     occupation numbers 
     1.0000   1.0000   1.0000   1.0000   1.0000   1.0000   1.0000   1.0000
     1.0000   1.0000   1.0000   1.0000   1.0000   1.0000   1.0000   1.0000
     1.0000   1.0000   1.0000   1.0000   1.0000   1.0000   1.0000   1.0000
     1.0000   1.0000   1.0000   1.0000   1.0000   1.0000   1.0000   1.0000
     1.0000   1.0000   1.0000   1.0000   1.0000   1.0000   1.0000   0.0000
     0.0000   0.0000   0.0000   0.0000   0.0000   0.0000   0.0000   0.0000
     0.0000   0.0000   0.0000   0.0000   0.0000   0.0000   0.0000   0.0000
     0.0000   0.0000   0.0000   0.0000

          k = 0.0769-0.3215 0.0000 ( 24555 PWs)   bands (ev):

   -35.6733 -35.6697 -35.6666 -35.6629 -35.6360 -35.6325 -35.6279 -35.6240
   -35.6048 -35.6011 -35.2542 -35.2391 -35.2286 -35.2022 -35.1984 -28.6288
   -28.6267 -28.6163 -28.6143 -28.6049 -28.6030 -28.5981 -28.5961 -28.5829
   -28.5810 -11.4630 -11.0443 -10.1189  -8.0051  -7.3713  -3.2248  -2.5554
    -2.0099  -1.8712  -1.4641  -0.7856   0.1792   0.3095   1.1107   3.0253
     3.2151   3.7725   4.8084   5.2224   5.8249   6.8538   7.3548   7.6689
     8.2534   8.5564   8.8817   9.5831   9.6888  10.4434  10.6171  10.8188
    10.9524  11.2404  11.9431  12.0066

     occupation numbers 
     1.0000   1.0000   1.0000   1.0000   1.0000   1.0000   1.0000   1.0000
     1.0000   1.0000   1.0000   1.0000   1.0000   1.0000   1.0000   1.0000
     1.0000   1.0000   1.0000   1.0000   1.0000   1.0000   1.0000   1.0000
     1.0000   1.0000   1.0000   1.0000   1.0000   1.0000   1.0000   1.0000
     1.0000   1.0000   1.0000   1.0000   1.0000   1.0000   1.0000   0.0000
     0.0000   0.0000   0.0000   0.0000   0.0000   0.0000   0.0000   0.0000
     0.0000   0.0000   0.0000   0.0000   0.0000   0.0000   0.0000   0.0000
     0.0000   0.0000   0.0000   0.0000

          k = 0.0769-0.2301 0.0000 ( 24493 PWs)   bands (ev):

   -35.6817 -35.6781 -35.6772 -35.6735 -35.6454 -35.6417 -35.6377 -35.6339
   -35.6137 -35.6100 -35.2615 -35.2470 -35.2433 -35.2159 -35.2134 -28.6311
   -28.6291 -28.6196 -28.6176 -28.6031 -28.6012 -28.5962 -28.5943 -28.5832
   -28.5813 -11.7759 -11.3163 -10.2566  -7.8191  -6.9201  -2.6066  -2.2007
    -1.6500  -1.5488  -1.1012  -0.6676   0.1645   0.6273   1.1847   2.8390
     3.1025   3.7207   4.4458   4.9863   5.3583   6.9869   7.0387   7.5887
     8.0244   8.1174   9.2141   9.3046   9.4347   9.7358  10.2585  10.4864
    10.7198  11.1860  11.6157  11.9360

     occupation numbers 
     1.0000   1.0000   1.0000   1.0000   1.0000   1.0000   1.0000   1.0000
     1.0000   1.0000   1.0000   1.0000   1.0000   1.0000   1.0000   1.0000
     1.0000   1.0000   1.0000   1.0000   1.0000   1.0000   1.0000   1.0000
     1.0000   1.0000   1.0000   1.0000   1.0000   1.0000   1.0000   1.0000
     1.0000   1.0000   1.0000   1.0000   1.0000   1.0000   1.0000   0.0000
     0.0000   0.0000   0.0000   0.0000   0.0000   0.0000   0.0000   0.0000
     0.0000   0.0000   0.0000   0.0000   0.0000   0.0000   0.0000   0.0000
     0.0000   0.0000   0.0000   0.0000

          k = 0.0769-0.1386 0.0000 ( 24453 PWs)   bands (ev):

   -35.6963 -35.6926 -35.6810 -35.6773 -35.6586 -35.6550 -35.6512 -35.6474
   -35.6278 -35.6241 -35.2685 -35.2559 -35.2522 -35.2209 -35.2191 -28.6341
   -28.6320 -28.6268 -28.6246 -28.6067 -28.6047 -28.5961 -28.5942 -28.5763
   -28.5745 -12.0011 -11.5305 -10.3731  -7.7201  -6.5673  -1.9838  -1.6151
    -1.3487  -1.2128  -0.7464  -0.5304   0.1386   0.9181   0.9926   2.6940
     3.0813   3.2357   4.3007   4.5850   4.9287   6.7348   6.8899   7.7810
     7.9410   8.1260   9.0659   9.1742   9.3819   9.6813   9.8602  10.2030
    10.6001  11.0728  11.3667  11.7212

     occupation numbers 
     1.0000   1.0000   1.0000   1.0000   1.0000   1.0000   1.0000   1.0000
     1.0000   1.0000   1.0000   1.0000   1.0000   1.0000   1.0000   1.0000
     1.0000   1.0000   1.0000   1.0000   1.0000   1.0000   1.0000   1.0000
     1.0000   1.0000   1.0000   1.0000   1.0000   1.0000   1.0000   1.0000
     1.0000   1.0000   1.0000   1.0000   1.0000   1.0000   1.0000   0.0000
     0.0000   0.0000   0.0000   0.0000   0.0000   0.0000   0.0000   0.0000
     0.0000   0.0000   0.0000   0.0000   0.0000   0.0000   0.0000   0.0000
     0.0000   0.0000   0.0000   0.0000

          k = 0.0769-0.0471 0.0000 ( 24433 PWs)   bands (ev):

   -35.6987 -35.6949 -35.6917 -35.6881 -35.6705 -35.6669 -35.6610 -35.6572
   -35.6381 -35.6344 -35.2720 -35.2604 -35.2509 -35.2305 -35.2259 -28.6364
   -28.6345 -28.6342 -28.6324 -28.6060 -28.6040 -28.5963 -28.5944 -28.5702
   -28.5683 -12.1238 -11.6582 -10.4432  -7.6663  -6.3765  -1.4729  -1.2294
    -1.1323  -0.8143  -0.7018  -0.3302   0.3347   0.4670   0.9859   2.5689
     2.9505   3.1055   4.1690   4.3028   4.6331   6.5836   6.7845   7.6293
     8.1150   8.4223   8.8798   8.9980   9.4646   9.6812   9.8861  10.0957
    10.5946  10.9191  11.1004  11.3805

     occupation numbers 
     1.0000   1.0000   1.0000   1.0000   1.0000   1.0000   1.0000   1.0000
     1.0000   1.0000   1.0000   1.0000   1.0000   1.0000   1.0000   1.0000
     1.0000   1.0000   1.0000   1.0000   1.0000   1.0000   1.0000   1.0000
     1.0000   1.0000   1.0000   1.0000   1.0000   1.0000   1.0000   1.0000
     1.0000   1.0000   1.0000   1.0000   1.0000   1.0000   1.0000   0.0000
     0.0000   0.0000   0.0000   0.0000   0.0000   0.0000   0.0000   0.0000
     0.0000   0.0000   0.0000   0.0000   0.0000   0.0000   0.0000   0.0000
     0.0000   0.0000   0.0000   0.0000

          k = 0.1538 0.0888 0.0000 ( 24463 PWs)   bands (ev):

   -35.6920 -35.6881 -35.6815 -35.6779 -35.6531 -35.6495 -35.6433 -35.6395
   -35.6208 -35.6171 -35.2661 -35.2586 -35.2504 -35.2288 -35.2248 -28.6287
   -28.6274 -28.6266 -28.6253 -28.6098 -28.6079 -28.5911 -28.5892 -28.5791
   -28.5773 -11.9557 -11.4790 -10.3588  -7.7613  -6.6906  -2.3463  -1.6090
    -1.4211  -1.3053  -0.9002  -0.5800   0.5198   0.7660   1.0875   2.8666
     3.2781   3.3256   4.4205   4.5760   4.9788   6.7875   6.9106   7.6448
     7.8809   8.3431   9.0499   9.2980   9.3933   9.4876  10.1722  10.3473
    10.4361  11.2421  11.3742  11.5703

     occupation numbers 
     1.0000   1.0000   1.0000   1.0000   1.0000   1.0000   1.0000   1.0000
     1.0000   1.0000   1.0000   1.0000   1.0000   1.0000   1.0000   1.0000
     1.0000   1.0000   1.0000   1.0000   1.0000   1.0000   1.0000   1.0000
     1.0000   1.0000   1.0000   1.0000   1.0000   1.0000   1.0000   1.0000
     1.0000   1.0000   1.0000   1.0000   1.0000   1.0000   1.0000   0.0000
     0.0000   0.0000   0.0000   0.0000   0.0000   0.0000   0.0000   0.0000
     0.0000   0.0000   0.0000   0.0000   0.0000   0.0000   0.0000   0.0000
     0.0000   0.0000   0.0000   0.0000

          k = 0.1538 0.1803 0.0000 ( 24472 PWs)   bands (ev):

   -35.6881 -35.6843 -35.6778 -35.6742 -35.6466 -35.6431 -35.6367 -35.6327
   -35.6143 -35.6106 -35.2614 -35.2529 -35.2491 -35.2180 -35.2162 -28.6286
   -28.6266 -28.6200 -28.6179 -28.6056 -28.6036 -28.5909 -28.5889 -28.5826
   -28.5808 -11.7934 -11.3345 -10.2778  -7.8385  -6.9545  -2.6944  -2.1095
    -1.7398  -1.4006  -1.1349  -0.6075   0.2617   0.7273   1.2535   2.9420
     3.3117   3.6256   4.4507   5.1202   5.1803   6.9629   7.0332   7.5627
     8.0560   8.1377   9.1248   9.2706   9.4190   9.9094  10.1811  10.4166
    10.9166  11.0670  11.6045  11.9409

     occupation numbers 
     1.0000   1.0000   1.0000   1.0000   1.0000   1.0000   1.0000   1.0000
     1.0000   1.0000   1.0000   1.0000   1.0000   1.0000   1.0000   1.0000
     1.0000   1.0000   1.0000   1.0000   1.0000   1.0000   1.0000   1.0000
     1.0000   1.0000   1.0000   1.0000   1.0000   1.0000   1.0000   1.0000
     1.0000   1.0000   1.0000   1.0000   1.0000   1.0000   1.0000   0.0000
     0.0000   0.0000   0.0000   0.0000   0.0000   0.0000   0.0000   0.0000
     0.0000   0.0000   0.0000   0.0000   0.0000   0.0000   0.0000   0.0000
     0.0000   0.0000   0.0000   0.0000

          k = 0.1538 0.2718 0.0000 ( 24486 PWs)   bands (ev):

   -35.6792 -35.6755 -35.6729 -35.6693 -35.6360 -35.6325 -35.6265 -35.6225
   -35.6010 -35.5972 -35.2592 -35.2475 -35.2423 -35.2019 -35.2015 -28.6274
   -28.6254 -28.6151 -28.6131 -28.6018 -28.5999 -28.5944 -28.5925 -28.5865
   -28.5847 -11.5315 -11.1004 -10.1580  -7.9838  -7.3417  -2.9308  -2.8232
    -1.9845  -1.7102  -1.4042  -0.9501   0.3014   0.8301   1.0340   3.0254
     3.5838   3.6747   4.6241   5.4568   5.6440   7.2131   7.2551   7.6109
     7.9476   8.3864   8.8395   9.3231   9.6802  10.4032  10.5767  10.7759
    10.9199  11.4507  11.8017  11.8970

     occupation numbers 
     1.0000   1.0000   1.0000   1.0000   1.0000   1.0000   1.0000   1.0000
     1.0000   1.0000   1.0000   1.0000   1.0000   1.0000   1.0000   1.0000
     1.0000   1.0000   1.0000   1.0000   1.0000   1.0000   1.0000   1.0000
     1.0000   1.0000   1.0000   1.0000   1.0000   1.0000   1.0000   1.0000
     1.0000   1.0000   1.0000   1.0000   1.0000   1.0000   1.0000   0.0000
     0.0000   0.0000   0.0000   0.0000   0.0000   0.0000   0.0000   0.0000
     0.0000   0.0000   0.0000   0.0000   0.0000   0.0000   0.0000   0.0000
     0.0000   0.0000   0.0000   0.0000

          k = 0.1538 0.3633 0.0000 ( 24522 PWs)   bands (ev):

   -35.6681 -35.6644 -35.6631 -35.6595 -35.6336 -35.6301 -35.6201 -35.6161
   -35.5985 -35.5947 -35.2535 -35.2433 -35.2338 -35.1933 -35.1923 -28.6235
   -28.6215 -28.6116 -28.6095 -28.5990 -28.5970 -28.5947 -28.5928 -28.5847
   -28.5828 -11.1931 -10.8163 -10.0457  -8.2040  -7.7885  -3.3827  -3.0417
    -2.3272  -2.0610  -1.6591  -1.1591   0.3419   0.5333   0.9891   3.1016
     3.6332   3.7538   4.9666   5.6317   5.9953   7.1029   7.6484   7.9007
     8.2490   8.6936   8.8376   9.5324   9.9442  10.3607  10.9009  11.0548
    11.4307  11.6514  11.8090  12.2878

     occupation numbers 
     1.0000   1.0000   1.0000   1.0000   1.0000   1.0000   1.0000   1.0000
     1.0000   1.0000   1.0000   1.0000   1.0000   1.0000   1.0000   1.0000
     1.0000   1.0000   1.0000   1.0000   1.0000   1.0000   1.0000   1.0000
     1.0000   1.0000   1.0000   1.0000   1.0000   1.0000   1.0000   1.0000
     1.0000   1.0000   1.0000   1.0000   1.0000   1.0000   1.0000   0.0000
     0.0000   0.0000   0.0000   0.0000   0.0000   0.0000   0.0000   0.0000
     0.0000   0.0000   0.0000   0.0000   0.0000   0.0000   0.0000   0.0000
     0.0000   0.0000   0.0000   0.0000

          k = 0.1538 0.4548 0.0000 ( 24526 PWs)   bands (ev):

   -35.6615 -35.6579 -35.6579 -35.6543 -35.6314 -35.6279 -35.6160 -35.6119
   -35.5989 -35.5951 -35.2494 -35.2408 -35.2288 -35.1894 -35.1866 -28.6204
   -28.6182 -28.6079 -28.6059 -28.5968 -28.5949 -28.5933 -28.5914 -28.5813
   -28.5794 -10.8010 -10.5197  -9.9940  -8.5032  -8.1890  -3.7616  -3.0718
    -2.5510  -2.4522  -1.7324  -1.3357   0.1384   0.4384   0.9611   3.0504
     3.6296   3.8749   5.1362   5.7115   6.2476   6.8979   8.0316   8.2914
     8.7909   8.9530   9.3732   9.7021  10.2006  10.3764  10.8177  11.0568
    11.4561  11.5368  11.8932  12.0300

     occupation numbers 
     1.0000   1.0000   1.0000   1.0000   1.0000   1.0000   1.0000   1.0000
     1.0000   1.0000   1.0000   1.0000   1.0000   1.0000   1.0000   1.0000
     1.0000   1.0000   1.0000   1.0000   1.0000   1.0000   1.0000   1.0000
     1.0000   1.0000   1.0000   1.0000   1.0000   1.0000   1.0000   1.0000
     1.0000   1.0000   1.0000   1.0000   1.0000   1.0000   1.0000   0.0000
     0.0000   0.0000   0.0000   0.0000   0.0000   0.0000   0.0000   0.0000
     0.0000   0.0000   0.0000   0.0000   0.0000   0.0000   0.0000   0.0000
     0.0000   0.0000   0.0000   0.0000

          k = 0.1538 0.5463 0.0000 ( 24571 PWs)   bands (ev):

   -35.6589 -35.6556 -35.6554 -35.6520 -35.6285 -35.6250 -35.6136 -35.6096
   -35.5970 -35.5933 -35.2467 -35.2390 -35.2253 -35.1859 -35.1820 -28.6200
   -28.6177 -28.6066 -28.6046 -28.5976 -28.5957 -28.5930 -28.5912 -28.5808
   -28.5789 -10.4120 -10.2969 -10.0744  -8.7706  -8.4278  -3.9510  -3.0375
    -2.9008  -2.3996  -1.7148  -1.5992   0.1030   0.3852   0.8844   3.1251
     3.6083   3.7412   5.3063   5.7212   6.3289   6.7640   8.1501   8.8434
     9.1418   9.4444   9.6326   9.8469  10.2414  10.4093  10.7910  10.9010
    11.1503  11.3983  11.5631  12.0716

     occupation numbers 
     1.0000   1.0000   1.0000   1.0000   1.0000   1.0000   1.0000   1.0000
     1.0000   1.0000   1.0000   1.0000   1.0000   1.0000   1.0000   1.0000
     1.0000   1.0000   1.0000   1.0000   1.0000   1.0000   1.0000   1.0000
     1.0000   1.0000   1.0000   1.0000   1.0000   1.0000   1.0000   1.0000
     1.0000   1.0000   1.0000   1.0000   1.0000   1.0000   1.0000   0.0000
     0.0000   0.0000   0.0000   0.0000   0.0000   0.0000   0.0000   0.0000
     0.0000   0.0000   0.0000   0.0000   0.0000   0.0000   0.0000   0.0000
     0.0000   0.0000   0.0000   0.0000

          k = 0.1538 0.6378 0.0000 ( 24538 PWs)   bands (ev):

   -35.6588 -35.6558 -35.6552 -35.6521 -35.6292 -35.6257 -35.6133 -35.6093
   -35.5971 -35.5934 -35.2480 -35.2396 -35.2245 -35.1856 -35.1819 -28.6202
   -28.6180 -28.6067 -28.6047 -28.5982 -28.5963 -28.5925 -28.5905 -28.5806
   -28.5787 -10.3939 -10.2885 -10.0838  -8.7763  -8.4264  -3.9551  -3.0701
    -2.8710  -2.3934  -1.7754  -1.5425   0.1129   0.3559   0.8844   3.1329
     3.5951   3.7107   5.2994   5.7030   6.3072   6.7484   8.1354   8.8791
     9.1844   9.3836   9.4945   9.8385  10.1386  10.3942  10.7092  10.9167
    11.1251  11.5768  11.6178  12.0433

     occupation numbers 
     1.0000   1.0000   1.0000   1.0000   1.0000   1.0000   1.0000   1.0000
     1.0000   1.0000   1.0000   1.0000   1.0000   1.0000   1.0000   1.0000
     1.0000   1.0000   1.0000   1.0000   1.0000   1.0000   1.0000   1.0000
     1.0000   1.0000   1.0000   1.0000   1.0000   1.0000   1.0000   1.0000
     1.0000   1.0000   1.0000   1.0000   1.0000   1.0000   1.0000   0.0000
     0.0000   0.0000   0.0000   0.0000   0.0000   0.0000   0.0000   0.0000
     0.0000   0.0000   0.0000   0.0000   0.0000   0.0000   0.0000   0.0000
     0.0000   0.0000   0.0000   0.0000

          k = 0.1538-0.4601 0.0000 ( 24546 PWs)   bands (ev):

   -35.6608 -35.6582 -35.6573 -35.6545 -35.6331 -35.6297 -35.6154 -35.6115
   -35.5990 -35.5953 -35.2527 -35.2424 -35.2264 -35.1888 -35.1860 -28.6211
   -28.6190 -28.6080 -28.6060 -28.5987 -28.5968 -28.5919 -28.5900 -28.5810
   -28.5791 -10.7797 -10.5012  -9.9923  -8.5128  -8.1821  -3.7752  -3.0929
    -2.5350  -2.4508  -1.7767  -1.2803   0.1323   0.3872   0.9465   3.0549
     3.5910   3.7983   5.1089   5.6771   6.1863   6.8553   8.0092   8.3005
     8.7476   8.8094   9.3806   9.6145  10.1819  10.3569  10.7756  11.0507
    11.4666  11.5200  11.9070  12.0177

     occupation numbers 
     1.0000   1.0000   1.0000   1.0000   1.0000   1.0000   1.0000   1.0000
     1.0000   1.0000   1.0000   1.0000   1.0000   1.0000   1.0000   1.0000
     1.0000   1.0000   1.0000   1.0000   1.0000   1.0000   1.0000   1.0000
     1.0000   1.0000   1.0000   1.0000   1.0000   1.0000   1.0000   1.0000
     1.0000   1.0000   1.0000   1.0000   1.0000   1.0000   1.0000   0.0000
     0.0000   0.0000   0.0000   0.0000   0.0000   0.0000   0.0000   0.0000
     0.0000   0.0000   0.0000   0.0000   0.0000   0.0000   0.0000   0.0000
     0.0000   0.0000   0.0000   0.0000

          k = 0.1538-0.3686 0.0000 ( 24537 PWs)   bands (ev):

   -35.6665 -35.6640 -35.6629 -35.6603 -35.6357 -35.6322 -35.6196 -35.6156
   -35.5982 -35.5944 -35.2570 -35.2448 -35.2302 -35.1930 -35.1905 -28.6249
   -28.6229 -28.6114 -28.6095 -28.6017 -28.5998 -28.5934 -28.5915 -28.5847
   -28.5828 -11.1737 -10.7964 -10.0354  -8.2049  -7.7753  -3.4067  -3.0455
    -2.3288  -2.0702  -1.6874  -1.0943   0.2965   0.4798   0.9467   3.0678
     3.5710   3.6846   4.8905   5.6245   5.9261   7.0469   7.6131   7.8819
     8.1731   8.6594   8.8428   9.4815   9.9672  10.3666  10.9543  11.0638
    11.4580  11.6660  12.0170  12.3136

     occupation numbers 
     1.0000   1.0000   1.0000   1.0000   1.0000   1.0000   1.0000   1.0000
     1.0000   1.0000   1.0000   1.0000   1.0000   1.0000   1.0000   1.0000
     1.0000   1.0000   1.0000   1.0000   1.0000   1.0000   1.0000   1.0000
     1.0000   1.0000   1.0000   1.0000   1.0000   1.0000   1.0000   1.0000
     1.0000   1.0000   1.0000   1.0000   1.0000   1.0000   1.0000   0.0000
     0.0000   0.0000   0.0000   0.0000   0.0000   0.0000   0.0000   0.0000
     0.0000   0.0000   0.0000   0.0000   0.0000   0.0000   0.0000   0.0000
     0.0000   0.0000   0.0000   0.0000

          k = 0.1538-0.2771 0.0000 ( 24534 PWs)   bands (ev):

   -35.6774 -35.6737 -35.6731 -35.6694 -35.6385 -35.6349 -35.6250 -35.6211
   -35.6003 -35.5965 -35.2612 -35.2476 -35.2374 -35.2016 -35.1988 -28.6293
   -28.6274 -28.6148 -28.6129 -28.6035 -28.6016 -28.5947 -28.5928 -28.5868
   -28.5849 -11.5154 -11.0832 -10.1435  -7.9745  -7.3210  -2.9166  -2.8526
    -1.9818  -1.7531  -1.3885  -0.9198   0.2366   0.7660   0.9630   2.9006
     3.5330   3.6711   4.5257   5.4776   5.6181   7.2100   7.2174   7.5484
     7.9325   8.3904   8.8415   9.2859   9.7046  10.4783  10.6969  10.7957
    11.0185  11.4379  11.7695  11.9137

     occupation numbers 
     1.0000   1.0000   1.0000   1.0000   1.0000   1.0000   1.0000   1.0000
     1.0000   1.0000   1.0000   1.0000   1.0000   1.0000   1.0000   1.0000
     1.0000   1.0000   1.0000   1.0000   1.0000   1.0000   1.0000   1.0000
     1.0000   1.0000   1.0000   1.0000   1.0000   1.0000   1.0000   1.0000
     1.0000   1.0000   1.0000   1.0000   1.0000   1.0000   1.0000   0.0000
     0.0000   0.0000   0.0000   0.0000   0.0000   0.0000   0.0000   0.0000
     0.0000   0.0000   0.0000   0.0000   0.0000   0.0000   0.0000   0.0000
     0.0000   0.0000   0.0000   0.0000

          k = 0.1538-0.1856 0.0000 ( 24476 PWs)   bands (ev):

   -35.6849 -35.6811 -35.6768 -35.6731 -35.6471 -35.6436 -35.6366 -35.6326
   -35.6142 -35.6104 -35.2622 -35.2472 -35.2466 -35.2166 -35.2143 -28.6306
   -28.6286 -28.6196 -28.6175 -28.6044 -28.6025 -28.5936 -28.5917 -28.5829
   -28.5811 -11.7810 -11.3216 -10.2630  -7.8256  -6.9296  -2.6560  -2.1432
    -1.6986  -1.4655  -1.1356  -0.6181   0.1864   0.6481   1.2008   2.8188
     3.1988   3.6941   4.4048   5.0826   5.2723   6.9778   7.0302   7.5549
     8.0499   8.1079   9.1694   9.2790   9.4415   9.8702  10.2611  10.4457
    10.7920  11.1260  11.6067  11.9531

     occupation numbers 
     1.0000   1.0000   1.0000   1.0000   1.0000   1.0000   1.0000   1.0000
     1.0000   1.0000   1.0000   1.0000   1.0000   1.0000   1.0000   1.0000
     1.0000   1.0000   1.0000   1.0000   1.0000   1.0000   1.0000   1.0000
     1.0000   1.0000   1.0000   1.0000   1.0000   1.0000   1.0000   1.0000
     1.0000   1.0000   1.0000   1.0000   1.0000   1.0000   1.0000   0.0000
     0.0000   0.0000   0.0000   0.0000   0.0000   0.0000   0.0000   0.0000
     0.0000   0.0000   0.0000   0.0000   0.0000   0.0000   0.0000   0.0000
     0.0000   0.0000   0.0000   0.0000

          k = 0.1538-0.0942 0.0000 ( 24438 PWs)   bands (ev):

   -35.6889 -35.6850 -35.6808 -35.6771 -35.6522 -35.6487 -35.6443 -35.6404
   -35.6206 -35.6168 -35.2687 -35.2548 -35.2491 -35.2272 -35.2223 -28.6302
   -28.6282 -28.6263 -28.6243 -28.6078 -28.6059 -28.5933 -28.5914 -28.5796
   -28.5777 -11.9489 -11.4715 -10.3502  -7.7525  -6.6724  -2.2893  -1.5514
    -1.5296  -1.2626  -1.0018  -0.5847   0.4421   0.7372   1.0862   2.7547
     3.2274   3.3966   4.3535   4.6171   5.0456   6.7939   6.9232   7.6632
     7.8912   8.3703   9.0645   9.1478   9.4326   9.5662  10.1435  10.2805
    10.4148  11.1627  11.4523  11.6492

     occupation numbers 
     1.0000   1.0000   1.0000   1.0000   1.0000   1.0000   1.0000   1.0000
     1.0000   1.0000   1.0000   1.0000   1.0000   1.0000   1.0000   1.0000
     1.0000   1.0000   1.0000   1.0000   1.0000   1.0000   1.0000   1.0000
     1.0000   1.0000   1.0000   1.0000   1.0000   1.0000   1.0000   1.0000
     1.0000   1.0000   1.0000   1.0000   1.0000   1.0000   1.0000   0.0000
     0.0000   0.0000   0.0000   0.0000   0.0000   0.0000   0.0000   0.0000
     0.0000   0.0000   0.0000   0.0000   0.0000   0.0000   0.0000   0.0000
     0.0000   0.0000   0.0000   0.0000

          k = 0.1538-0.0027 0.0000 ( 24453 PWs)   bands (ev):

   -35.7007 -35.6969 -35.6839 -35.6802 -35.6598 -35.6563 -35.6492 -35.6454
   -35.6275 -35.6237 -35.2691 -35.2647 -35.2566 -35.2247 -35.2237 -28.6305
   -28.6285 -28.6261 -28.6240 -28.6075 -28.6056 -28.5916 -28.5897 -28.5756
   -28.5738 -12.0105 -11.5379 -10.3895  -7.7304  -6.5927  -2.0315  -1.6180
    -1.3966  -1.2156  -0.6749  -0.5075   0.2535   0.9627   1.0660   2.9432
     2.9847   3.2807   4.3710   4.4333   4.8849   6.7252   6.8834   7.7989
     7.9657   8.0782   9.0424   9.1873   9.5089   9.5982   9.8450  10.1185
    10.8675  11.0759  11.3648  11.6482

     occupation numbers 
     1.0000   1.0000   1.0000   1.0000   1.0000   1.0000   1.0000   1.0000
     1.0000   1.0000   1.0000   1.0000   1.0000   1.0000   1.0000   1.0000
     1.0000   1.0000   1.0000   1.0000   1.0000   1.0000   1.0000   1.0000
     1.0000   1.0000   1.0000   1.0000   1.0000   1.0000   1.0000   1.0000
     1.0000   1.0000   1.0000   1.0000   1.0000   1.0000   1.0000   0.0000
     0.0000   0.0000   0.0000   0.0000   0.0000   0.0000   0.0000   0.0000
     0.0000   0.0000   0.0000   0.0000   0.0000   0.0000   0.0000   0.0000
     0.0000   0.0000   0.0000   0.0000

          k = 0.2308 0.1332 0.0000 ( 24500 PWs)   bands (ev):

   -35.6849 -35.6810 -35.6734 -35.6697 -35.6411 -35.6376 -35.6351 -35.6312
   -35.6124 -35.6086 -35.2553 -35.2454 -35.2408 -35.2182 -35.2143 -28.6257
   -28.6236 -28.6209 -28.6188 -28.6090 -28.6070 -28.5900 -28.5880 -28.5790
   -28.5771 -11.6994 -11.2548 -10.2381  -7.9098  -7.1216  -3.0254  -2.0221
    -1.7651  -1.7529  -1.1482  -0.6035   0.2586   0.5357   1.2877   2.9963
     3.4647   3.6839   4.8449   4.9287   5.4328   6.8755   7.0902   7.4933
     8.1333   8.5734   9.1066   9.3908   9.5829   9.7720  10.4394  10.5523
    10.7945  11.1916  11.3717  12.0688

     occupation numbers 
     1.0000   1.0000   1.0000   1.0000   1.0000   1.0000   1.0000   1.0000
     1.0000   1.0000   1.0000   1.0000   1.0000   1.0000   1.0000   1.0000
     1.0000   1.0000   1.0000   1.0000   1.0000   1.0000   1.0000   1.0000
     1.0000   1.0000   1.0000   1.0000   1.0000   1.0000   1.0000   1.0000
     1.0000   1.0000   1.0000   1.0000   1.0000   1.0000   1.0000   0.0000
     0.0000   0.0000   0.0000   0.0000   0.0000   0.0000   0.0000   0.0000
     0.0000   0.0000   0.0000   0.0000   0.0000   0.0000   0.0000   0.0000
     0.0000   0.0000   0.0000   0.0000

          k = 0.2308 0.2247 0.0000 ( 24504 PWs)   bands (ev):

   -35.6800 -35.6762 -35.6684 -35.6648 -35.6357 -35.6321 -35.6293 -35.6253
   -35.6068 -35.6031 -35.2529 -35.2417 -35.2381 -35.2048 -35.2032 -28.6256
   -28.6236 -28.6172 -28.6152 -28.6070 -28.6050 -28.5929 -28.5909 -28.5816
   -28.5797 -11.4973 -11.0818 -10.1561  -8.0423  -7.4109  -3.2782  -2.4900
    -1.9640  -1.7943  -1.4558  -0.7173   0.2836   0.4358   1.2543   3.2238
     3.3919   3.7267   4.8234   5.3765   5.7179   6.8588   7.3246   7.6265
     8.2649   8.5522   8.8172   9.5474   9.6710  10.4959  10.5935  10.7378
    10.9207  11.2780  11.8426  12.0823

     occupation numbers 
     1.0000   1.0000   1.0000   1.0000   1.0000   1.0000   1.0000   1.0000
     1.0000   1.0000   1.0000   1.0000   1.0000   1.0000   1.0000   1.0000
     1.0000   1.0000   1.0000   1.0000   1.0000   1.0000   1.0000   1.0000
     1.0000   1.0000   1.0000   1.0000   1.0000   1.0000   1.0000   1.0000
     1.0000   1.0000   1.0000   1.0000   1.0000   1.0000   1.0000   0.0000
     0.0000   0.0000   0.0000   0.0000   0.0000   0.0000   0.0000   0.0000
     0.0000   0.0000   0.0000   0.0000   0.0000   0.0000   0.0000   0.0000
     0.0000   0.0000   0.0000   0.0000

          k = 0.2308 0.3162 0.0000 ( 24498 PWs)   bands (ev):

   -35.6712 -35.6674 -35.6631 -35.6594 -35.6318 -35.6282 -35.6228 -35.6189
   -35.5999 -35.5961 -35.2546 -35.2454 -35.2360 -35.1935 -35.1925 -28.6223
   -28.6204 -28.6124 -28.6105 -28.6003 -28.5984 -28.5923 -28.5904 -28.5839
   -28.5821 -11.2079 -10.8338 -10.0646  -8.2287  -7.7928  -3.4264  -2.9840
[...]
    11.1943  11.4746  11.6956  11.8812

     occupation numbers 
     1.0000   1.0000   1.0000   1.0000   1.0000   1.0000   1.0000   1.0000
     1.0000   1.0000   1.0000   1.0000   1.0000   1.0000   1.0000   1.0000
     1.0000   1.0000   1.0000   1.0000   1.0000   1.0000   1.0000   1.0000
     1.0000   1.0000   1.0000   1.0000   1.0000   1.0000   1.0000   1.0000
     1.0000   1.0000   1.0000   1.0000   1.0000   1.0000   1.0000   0.0000
     0.0000   0.0000   0.0000   0.0000   0.0000   0.0000   0.0000   0.0000
     0.0000   0.0000   0.0000   0.0000   0.0000   0.0000   0.0000   0.0000
     0.0000   0.0000   0.0000   0.0000

          k = 0.4615 0.2665 0.0000 ( 24569 PWs)   bands (ev):

   -35.6939 -35.6807 -35.6516 -35.6506 -35.6458 -35.6381 -35.6256 -35.6082
   -35.6038 -35.5836 -35.1975 -35.1872 -35.1769 -35.1448 -35.1364 -28.5992
   -28.5901 -28.5846 -28.5745 -28.5681 -28.5653 -28.5597 -28.5534 -28.5433
   -28.5289 -10.5967 -10.4847 -10.1971  -8.7464  -8.1529  -4.0392  -2.6377
    -2.3704  -2.3099  -1.6159  -1.1445   0.2443   0.4278   0.7536   3.0484
     3.7084   3.7839   5.4247   5.5836   6.2395   6.4347   7.8642   8.6499
     8.9688   9.2461   9.5170   9.7103  10.2965  10.3420  10.8627  11.4664
    11.5483  12.0079  12.2214  12.3630

     occupation numbers 
     1.0000   1.0000   1.0000   1.0000   1.0000   1.0000   1.0000   1.0000
     1.0000   1.0000   1.0000   1.0000   1.0000   1.0000   1.0000   1.0000
     1.0000   1.0000   1.0000   1.0000   1.0000   1.0000   1.0000   1.0000
     1.0000   1.0000   1.0000   1.0000   1.0000   1.0000   1.0000   1.0000
     1.0000   1.0000   1.0000   1.0000   1.0000   1.0000   1.0000   0.0000
     0.0000   0.0000   0.0000   0.0000   0.0000   0.0000   0.0000   0.0000
     0.0000   0.0000   0.0000   0.0000   0.0000   0.0000   0.0000   0.0000
     0.0000   0.0000   0.0000   0.0000

          k = 0.4615 0.3580 0.0000 ( 24551 PWs)   bands (ev):

   -35.6916 -35.6794 -35.6497 -35.6493 -35.6454 -35.6368 -35.6257 -35.6072
   -35.6034 -35.5837 -35.1945 -35.1880 -35.1804 -35.1403 -35.1340 -28.5990
   -28.5888 -28.5822 -28.5743 -28.5692 -28.5641 -28.5574 -28.5561 -28.5445
   -28.5315 -10.4741 -10.4207 -10.2274  -8.7912  -8.2417  -4.0264  -2.6662
    -2.5933  -2.3332  -1.7051  -1.1906   0.2446   0.3501   0.9260   3.3426
     3.4916   3.7970   5.4960   5.6670   6.4037   6.4247   7.9557   8.8600
     9.0649   9.1563   9.3569   9.9373  10.0710  10.3486  10.8423  11.3094
    11.4077  11.7230  12.2125  12.2633

     occupation numbers 
     1.0000   1.0000   1.0000   1.0000   1.0000   1.0000   1.0000   1.0000
     1.0000   1.0000   1.0000   1.0000   1.0000   1.0000   1.0000   1.0000
     1.0000   1.0000   1.0000   1.0000   1.0000   1.0000   1.0000   1.0000
     1.0000   1.0000   1.0000   1.0000   1.0000   1.0000   1.0000   1.0000
     1.0000   1.0000   1.0000   1.0000   1.0000   1.0000   1.0000   0.0000
     0.0000   0.0000   0.0000   0.0000   0.0000   0.0000   0.0000   0.0000
     0.0000   0.0000   0.0000   0.0000   0.0000   0.0000   0.0000   0.0000
     0.0000   0.0000   0.0000   0.0000

          k = 0.4615 0.4494 0.0000 ( 24549 PWs)   bands (ev):

   -35.6901 -35.6809 -35.6488 -35.6477 -35.6438 -35.6383 -35.6235 -35.6065
   -35.6017 -35.5814 -35.1924 -35.1918 -35.1875 -35.1394 -35.1357 -28.5939
   -28.5866 -28.5743 -28.5693 -28.5681 -28.5619 -28.5575 -28.5495 -28.5433
   -28.5330 -10.4772 -10.3716 -10.0977  -8.7708  -8.3730  -3.8974  -2.9736
    -2.8013  -2.3284  -1.7182  -1.5174   0.2063   0.5045   1.1004   3.3426
     3.7916   3.8644   5.4100   5.9422   6.3754   6.9339   8.1371   8.7457
     9.0376   9.3183   9.4920   9.7526  10.1100  10.3403  10.6968  10.7921
    11.0146  11.3237  11.5265  12.1283

     occupation numbers 
     1.0000   1.0000   1.0000   1.0000   1.0000   1.0000   1.0000   1.0000
     1.0000   1.0000   1.0000   1.0000   1.0000   1.0000   1.0000   1.0000
     1.0000   1.0000   1.0000   1.0000   1.0000   1.0000   1.0000   1.0000
     1.0000   1.0000   1.0000   1.0000   1.0000   1.0000   1.0000   1.0000
     1.0000   1.0000   1.0000   1.0000   1.0000   1.0000   1.0000   0.0000
     0.0000   0.0000   0.0000   0.0000   0.0000   0.0000   0.0000   0.0000
     0.0000   0.0000   0.0000   0.0000   0.0000   0.0000   0.0000   0.0000
     0.0000   0.0000   0.0000   0.0000

          k = 0.4615 0.5409 0.0000 ( 24529 PWs)   bands (ev):

   -35.6864 -35.6737 -35.6485 -35.6440 -35.6424 -35.6312 -35.6237 -35.6062
   -35.6003 -35.5817 -35.1899 -35.1865 -35.1853 -35.1373 -35.1345 -28.5921
   -28.5878 -28.5706 -28.5674 -28.5668 -28.5632 -28.5620 -28.5458 -28.5420
   -28.5374 -10.5001 -10.3345  -9.9584  -8.6978  -8.5204  -3.6842  -3.3789
    -2.7718  -2.3480  -2.0554  -1.4953   0.1720   0.7485   0.9694   3.5491
     3.7583   3.9472   5.6161   6.0412   6.2534   7.7348   8.4227   8.5226
     8.8257   9.0948   9.3551   9.6658  10.0902  10.2872  10.5397  10.7749
    10.8465  11.1692  11.3950  11.7271

     occupation numbers 
     1.0000   1.0000   1.0000   1.0000   1.0000   1.0000   1.0000   1.0000
     1.0000   1.0000   1.0000   1.0000   1.0000   1.0000   1.0000   1.0000
     1.0000   1.0000   1.0000   1.0000   1.0000   1.0000   1.0000   1.0000
     1.0000   1.0000   1.0000   1.0000   1.0000   1.0000   1.0000   1.0000
     1.0000   1.0000   1.0000   1.0000   1.0000   1.0000   1.0000   0.0000
     0.0000   0.0000   0.0000   0.0000   0.0000   0.0000   0.0000   0.0000
     0.0000   0.0000   0.0000   0.0000   0.0000   0.0000   0.0000   0.0000
     0.0000   0.0000   0.0000   0.0000

          k = 0.4615 0.6324 0.0000 ( 24537 PWs)   bands (ev):

   -35.6855 -35.6743 -35.6505 -35.6431 -35.6401 -35.6318 -35.6231 -35.6082
   -35.5979 -35.5811 -35.1915 -35.1872 -35.1829 -35.1373 -35.1348 -28.5932
   -28.5869 -28.5711 -28.5685 -28.5663 -28.5627 -28.5620 -28.5463 -28.5415
   -28.5379 -10.4895 -10.3201  -9.9446  -8.6843  -8.5358  -3.6937  -3.3794
    -2.7832  -2.3678  -2.0626  -1.4843   0.1453   0.7365   0.9416   3.4520
     3.7595   3.9738   5.5552   5.9961   6.2823   7.6100   8.4148   8.5959
     8.9267   9.0758   9.4527   9.6754  10.1856  10.2764  10.5013  10.8009
    10.8709  11.2286  11.3924  11.6460

     occupation numbers 
     1.0000   1.0000   1.0000   1.0000   1.0000   1.0000   1.0000   1.0000
     1.0000   1.0000   1.0000   1.0000   1.0000   1.0000   1.0000   1.0000
     1.0000   1.0000   1.0000   1.0000   1.0000   1.0000   1.0000   1.0000
     1.0000   1.0000   1.0000   1.0000   1.0000   1.0000   1.0000   1.0000
     1.0000   1.0000   1.0000   1.0000   1.0000   1.0000   1.0000   0.0000
     0.0000   0.0000   0.0000   0.0000   0.0000   0.0000   0.0000   0.0000
     0.0000   0.0000   0.0000   0.0000   0.0000   0.0000   0.0000   0.0000
     0.0000   0.0000   0.0000   0.0000

          k = 0.4615 0.7239 0.0000 ( 24503 PWs)   bands (ev):

   -35.6874 -35.6805 -35.6515 -35.6450 -35.6404 -35.6380 -35.6224 -35.6093
   -35.5982 -35.5804 -35.1967 -35.1911 -35.1814 -35.1382 -35.1351 -28.5962
   -28.5855 -28.5750 -28.5715 -28.5690 -28.5608 -28.5588 -28.5502 -28.5442
   -28.5342 -10.4436 -10.3316 -10.0648  -8.7575  -8.3871  -3.9074  -2.9757
    -2.8559  -2.3603  -1.6836  -1.5807   0.1608   0.4658   1.0049   3.2332
     3.7522   3.7956   5.3638   5.8471   6.3651   6.8595   8.1474   8.7695
     9.0617   9.4056   9.6137   9.7845  10.2308  10.3839  10.7717  10.8355
    11.0381  11.3539  11.5233  12.1367

     occupation numbers 
     1.0000   1.0000   1.0000   1.0000   1.0000   1.0000   1.0000   1.0000
     1.0000   1.0000   1.0000   1.0000   1.0000   1.0000   1.0000   1.0000
     1.0000   1.0000   1.0000   1.0000   1.0000   1.0000   1.0000   1.0000
     1.0000   1.0000   1.0000   1.0000   1.0000   1.0000   1.0000   1.0000
     1.0000   1.0000   1.0000   1.0000   1.0000   1.0000   1.0000   0.0000
     0.0000   0.0000   0.0000   0.0000   0.0000   0.0000   0.0000   0.0000
     0.0000   0.0000   0.0000   0.0000   0.0000   0.0000   0.0000   0.0000
     0.0000   0.0000   0.0000   0.0000

          k = 0.4615 0.8154 0.0000 ( 24536 PWs)   bands (ev):

   -35.6877 -35.6776 -35.6520 -35.6454 -35.6426 -35.6351 -35.6252 -35.6097
   -35.6005 -35.5832 -35.1985 -35.1886 -35.1735 -35.1380 -35.1317 -28.6011
   -28.5878 -28.5816 -28.5764 -28.5711 -28.5631 -28.5570 -28.5566 -28.5464
   -28.5323 -10.4161 -10.3645 -10.1978  -8.7763  -8.2470  -4.0333  -2.7384
    -2.5542  -2.4028  -1.7731  -1.2210   0.2115   0.2589   0.8039   3.1996
     3.3969   3.7605   5.4597   5.5365   6.3782   6.3891   7.9932   8.9246
     9.1228   9.2006   9.4156   9.9968  10.1312  10.3498  10.8987  11.2457
    11.4936  11.8400  12.1281  12.2640

     occupation numbers 
     1.0000   1.0000   1.0000   1.0000   1.0000   1.0000   1.0000   1.0000
     1.0000   1.0000   1.0000   1.0000   1.0000   1.0000   1.0000   1.0000
     1.0000   1.0000   1.0000   1.0000   1.0000   1.0000   1.0000   1.0000
     1.0000   1.0000   1.0000   1.0000   1.0000   1.0000   1.0000   1.0000
     1.0000   1.0000   1.0000   1.0000   1.0000   1.0000   1.0000   0.0000
     0.0000   0.0000   0.0000   0.0000   0.0000   0.0000   0.0000   0.0000
     0.0000   0.0000   0.0000   0.0000   0.0000   0.0000   0.0000   0.0000
     0.0000   0.0000   0.0000   0.0000

          k = 0.4615-0.2825 0.0000 ( 24507 PWs)   bands (ev):

   -35.6897 -35.6792 -35.6538 -35.6474 -35.6420 -35.6368 -35.6246 -35.6115
   -35.5998 -35.5826 -35.2013 -35.1888 -35.1704 -35.1424 -35.1332 -28.6012
   -28.5891 -28.5832 -28.5765 -28.5700 -28.5644 -28.5584 -28.5542 -28.5453
   -28.5296 -10.5443 -10.4285 -10.1597  -8.7269  -8.1522  -4.0436  -2.6390
    -2.4743  -2.2897  -1.7618  -1.1455   0.2173   0.2981   0.6495   2.9047
     3.6098   3.7583   5.2768   5.5544   6.2170   6.4151   7.9131   8.7063
     9.0154   9.3143   9.5795   9.7531  10.3303  10.3932  10.9130  11.4958
    11.5527  11.9727  12.1098  12.3781

     occupation numbers 
     1.0000   1.0000   1.0000   1.0000   1.0000   1.0000   1.0000   1.0000
     1.0000   1.0000   1.0000   1.0000   1.0000   1.0000   1.0000   1.0000
     1.0000   1.0000   1.0000   1.0000   1.0000   1.0000   1.0000   1.0000
     1.0000   1.0000   1.0000   1.0000   1.0000   1.0000   1.0000   1.0000
     1.0000   1.0000   1.0000   1.0000   1.0000   1.0000   1.0000   0.0000
     0.0000   0.0000   0.0000   0.0000   0.0000   0.0000   0.0000   0.0000
     0.0000   0.0000   0.0000   0.0000   0.0000   0.0000   0.0000   0.0000
     0.0000   0.0000   0.0000   0.0000

          k = 0.4615-0.1910 0.0000 ( 24479 PWs)   bands (ev):

   -35.6890 -35.6794 -35.6508 -35.6467 -35.6451 -35.6369 -35.6250 -35.6086
   -35.6029 -35.5830 -35.1974 -35.1877 -35.1750 -35.1403 -35.1340 -28.6017
   -28.5887 -28.5815 -28.5770 -28.5723 -28.5640 -28.5579 -28.5567 -28.5475
   -28.5333 -10.7038 -10.4964 -10.0545  -8.6242  -8.1282  -3.9357  -2.6756
    -2.5781  -2.3180  -1.6671  -1.1963   0.1235   0.3721   0.8710   3.2598
     3.3326   3.8328   5.3795   5.5510   6.2909   6.5494   7.9010   8.4359
     8.8400   9.3916   9.6898   9.7706  10.2866  10.5810  10.9169  11.0040
    11.5196  11.6277  11.9735  12.1566

     occupation numbers 
     1.0000   1.0000   1.0000   1.0000   1.0000   1.0000   1.0000   1.0000
     1.0000   1.0000   1.0000   1.0000   1.0000   1.0000   1.0000   1.0000
     1.0000   1.0000   1.0000   1.0000   1.0000   1.0000   1.0000   1.0000
     1.0000   1.0000   1.0000   1.0000   1.0000   1.0000   1.0000   1.0000
     1.0000   1.0000   1.0000   1.0000   1.0000   1.0000   1.0000   0.0000
     0.0000   0.0000   0.0000   0.0000   0.0000   0.0000   0.0000   0.0000
     0.0000   0.0000   0.0000   0.0000   0.0000   0.0000   0.0000   0.0000
     0.0000   0.0000   0.0000   0.0000

          k = 0.4615-0.0995 0.0000 ( 24518 PWs)   bands (ev):

   -35.6897 -35.6827 -35.6536 -35.6473 -35.6428 -35.6402 -35.6243 -35.6115
   -35.6005 -35.5822 -35.1981 -35.1924 -35.1857 -35.1418 -35.1392 -28.5967
   -28.5866 -28.5745 -28.5720 -28.5692 -28.5620 -28.5595 -28.5497 -28.5443
   -28.5350 -10.8160 -10.5478  -9.9887  -8.4933  -8.1612  -3.7226  -3.0061
    -2.5157  -2.4170  -1.6850  -1.3455   0.2052   0.5289   1.0731   3.1601
     3.7682   3.9404   5.2020   5.8344   6.2869   7.0020   8.0213   8.2406
     8.7642   9.0276   9.3442   9.6902  10.1542  10.3757  10.7890  11.0256
    11.4158  11.4772  11.8474  11.9608

     occupation numbers 
     1.0000   1.0000   1.0000   1.0000   1.0000   1.0000   1.0000   1.0000
     1.0000   1.0000   1.0000   1.0000   1.0000   1.0000   1.0000   1.0000
     1.0000   1.0000   1.0000   1.0000   1.0000   1.0000   1.0000   1.0000
     1.0000   1.0000   1.0000   1.0000   1.0000   1.0000   1.0000   1.0000
     1.0000   1.0000   1.0000   1.0000   1.0000   1.0000   1.0000   0.0000
     0.0000   0.0000   0.0000   0.0000   0.0000   0.0000   0.0000   0.0000
     0.0000   0.0000   0.0000   0.0000   0.0000   0.0000   0.0000   0.0000
     0.0000   0.0000   0.0000   0.0000

          k = 0.4615-0.0080 0.0000 ( 24541 PWs)   bands (ev):

   -35.6907 -35.6764 -35.6507 -35.6483 -35.6440 -35.6339 -35.6235 -35.6085
   -35.6018 -35.5815 -35.1960 -35.1907 -35.1870 -35.1393 -35.1368 -28.5960
   -28.5888 -28.5726 -28.5713 -28.5686 -28.5643 -28.5637 -28.5478 -28.5438
   -28.5392 -10.8573 -10.5698  -9.9650  -8.4284  -8.1989  -3.4614  -3.3596
    -2.4936  -2.1573  -2.0661  -1.3244   0.3550   0.7875   0.8947   3.5188
     3.6115   3.9747   5.3728   5.9207   6.1793   7.7012   7.8913   8.2154
     8.2721   8.8828   9.2093   9.3676  10.1159  10.2650  10.9295  11.0192
    11.3238  11.5032  11.8311  11.9941

     occupation numbers 
     1.0000   1.0000   1.0000   1.0000   1.0000   1.0000   1.0000   1.0000
     1.0000   1.0000   1.0000   1.0000   1.0000   1.0000   1.0000   1.0000
     1.0000   1.0000   1.0000   1.0000   1.0000   1.0000   1.0000   1.0000
     1.0000   1.0000   1.0000   1.0000   1.0000   1.0000   1.0000   1.0000
     1.0000   1.0000   1.0000   1.0000   1.0000   1.0000   1.0000   0.0000
     0.0000   0.0000   0.0000   0.0000   0.0000   0.0000   0.0000   0.0000
     0.0000   0.0000   0.0000   0.0000   0.0000   0.0000   0.0000   0.0000
     0.0000   0.0000   0.0000   0.0000

          k = 0.4615 0.0835 0.0000 ( 24528 PWs)   bands (ev):

   -35.6920 -35.6828 -35.6510 -35.6496 -35.6461 -35.6402 -35.6252 -35.6089
   -35.6038 -35.5832 -35.1965 -35.1931 -35.1895 -35.1424 -35.1394 -28.5950
   -28.5878 -28.5747 -28.5703 -28.5681 -28.5631 -28.5585 -28.5499 -28.5433
   -28.5339 -10.8343 -10.5711 -10.0118  -8.5141  -8.1547  -3.7249  -2.9897
    -2.4891  -2.3845  -1.6979  -1.3035   0.2424   0.5537   1.1485   3.2627
     3.8288   3.9301   5.2324   5.9139   6.2613   7.0548   8.0036   8.2164
     8.7551   8.9080   9.3013   9.5883  10.1032  10.3550  10.7380  10.9850
    11.3303  11.4692  11.8469  11.9136

     occupation numbers 
     1.0000   1.0000   1.0000   1.0000   1.0000   1.0000   1.0000   1.0000
     1.0000   1.0000   1.0000   1.0000   1.0000   1.0000   1.0000   1.0000
     1.0000   1.0000   1.0000   1.0000   1.0000   1.0000   1.0000   1.0000
     1.0000   1.0000   1.0000   1.0000   1.0000   1.0000   1.0000   1.0000
     1.0000   1.0000   1.0000   1.0000   1.0000   1.0000   1.0000   0.0000
     0.0000   0.0000   0.0000   0.0000   0.0000   0.0000   0.0000   0.0000
     0.0000   0.0000   0.0000   0.0000   0.0000   0.0000   0.0000   0.0000
     0.0000   0.0000   0.0000   0.0000

          k = 0.4615 0.1750 0.0000 ( 24566 PWs)   bands (ev):

   -35.6930 -35.6812 -35.6507 -35.6492 -35.6473 -35.6387 -35.6257 -35.6069
   -35.6052 -35.5837 -35.1941 -35.1877 -35.1818 -35.1424 -35.1364 -28.5996
   -28.5896 -28.5824 -28.5749 -28.5700 -28.5649 -28.5576 -28.5568 -28.5452
   -28.5322 -10.7406 -10.5405 -10.0926  -8.6469  -8.1272  -3.9340  -2.6895
    -2.5147  -2.2556  -1.6277  -1.1550   0.1872   0.4232   0.9891   3.3989
     3.4240   3.8459   5.4117   5.6609   6.3051   6.5651   7.8597   8.3968
     8.8155   9.3355   9.6050   9.6763  10.2648  10.4612  10.8595  10.9094
    11.3983  11.6297  11.9804  12.2757

     occupation numbers 
     1.0000   1.0000   1.0000   1.0000   1.0000   1.0000   1.0000   1.0000
     1.0000   1.0000   1.0000   1.0000   1.0000   1.0000   1.0000   1.0000
     1.0000   1.0000   1.0000   1.0000   1.0000   1.0000   1.0000   1.0000
     1.0000   1.0000   1.0000   1.0000   1.0000   1.0000   1.0000   1.0000
     1.0000   1.0000   1.0000   1.0000   1.0000   1.0000   1.0000   0.0000
     0.0000   0.0000   0.0000   0.0000   0.0000   0.0000   0.0000   0.0000
     0.0000   0.0000   0.0000   0.0000   0.0000   0.0000   0.0000   0.0000
     0.0000   0.0000   0.0000   0.0000

     highest occupied, lowest unoccupied level (ev):     1.3098    2.4295

     Writing all to output data dir tmp/Sb2Te3-uatsx-c1-3.0.save/ :
     XML data file, pseudopotentials, collected wavefunctions

     init_run     :     10.92s CPU     11.74s WALL (       1 calls)
     electrons    :   1277.76s CPU   1287.60s WALL (       1 calls)

     Called by init_run:
     aceinit0     :     10.40s CPU     11.19s WALL (       1 calls)
     wfcinit      :      0.00s CPU      0.03s WALL (       1 calls)
     wfcinit:wfcr :      6.55s CPU      6.65s WALL (     170 calls)
     potinit      :      0.03s CPU      0.03s WALL (       1 calls)
     hinit0       :      0.45s CPU      0.45s WALL (       1 calls)

     Called by electrons:
     c_bands      :    235.81s CPU    238.87s WALL (       2 calls)
     sum_band     :      1.31s CPU      1.35s WALL (       1 calls)
     v_of_rho     :      0.03s CPU      0.03s WALL (       2 calls)
     v_h          :      0.00s CPU      0.00s WALL (       2 calls)
     v_xc         :      0.03s CPU      0.03s WALL (       2 calls)

     Called by c_bands:
     init_us_2    :      0.07s CPU      0.08s WALL (     255 calls)
     cegterg      :    224.29s CPU    227.17s WALL (     471 calls)

     Called by sum_band:
     sum_band:wei :      0.00s CPU      0.00s WALL (       1 calls)
     sum_band:loo :      1.31s CPU      1.35s WALL (       1 calls)
     sum_band:buf :      0.01s CPU      0.02s WALL (      85 calls)
     sum_band:ini :      0.02s CPU      0.03s WALL (      85 calls)

     Called by *egterg:
     cdiaghg      :     44.68s CPU     44.90s WALL (    7854 calls)
     cegterg:over :     17.70s CPU     17.84s WALL (    7684 calls)
     cegterg:upda :      3.43s CPU      3.46s WALL (    7684 calls)
     cegterg:last :      6.29s CPU      6.36s WALL (    4058 calls)
     h_psi        :    152.60s CPU    155.10s WALL (    8325 calls)
     g_psi        :      0.89s CPU      0.90s WALL (    7684 calls)

     Called by h_psi:
     h_psi:calbec :      9.25s CPU      9.34s WALL (    8325 calls)
     vloc_psi     :    132.71s CPU    135.00s WALL (    8325 calls)
     add_vuspsi   :      2.60s CPU      2.63s WALL (    8325 calls)

     General routines
     calbec       :     14.83s CPU     15.01s WALL (   16735 calls)
     fft          :      0.47s CPU      0.47s WALL (      19 calls)
     ffts         :      0.00s CPU      0.00s WALL (       1 calls)
     fftw         :    127.55s CPU    129.74s WALL (  528166 calls)
     fftc         :    965.98s CPU    971.85s WALL (  612000 calls)
     fftcw        :      4.17s CPU      4.24s WALL (   15300 calls)
     davcio       :      0.07s CPU      0.08s WALL (     510 calls)

     Parallel routines

     EXX routines
     exx_grid     :      0.00s CPU      0.00s WALL (       1 calls)
     exxinit      :     21.91s CPU     22.27s WALL (       1 calls)
     vexx         :   1018.53s CPU   1024.84s WALL (      85 calls)
     matcalc      :      5.65s CPU      5.71s WALL (    8410 calls)
     aceupdate    :      0.03s CPU      0.03s WALL (      85 calls)
     vexxace      :      7.64s CPU      7.74s WALL (    8325 calls)
     aceinit      :   1018.67s CPU   1024.98s WALL (      85 calls)

     PWSCF        :  21m56.27s CPU  22m42.73s WALL


   This run was terminated on:   0: 7:48  15May2025            

=------------------------------------------------------------------------------=
   JOB DONE.
=------------------------------------------------------------------------------=
