
     Program PWSCF v.7.3.1 starts on 15May2025 at  3:52:20 

     This program is part of the open-source Quantum ESPRESSO suite
     for quantum simulation of materials; please cite
         "P. Giannozzi et al., J. Phys.:Condens. Matter 21 395502 (2009);
         "P. Giannozzi et al., J. Phys.:Condens. Matter 29 465901 (2017);
         "P. Giannozzi et al., J. Chem. Phys. 152 154105 (2020);
          URL http://www.quantum-espresso.org", 
     in publications or presentations arising from this work. More details at
     http://www.quantum-espresso.org/quote

     Parallel version (MPI & OpenMP), running on      72 processor cores
     Number of MPI processes:                72
     Threads/MPI process:                     1

     MPI processes distributed on     3 nodes
     84055 MiB available memory on the printing compute node when the environment starts

     Waiting for input...
     Reading input from standard input

     Current dimensions of program PWSCF are:
     Max number of different atomic species (ntypx) = 10
     Max number of k-points (npk) =  40000
     Max angular momentum in pseudopotentials (lmaxx) =  4

     IMPORTANT: XC functional enforced from input :
     Exchange-correlation= B3LYP-V1R
                           (   7  13   9   7   0   0   0)
     EXX-fraction              =        0.20
     Any further DFT definition will be discarded
     Please, verify this is what you really want


     Atomic positions and unit cell read from directory:
     tmp/Sb2Te3-uatsx-c1-5.0.save/

     EXX fraction changed:   0.20

     R & G space division:  proc/nbgrp/npool/nimage =      72
     Subspace diagonalization in iterative solution of the eigenvalue problem:
     a serial algorithm will be used

     EXX: q-point mesh:     1    1    1
     EXX: setup a grid of 85 q-points centered on each k-point
     (k+q)-points:
   0.0000000   0.0000000   0.0000000         1    1
   0.0000000   0.0932652   0.0000000         2    1
   0.0000000   0.1865304   0.0000000         3    1
   0.0000000   0.2797955   0.0000000         4    1
   0.0000000   0.3730607   0.0000000         5    1
   0.0000000   0.4663259   0.0000000         6    1
   0.0000000   0.5595911   0.0000000         7    1
   0.0769231   0.0444120   0.0000000         8    1
   0.0769231   0.1376772   0.0000000         9    1
   0.0769231   0.2309423   0.0000000        10    1
   0.0769231   0.3242075   0.0000000        11    1
   0.0769231   0.4174727   0.0000000        12    1
   0.0769231   0.5107379   0.0000000        13    1
   0.0769231   0.6040030   0.0000000        14    1
   0.0769231  -0.5151791   0.0000000        15    1
   0.0769231  -0.4219139   0.0000000        16    1
   0.0769231  -0.3286487   0.0000000        17    1
   0.0769231  -0.2353835   0.0000000        18    1
   0.0769231  -0.1421184   0.0000000        19    1
   0.0769231  -0.0488532   0.0000000        20    1
   0.1538462   0.0888240   0.0000000        21    1
   0.1538462   0.1820892   0.0000000        22    1
   0.1538462   0.2753543   0.0000000        23    1
   0.1538462   0.3686195   0.0000000        24    1
   0.1538462   0.4618847   0.0000000        25    1
   0.1538462   0.5551499   0.0000000        26    1
   0.1538462   0.6484150   0.0000000        27    1
   0.1538462  -0.4707671   0.0000000        28    1
   0.1538462  -0.3775019   0.0000000        29    1
   0.1538462  -0.2842367   0.0000000        30    1
   0.1538462  -0.1909716   0.0000000        31    1
   0.1538462  -0.0977064   0.0000000        32    1
   0.1538462  -0.0044412   0.0000000        33    1
   0.2307692   0.1332360   0.0000000        34    1
   0.2307692   0.2265011   0.0000000        35    1
   0.2307692   0.3197663   0.0000000        36    1
   0.2307692   0.4130315   0.0000000        37    1
   0.2307692   0.5062967   0.0000000        38    1
   0.2307692   0.5995618   0.0000000        39    1
   0.2307692   0.6928270   0.0000000        40    1
   0.2307692  -0.4263551   0.0000000        41    1
   0.2307692  -0.3330899   0.0000000        42    1
   0.2307692  -0.2398247   0.0000000        43    1
   0.2307692  -0.1465596   0.0000000        44    1
   0.2307692  -0.0532944   0.0000000        45    1
   0.2307692   0.0399708   0.0000000        46    1
   0.3076923   0.1776480   0.0000000        47    1
   0.3076923   0.2709131   0.0000000        48    1
   0.3076923   0.3641783   0.0000000        49    1
   0.3076923   0.4574435   0.0000000        50    1
   0.3076923   0.5507087   0.0000000        51    1
   0.3076923   0.6439738   0.0000000        52    1
   0.3076923   0.7372390   0.0000000        53    1
   0.3076923  -0.3819431   0.0000000        54    1
   0.3076923  -0.2886779   0.0000000        55    1
   0.3076923  -0.1954128   0.0000000        56    1
   0.3076923  -0.1021476   0.0000000        57    1
   0.3076923  -0.0088824   0.0000000        58    1
   0.3076923   0.0843828   0.0000000        59    1
   0.3846154   0.2220599   0.0000000        60    1
   0.3846154   0.3153251   0.0000000        61    1
   0.3846154   0.4085903   0.0000000        62    1
   0.3846154   0.5018555   0.0000000        63    1
   0.3846154   0.5951206   0.0000000        64    1
   0.3846154   0.6883858   0.0000000        65    1
   0.3846154   0.7816510   0.0000000        66    1
   0.3846154  -0.3375311   0.0000000        67    1
   0.3846154  -0.2442659   0.0000000        68    1
   0.3846154  -0.1510008   0.0000000        69    1
   0.3846154  -0.0577356   0.0000000        70    1
   0.3846154   0.0355296   0.0000000        71    1
   0.3846154   0.1287948   0.0000000        72    1
   0.4615385   0.2664719   0.0000000        73    1
   0.4615385   0.3597371   0.0000000        74    1
   0.4615385   0.4530023   0.0000000        75    1
   0.4615385   0.5462675   0.0000000        76    1
   0.4615385   0.6395326   0.0000000        77    1
   0.4615385   0.7327978   0.0000000        78    1
   0.4615385   0.8260630   0.0000000        79    1
   0.4615385  -0.2931191   0.0000000        80    1
   0.4615385  -0.1998539   0.0000000        81    1
   0.4615385  -0.1065888   0.0000000        82    1
   0.4615385  -0.0133236   0.0000000        83    1
   0.4615385   0.0799416   0.0000000        84    1
   0.4615385   0.1732068   0.0000000        85    1

     Parallelization info
     --------------------
     sticks:   dense  smooth     PW     G-vecs:    dense   smooth      PW
     Min          18      18      5                 2760     2760     431
     Max          19      19      6                 2791     2791     456
     Sum        1343    1343    395               200001   200001   31739

     Using Slab Decomposition



     bravais-lattice index     =            0
     lattice parameter (alat)  =       8.5529  a.u.
     unit-cell volume          =    2526.9262 (a.u.)^3
     number of atoms/cell      =            5
     number of atomic types    =            2
     number of electrons       =        78.00
     number of Kohn-Sham states=           60
     kinetic-energy cutoff     =      70.0000  Ry
     charge density cutoff     =     280.0000  Ry
     cutoff for Fock operator  =     280.0000  Ry
     Exchange-correlation= B3LYP-V1R
                           (   7  13   9   7   0   0   0)
     EXX-fraction              =        0.20

     celldm(1)=   8.552915  celldm(2)=   0.000000  celldm(3)=   0.000000
     celldm(4)=   0.000000  celldm(5)=   0.000000  celldm(6)=   0.000000

     crystal axes: (cart. coord. in units of alat)
               a(1) = (   1.000000   0.000000   0.000000 )  
               a(2) = (  -0.476190   0.824778   0.000000 )  
               a(3) = (   0.000000   0.000000   4.896807 )  

     reciprocal axes: (cart. coord. in units 2 pi/alat)
               b(1) = (  1.000000  0.577356 -0.000000 )  
               b(2) = (  0.000000  1.212447  0.000000 )  
               b(3) = (  0.000000 -0.000000  0.204215 )  


     PseudoPot. # 1 for Sb read from file:
     /zfs-home/202401017n/pseudos/Sb_ONCV_PBE-1.2.upf
     MD5 check sum: 0417cd6c0fe8ce4611e2b23135f1abd9
     Pseudo is Norm-conserving, Zval = 15.0
     Generated using ONCVPSP code by D. R. Hamann
     Using radial grid of  602 points,  6 beta functions with: 
                l(1) =   0
                l(2) =   0
                l(3) =   1
                l(4) =   1
                l(5) =   2
                l(6) =   2

     PseudoPot. # 2 for Te read from file:
     /zfs-home/202401017n/pseudos/Te_ONCV_PBE-1.2.upf
     MD5 check sum: dd4de4dac1e38587f63aaf3700bb29d3
     Pseudo is Norm-conserving, Zval = 16.0
     Generated using ONCVPSP code by D. R. Hamann
     Using radial grid of  602 points,  6 beta functions with: 
                l(1) =   0
                l(2) =   0
                l(3) =   1
                l(4) =   1
                l(5) =   2
                l(6) =   2

     atomic species   valence    mass     pseudopotential
     Sb               15.00   121.76000     Sb( 1.00)
     Te               16.00   127.60000     Te( 1.00)

     No symmetry found


                                    s                        frac. trans.

      isym =  1     identity                                     

 cryst.   s( 1) = (     1          0          0      )
                  (     0          1          0      )
                  (     0          0          1      )

 cart.    s( 1) = (  1.0000000  0.0000000  0.0000000 )
                  (  0.0000000  1.0000000  0.0000000 )
                  (  0.0000000  0.0000000  1.0000000 )


   Cartesian axes

     site n.     atom                  positions (alat units)
         1        Sb     tau(   1) = (   0.5941563   0.4140600   2.8819763  )
         2        Te     tau(   2) = (   0.5757813   0.3831770   1.6487259  )
         3        Sb     tau(   3) = (   0.0713597   0.1150985   2.0147862  )
         4        Te     tau(   4) = (   0.0896521   0.1461334   3.2480478  )
         5        Te     tau(   5) = (   0.0946223   0.6770376   2.4483865  )

     -------------------------------------------------
     Parameters for Dispersion (Grimme-D2) Correction:
     -------------------------------------------------
       atom      VdW radius       C_6     

        Sb         3.555       1333.532
        Te         3.575       1101.101

   Crystallographic axes

     site n.     atom                  positions (cryst. coord.)
         1        Sb     tau(   1) = (  0.8332162  0.5020259  0.5885420  )
         2        Te     tau(   2) = (  0.7970108  0.4645820  0.3366941  )
         3        Sb     tau(   3) = (  0.1378125  0.1395508  0.4114490  )
         4        Te     tau(   4) = (  0.1740231  0.1771791  0.6632992  )
         5        Te     tau(   5) = (  0.4855140  0.8208724  0.4999966  )

     number of k points=    85
                       cart. coord. in units 2pi/alat
        k(    1) = (   0.0000000   0.0000000   0.0000000), wk =   0.0118343
        k(    2) = (   0.0000000   0.0932652   0.0000000), wk =   0.0236686
        k(    3) = (   0.0000000   0.1865304   0.0000000), wk =   0.0236686
        k(    4) = (   0.0000000   0.2797955   0.0000000), wk =   0.0236686
        k(    5) = (   0.0000000   0.3730607   0.0000000), wk =   0.0236686
        k(    6) = (   0.0000000   0.4663259   0.0000000), wk =   0.0236686
        k(    7) = (   0.0000000   0.5595911   0.0000000), wk =   0.0236686
        k(    8) = (   0.0769231   0.0444120   0.0000000), wk =   0.0236686
        k(    9) = (   0.0769231   0.1376772   0.0000000), wk =   0.0236686
        k(   10) = (   0.0769231   0.2309423   0.0000000), wk =   0.0236686
        k(   11) = (   0.0769231   0.3242075   0.0000000), wk =   0.0236686
        k(   12) = (   0.0769231   0.4174727   0.0000000), wk =   0.0236686
        k(   13) = (   0.0769231   0.5107379   0.0000000), wk =   0.0236686
        k(   14) = (   0.0769231   0.6040030   0.0000000), wk =   0.0236686
        k(   15) = (   0.0769231  -0.5151791   0.0000000), wk =   0.0236686
        k(   16) = (   0.0769231  -0.4219139   0.0000000), wk =   0.0236686
        k(   17) = (   0.0769231  -0.3286487   0.0000000), wk =   0.0236686
        k(   18) = (   0.0769231  -0.2353835   0.0000000), wk =   0.0236686
        k(   19) = (   0.0769231  -0.1421184   0.0000000), wk =   0.0236686
        k(   20) = (   0.0769231  -0.0488532   0.0000000), wk =   0.0236686
        k(   21) = (   0.1538462   0.0888240   0.0000000), wk =   0.0236686
        k(   22) = (   0.1538462   0.1820892   0.0000000), wk =   0.0236686
        k(   23) = (   0.1538462   0.2753543   0.0000000), wk =   0.0236686
        k(   24) = (   0.1538462   0.3686195   0.0000000), wk =   0.0236686
        k(   25) = (   0.1538462   0.4618847   0.0000000), wk =   0.0236686
        k(   26) = (   0.1538462   0.5551499   0.0000000), wk =   0.0236686
        k(   27) = (   0.1538462   0.6484150   0.0000000), wk =   0.0236686
        k(   28) = (   0.1538462  -0.4707671   0.0000000), wk =   0.0236686
        k(   29) = (   0.1538462  -0.3775019   0.0000000), wk =   0.0236686
        k(   30) = (   0.1538462  -0.2842367   0.0000000), wk =   0.0236686
        k(   31) = (   0.1538462  -0.1909716   0.0000000), wk =   0.0236686
        k(   32) = (   0.1538462  -0.0977064   0.0000000), wk =   0.0236686
        k(   33) = (   0.1538462  -0.0044412   0.0000000), wk =   0.0236686
        k(   34) = (   0.2307692   0.1332360   0.0000000), wk =   0.0236686
        k(   35) = (   0.2307692   0.2265011   0.0000000), wk =   0.0236686
        k(   36) = (   0.2307692   0.3197663   0.0000000), wk =   0.0236686
        k(   37) = (   0.2307692   0.4130315   0.0000000), wk =   0.0236686
        k(   38) = (   0.2307692   0.5062967   0.0000000), wk =   0.0236686
        k(   39) = (   0.2307692   0.5995618   0.0000000), wk =   0.0236686
        k(   40) = (   0.2307692   0.6928270   0.0000000), wk =   0.0236686
        k(   41) = (   0.2307692  -0.4263551   0.0000000), wk =   0.0236686
        k(   42) = (   0.2307692  -0.3330899   0.0000000), wk =   0.0236686
        k(   43) = (   0.2307692  -0.2398247   0.0000000), wk =   0.0236686
        k(   44) = (   0.2307692  -0.1465596   0.0000000), wk =   0.0236686
        k(   45) = (   0.2307692  -0.0532944   0.0000000), wk =   0.0236686
        k(   46) = (   0.2307692   0.0399708   0.0000000), wk =   0.0236686
        k(   47) = (   0.3076923   0.1776480   0.0000000), wk =   0.0236686
        k(   48) = (   0.3076923   0.2709131   0.0000000), wk =   0.0236686
        k(   49) = (   0.3076923   0.3641783   0.0000000), wk =   0.0236686
        k(   50) = (   0.3076923   0.4574435   0.0000000), wk =   0.0236686
        k(   51) = (   0.3076923   0.5507087   0.0000000), wk =   0.0236686
        k(   52) = (   0.3076923   0.6439738   0.0000000), wk =   0.0236686
        k(   53) = (   0.3076923   0.7372390   0.0000000), wk =   0.0236686
        k(   54) = (   0.3076923  -0.3819431   0.0000000), wk =   0.0236686
        k(   55) = (   0.3076923  -0.2886779   0.0000000), wk =   0.0236686
        k(   56) = (   0.3076923  -0.1954128   0.0000000), wk =   0.0236686
        k(   57) = (   0.3076923  -0.1021476   0.0000000), wk =   0.0236686
        k(   58) = (   0.3076923  -0.0088824   0.0000000), wk =   0.0236686
        k(   59) = (   0.3076923   0.0843828   0.0000000), wk =   0.0236686
        k(   60) = (   0.3846154   0.2220599   0.0000000), wk =   0.0236686
        k(   61) = (   0.3846154   0.3153251   0.0000000), wk =   0.0236686
        k(   62) = (   0.3846154   0.4085903   0.0000000), wk =   0.0236686
        k(   63) = (   0.3846154   0.5018555   0.0000000), wk =   0.0236686
        k(   64) = (   0.3846154   0.5951206   0.0000000), wk =   0.0236686
        k(   65) = (   0.3846154   0.6883858   0.0000000), wk =   0.0236686
        k(   66) = (   0.3846154   0.7816510   0.0000000), wk =   0.0236686
        k(   67) = (   0.3846154  -0.3375311   0.0000000), wk =   0.0236686
        k(   68) = (   0.3846154  -0.2442659   0.0000000), wk =   0.0236686
        k(   69) = (   0.3846154  -0.1510008   0.0000000), wk =   0.0236686
        k(   70) = (   0.3846154  -0.0577356   0.0000000), wk =   0.0236686
        k(   71) = (   0.3846154   0.0355296   0.0000000), wk =   0.0236686
        k(   72) = (   0.3846154   0.1287948   0.0000000), wk =   0.0236686
        k(   73) = (   0.4615385   0.2664719   0.0000000), wk =   0.0236686
        k(   74) = (   0.4615385   0.3597371   0.0000000), wk =   0.0236686
        k(   75) = (   0.4615385   0.4530023   0.0000000), wk =   0.0236686
        k(   76) = (   0.4615385   0.5462675   0.0000000), wk =   0.0236686
        k(   77) = (   0.4615385   0.6395326   0.0000000), wk =   0.0236686
        k(   78) = (   0.4615385   0.7327978   0.0000000), wk =   0.0236686
        k(   79) = (   0.4615385   0.8260630   0.0000000), wk =   0.0236686
        k(   80) = (   0.4615385  -0.2931191   0.0000000), wk =   0.0236686
        k(   81) = (   0.4615385  -0.1998539   0.0000000), wk =   0.0236686
        k(   82) = (   0.4615385  -0.1065888   0.0000000), wk =   0.0236686
        k(   83) = (   0.4615385  -0.0133236   0.0000000), wk =   0.0236686
        k(   84) = (   0.4615385   0.0799416   0.0000000), wk =   0.0236686
        k(   85) = (   0.4615385   0.1732068   0.0000000), wk =   0.0236686

                       cryst. coord.
        k(    1) = (   0.0000000   0.0000000   0.0000000), wk =   0.0118343
        k(    2) = (   0.0000000   0.0769231   0.0000000), wk =   0.0236686
        k(    3) = (   0.0000000   0.1538462   0.0000000), wk =   0.0236686
        k(    4) = (   0.0000000   0.2307692   0.0000000), wk =   0.0236686
        k(    5) = (   0.0000000   0.3076923   0.0000000), wk =   0.0236686
        k(    6) = (   0.0000000   0.3846154   0.0000000), wk =   0.0236686
        k(    7) = (   0.0000000   0.4615385   0.0000000), wk =   0.0236686
        k(    8) = (   0.0769231   0.0000000   0.0000000), wk =   0.0236686
        k(    9) = (   0.0769231   0.0769231   0.0000000), wk =   0.0236686
        k(   10) = (   0.0769231   0.1538462   0.0000000), wk =   0.0236686
        k(   11) = (   0.0769231   0.2307692   0.0000000), wk =   0.0236686
        k(   12) = (   0.0769231   0.3076923   0.0000000), wk =   0.0236686
        k(   13) = (   0.0769231   0.3846154   0.0000000), wk =   0.0236686
        k(   14) = (   0.0769231   0.4615385   0.0000000), wk =   0.0236686
        k(   15) = (   0.0769231  -0.4615385   0.0000000), wk =   0.0236686
        k(   16) = (   0.0769231  -0.3846154   0.0000000), wk =   0.0236686
        k(   17) = (   0.0769231  -0.3076923   0.0000000), wk =   0.0236686
        k(   18) = (   0.0769231  -0.2307692   0.0000000), wk =   0.0236686
        k(   19) = (   0.0769231  -0.1538462   0.0000000), wk =   0.0236686
        k(   20) = (   0.0769231  -0.0769231   0.0000000), wk =   0.0236686
        k(   21) = (   0.1538462   0.0000000   0.0000000), wk =   0.0236686
        k(   22) = (   0.1538462   0.0769231   0.0000000), wk =   0.0236686
        k(   23) = (   0.1538462   0.1538462   0.0000000), wk =   0.0236686
        k(   24) = (   0.1538462   0.2307692   0.0000000), wk =   0.0236686
        k(   25) = (   0.1538462   0.3076923   0.0000000), wk =   0.0236686
        k(   26) = (   0.1538462   0.3846154   0.0000000), wk =   0.0236686
        k(   27) = (   0.1538462   0.4615385   0.0000000), wk =   0.0236686
        k(   28) = (   0.1538462  -0.4615385   0.0000000), wk =   0.0236686
        k(   29) = (   0.1538462  -0.3846154   0.0000000), wk =   0.0236686
        k(   30) = (   0.1538462  -0.3076923   0.0000000), wk =   0.0236686
        k(   31) = (   0.1538462  -0.2307692   0.0000000), wk =   0.0236686
        k(   32) = (   0.1538462  -0.1538462   0.0000000), wk =   0.0236686
        k(   33) = (   0.1538462  -0.0769231   0.0000000), wk =   0.0236686
        k(   34) = (   0.2307692  -0.0000000   0.0000000), wk =   0.0236686
        k(   35) = (   0.2307692   0.0769231   0.0000000), wk =   0.0236686
        k(   36) = (   0.2307692   0.1538462   0.0000000), wk =   0.0236686
        k(   37) = (   0.2307692   0.2307692   0.0000000), wk =   0.0236686
        k(   38) = (   0.2307692   0.3076923   0.0000000), wk =   0.0236686
        k(   39) = (   0.2307692   0.3846154   0.0000000), wk =   0.0236686
        k(   40) = (   0.2307692   0.4615385   0.0000000), wk =   0.0236686
        k(   41) = (   0.2307692  -0.4615385   0.0000000), wk =   0.0236686
        k(   42) = (   0.2307692  -0.3846154   0.0000000), wk =   0.0236686
        k(   43) = (   0.2307692  -0.3076923   0.0000000), wk =   0.0236686
        k(   44) = (   0.2307692  -0.2307692   0.0000000), wk =   0.0236686
        k(   45) = (   0.2307692  -0.1538462   0.0000000), wk =   0.0236686
        k(   46) = (   0.2307692  -0.0769231   0.0000000), wk =   0.0236686
        k(   47) = (   0.3076923   0.0000000   0.0000000), wk =   0.0236686
        k(   48) = (   0.3076923   0.0769231   0.0000000), wk =   0.0236686
        k(   49) = (   0.3076923   0.1538462   0.0000000), wk =   0.0236686
        k(   50) = (   0.3076923   0.2307692   0.0000000), wk =   0.0236686
        k(   51) = (   0.3076923   0.3076923   0.0000000), wk =   0.0236686
        k(   52) = (   0.3076923   0.3846154   0.0000000), wk =   0.0236686
        k(   53) = (   0.3076923   0.4615385   0.0000000), wk =   0.0236686
        k(   54) = (   0.3076923  -0.4615385   0.0000000), wk =   0.0236686
        k(   55) = (   0.3076923  -0.3846154   0.0000000), wk =   0.0236686
        k(   56) = (   0.3076923  -0.3076923   0.0000000), wk =   0.0236686
        k(   57) = (   0.3076923  -0.2307692   0.0000000), wk =   0.0236686
        k(   58) = (   0.3076923  -0.1538462   0.0000000), wk =   0.0236686
        k(   59) = (   0.3076923  -0.0769231   0.0000000), wk =   0.0236686
        k(   60) = (   0.3846154   0.0000000   0.0000000), wk =   0.0236686
        k(   61) = (   0.3846154   0.0769231   0.0000000), wk =   0.0236686
        k(   62) = (   0.3846154   0.1538462   0.0000000), wk =   0.0236686
        k(   63) = (   0.3846154   0.2307692   0.0000000), wk =   0.0236686
        k(   64) = (   0.3846154   0.3076923   0.0000000), wk =   0.0236686
        k(   65) = (   0.3846154   0.3846154   0.0000000), wk =   0.0236686
        k(   66) = (   0.3846154   0.4615385   0.0000000), wk =   0.0236686
        k(   67) = (   0.3846154  -0.4615385   0.0000000), wk =   0.0236686
        k(   68) = (   0.3846154  -0.3846154   0.0000000), wk =   0.0236686
        k(   69) = (   0.3846154  -0.3076923   0.0000000), wk =   0.0236686
        k(   70) = (   0.3846154  -0.2307692   0.0000000), wk =   0.0236686
        k(   71) = (   0.3846154  -0.1538462   0.0000000), wk =   0.0236686
        k(   72) = (   0.3846154  -0.0769231   0.0000000), wk =   0.0236686
        k(   73) = (   0.4615385  -0.0000000   0.0000000), wk =   0.0236686
        k(   74) = (   0.4615385   0.0769231   0.0000000), wk =   0.0236686
        k(   75) = (   0.4615385   0.1538462   0.0000000), wk =   0.0236686
        k(   76) = (   0.4615385   0.2307692   0.0000000), wk =   0.0236686
        k(   77) = (   0.4615385   0.3076923   0.0000000), wk =   0.0236686
        k(   78) = (   0.4615385   0.3846154   0.0000000), wk =   0.0236686
        k(   79) = (   0.4615385   0.4615385   0.0000000), wk =   0.0236686
        k(   80) = (   0.4615385  -0.4615385   0.0000000), wk =   0.0236686
        k(   81) = (   0.4615385  -0.3846154   0.0000000), wk =   0.0236686
        k(   82) = (   0.4615385  -0.3076923   0.0000000), wk =   0.0236686
        k(   83) = (   0.4615385  -0.2307692   0.0000000), wk =   0.0236686
        k(   84) = (   0.4615385  -0.1538462   0.0000000), wk =   0.0236686
        k(   85) = (   0.4615385  -0.0769231   0.0000000), wk =   0.0236686

     Dense  grid:   200001 G-vectors     FFT dimensions: (  45,  45, 225)

     Dynamical RAM for                 wfc:       0.32 MB

     Dynamical RAM for     wfc (w. buffer):       0.32 MB

     Dynamical RAM for                 EXX:     471.51 MB

     Dynamical RAM for           str. fact:       0.09 MB

     Dynamical RAM for           local pot:       0.00 MB

     Dynamical RAM for          nlocal pot:       0.48 MB

     Dynamical RAM for                qrad:       2.85 MB

     Dynamical RAM for          rho,v,vnew:       0.31 MB

     Dynamical RAM for           G-vectors:       0.18 MB

     Dynamical RAM for          h,s,v(r/c):       0.66 MB

     Dynamical RAM for          <psi|beta>:       0.08 MB

     Dynamical RAM for                 psi:       0.64 MB

     Dynamical RAM for                hpsi:       0.64 MB

     Dynamical RAM for      wfcinit/wfcrot:       0.72 MB

     Estimated static dynamical RAM per process >     476.17 MB

     Estimated max dynamical RAM per process >     478.18 MB

     Estimated total dynamical RAM >      33.62 GB
     EXX: initializing ACE and reading from file
     ACE potential read for       60 bands
     ACE potential read for       60 bands
     ACE potential read for       60 bands
     ACE potential read for       60 bands
     ACE potential read for       60 bands
     ACE potential read for       60 bands
     ACE potential read for       60 bands
     ACE potential read for       60 bands
     ACE potential read for       60 bands
     ACE potential read for       60 bands
     ACE potential read for       60 bands
     ACE potential read for       60 bands
     ACE potential read for       60 bands
     ACE potential read for       60 bands
     ACE potential read for       60 bands
     ACE potential read for       60 bands
     ACE potential read for       60 bands
     ACE potential read for       60 bands
     ACE potential read for       60 bands
     ACE potential read for       60 bands
     ACE potential read for       60 bands
     ACE potential read for       60 bands
     ACE potential read for       60 bands
     ACE potential read for       60 bands
     ACE potential read for       60 bands
     ACE potential read for       60 bands
     ACE potential read for       60 bands
     ACE potential read for       60 bands
     ACE potential read for       60 bands
     ACE potential read for       60 bands
     ACE potential read for       60 bands
     ACE potential read for       60 bands
     ACE potential read for       60 bands
     ACE potential read for       60 bands
     ACE potential read for       60 bands
     ACE potential read for       60 bands
     ACE potential read for       60 bands
     ACE potential read for       60 bands
     ACE potential read for       60 bands
     ACE potential read for       60 bands
     ACE potential read for       60 bands
     ACE potential read for       60 bands
     ACE potential read for       60 bands
     ACE potential read for       60 bands
     ACE potential read for       60 bands
     ACE potential read for       60 bands
     ACE potential read for       60 bands
     ACE potential read for       60 bands
     ACE potential read for       60 bands
     ACE potential read for       60 bands
     ACE potential read for       60 bands
     ACE potential read for       60 bands
     ACE potential read for       60 bands
     ACE potential read for       60 bands
     ACE potential read for       60 bands
     ACE potential read for       60 bands
     ACE potential read for       60 bands
     ACE potential read for       60 bands
     ACE potential read for       60 bands
     ACE potential read for       60 bands
     ACE potential read for       60 bands
     ACE potential read for       60 bands
     ACE potential read for       60 bands
     ACE potential read for       60 bands
     ACE potential read for       60 bands
     ACE potential read for       60 bands
     ACE potential read for       60 bands
     ACE potential read for       60 bands
     ACE potential read for       60 bands
     ACE potential read for       60 bands
     ACE potential read for       60 bands
     ACE potential read for       60 bands
     ACE potential read for       60 bands
     ACE potential read for       60 bands
     ACE potential read for       60 bands
     ACE potential read for       60 bands
     ACE potential read for       60 bands
     ACE potential read for       60 bands
     ACE potential read for       60 bands
     ACE potential read for       60 bands
     ACE potential read for       60 bands
     ACE potential read for       60 bands
     ACE potential read for       60 bands
     ACE potential read for       60 bands
     ACE potential read for       60 bands
     Starting ACE correctly read from file

     The potential is recalculated from file :
     tmp/Sb2Te3-uatsx-c1-5.0.save/charge-density

     Starting wfcs are random

     Band Structure Calculation
     Davidson diagonalization with overlap

     Computing kpt #:     1  of    85
     total cpu time spent up to now is       13.7 secs

     Computing kpt #:     2  of    85
     total cpu time spent up to now is       15.1 secs

     Computing kpt #:     3  of    85
     total cpu time spent up to now is       16.4 secs

     Computing kpt #:     4  of    85
     total cpu time spent up to now is       17.7 secs

     Computing kpt #:     5  of    85
     total cpu time spent up to now is       19.0 secs

     Computing kpt #:     6  of    85
     total cpu time spent up to now is       20.4 secs

     Computing kpt #:     7  of    85
     total cpu time spent up to now is       21.9 secs

     Computing kpt #:     8  of    85
     total cpu time spent up to now is       23.2 secs

     Computing kpt #:     9  of    85
     total cpu time spent up to now is       24.6 secs

     Computing kpt #:    10  of    85
     total cpu time spent up to now is       26.0 secs

     Computing kpt #:    11  of    85
     total cpu time spent up to now is       27.3 secs

     Computing kpt #:    12  of    85
     total cpu time spent up to now is       28.8 secs

     Computing kpt #:    13  of    85
     total cpu time spent up to now is       30.2 secs

     Computing kpt #:    14  of    85
     total cpu time spent up to now is       31.6 secs

     Computing kpt #:    15  of    85
     total cpu time spent up to now is       33.1 secs

     Computing kpt #:    16  of    85
     total cpu time spent up to now is       34.5 secs

     Computing kpt #:    17  of    85
     total cpu time spent up to now is       35.8 secs

     Computing kpt #:    18  of    85
     total cpu time spent up to now is       37.1 secs

     Computing kpt #:    19  of    85
     total cpu time spent up to now is       38.4 secs

     Computing kpt #:    20  of    85
     total cpu time spent up to now is       39.7 secs

     Computing kpt #:    21  of    85
     total cpu time spent up to now is       40.9 secs

     Computing kpt #:    22  of    85
     total cpu time spent up to now is       42.3 secs

     Computing kpt #:    23  of    85
     total cpu time spent up to now is       43.6 secs

     Computing kpt #:    24  of    85
     total cpu time spent up to now is       47.1 secs

     Computing kpt #:    25  of    85
     total cpu time spent up to now is       48.6 secs

     Computing kpt #:    26  of    85
     total cpu time spent up to now is       50.1 secs

     Computing kpt #:    27  of    85
     total cpu time spent up to now is       51.4 secs

     Computing kpt #:    28  of    85
     total cpu time spent up to now is       52.8 secs

     Computing kpt #:    29  of    85
     total cpu time spent up to now is       54.2 secs

     Computing kpt #:    30  of    85
     total cpu time spent up to now is       55.4 secs

     Computing kpt #:    31  of    85
     total cpu time spent up to now is       56.8 secs

     Computing kpt #:    32  of    85
     total cpu time spent up to now is       58.2 secs

     Computing kpt #:    33  of    85
     total cpu time spent up to now is       59.4 secs

     Computing kpt #:    34  of    85
     total cpu time spent up to now is       60.7 secs

     Computing kpt #:    35  of    85
     total cpu time spent up to now is       62.1 secs

     Computing kpt #:    36  of    85
     total cpu time spent up to now is       63.5 secs

     Computing kpt #:    37  of    85
     total cpu time spent up to now is       65.0 secs

     Computing kpt #:    38  of    85
     total cpu time spent up to now is       66.3 secs

     Computing kpt #:    39  of    85
     total cpu time spent up to now is       67.7 secs

     Computing kpt #:    40  of    85
     total cpu time spent up to now is       68.9 secs

     Computing kpt #:    41  of    85
     total cpu time spent up to now is       71.5 secs

     Computing kpt #:    42  of    85
     total cpu time spent up to now is       72.9 secs

     Computing kpt #:    43  of    85
     total cpu time spent up to now is       74.3 secs

     Computing kpt #:    44  of    85
     total cpu time spent up to now is       75.6 secs

     Computing kpt #:    45  of    85
     total cpu time spent up to now is       76.9 secs

     Computing kpt #:    46  of    85
     total cpu time spent up to now is       78.3 secs

     Computing kpt #:    47  of    85
     total cpu time spent up to now is       79.7 secs

     Computing kpt #:    48  of    85
     total cpu time spent up to now is       81.1 secs

     Computing kpt #:    49  of    85
     total cpu time spent up to now is       82.3 secs

     Computing kpt #:    50  of    85
     total cpu time spent up to now is       83.7 secs

     Computing kpt #:    51  of    85
     total cpu time spent up to now is       85.2 secs

     Computing kpt #:    52  of    85
     total cpu time spent up to now is       86.6 secs

     Computing kpt #:    53  of    85
     total cpu time spent up to now is       87.8 secs

     Computing kpt #:    54  of    85
     total cpu time spent up to now is       89.1 secs

     Computing kpt #:    55  of    85
     total cpu time spent up to now is       90.5 secs

     Computing kpt #:    56  of    85
     total cpu time spent up to now is       91.8 secs

     Computing kpt #:    57  of    85
     total cpu time spent up to now is       93.1 secs

     Computing kpt #:    58  of    85
     total cpu time spent up to now is       94.5 secs

     Computing kpt #:    59  of    85
     total cpu time spent up to now is       97.1 secs

     Computing kpt #:    60  of    85
     total cpu time spent up to now is       98.5 secs

     Computing kpt #:    61  of    85
     total cpu time spent up to now is      100.0 secs

     Computing kpt #:    62  of    85
     total cpu time spent up to now is      101.5 secs

     Computing kpt #:    63  of    85
     total cpu time spent up to now is      102.9 secs

     Computing kpt #:    64  of    85
     total cpu time spent up to now is      104.3 secs

     Computing kpt #:    65  of    85
     total cpu time spent up to now is      105.6 secs

     Computing kpt #:    66  of    85
     total cpu time spent up to now is      107.1 secs

     Computing kpt #:    67  of    85
     total cpu time spent up to now is      108.5 secs

     Computing kpt #:    68  of    85
     total cpu time spent up to now is      109.9 secs

     Computing kpt #:    69  of    85
     total cpu time spent up to now is      111.4 secs

     Computing kpt #:    70  of    85
     total cpu time spent up to now is      112.8 secs

     Computing kpt #:    71  of    85
     total cpu time spent up to now is      114.2 secs

     Computing kpt #:    72  of    85
     total cpu time spent up to now is      115.6 secs

     Computing kpt #:    73  of    85
     total cpu time spent up to now is      117.0 secs

     Computing kpt #:    74  of    85
     total cpu time spent up to now is      118.4 secs

     Computing kpt #:    75  of    85
     total cpu time spent up to now is      120.0 secs

     Computing kpt #:    76  of    85
     total cpu time spent up to now is      121.5 secs

     Computing kpt #:    77  of    85
     total cpu time spent up to now is      122.9 secs

     Computing kpt #:    78  of    85
     total cpu time spent up to now is      124.5 secs

     Computing kpt #:    79  of    85
     total cpu time spent up to now is      125.9 secs

     Computing kpt #:    80  of    85
     total cpu time spent up to now is      127.2 secs

     Computing kpt #:    81  of    85
     total cpu time spent up to now is      128.5 secs

     Computing kpt #:    82  of    85
     total cpu time spent up to now is      130.0 secs

     Computing kpt #:    83  of    85
     total cpu time spent up to now is      131.5 secs

     Computing kpt #:    84  of    85
     total cpu time spent up to now is      133.1 secs

     Computing kpt #:    85  of    85
     total cpu time spent up to now is      134.4 secs

     ethr =  1.28E-09,  avg # of iterations = 45.2

     total cpu time spent up to now is      135.8 secs

     End of band structure calculation

          k = 0.0000 0.0000 0.0000 ( 24991 PWs)   bands (ev):

   -35.8327 -35.8287 -35.8229 -35.8190 -35.8030 -35.7990 -35.7905 -35.7865
   -35.7702 -35.7662 -35.4133 -35.4075 -35.3920 -35.3851 -35.3767 -28.7897
   -28.7876 -28.7872 -28.7852 -28.7519 -28.7496 -28.7447 -28.7424 -28.7149
   -28.7126 -12.2655 -11.7892 -10.5568  -7.7372  -6.4165  -1.4160  -1.0543
    -1.0538  -0.7884  -0.7794  -0.2421  -0.0370   0.1596   0.4169   2.1077
     2.7296   2.8980   3.8596   4.0832   4.2505   6.3880   6.6185   7.4251
     8.1216   8.2916   8.6752   8.9216   9.3364   9.4171   9.5447  10.1996
    10.4314  10.5525  10.7418  10.8365

     occupation numbers 
     1.0000   1.0000   1.0000   1.0000   1.0000   1.0000   1.0000   1.0000
     1.0000   1.0000   1.0000   1.0000   1.0000   1.0000   1.0000   1.0000
     1.0000   1.0000   1.0000   1.0000   1.0000   1.0000   1.0000   1.0000
     1.0000   1.0000   1.0000   1.0000   1.0000   1.0000   1.0000   1.0000
     1.0000   1.0000   1.0000   1.0000   1.0000   1.0000   1.0000   0.0000
     0.0000   0.0000   0.0000   0.0000   0.0000   0.0000   0.0000   0.0000
     0.0000   0.0000   0.0000   0.0000   0.0000   0.0000   0.0000   0.0000
     0.0000   0.0000   0.0000   0.0000

          k = 0.0000 0.0933 0.0000 ( 24962 PWs)   bands (ev):

   -35.8310 -35.8270 -35.8247 -35.8207 -35.7982 -35.7942 -35.7918 -35.7878
   -35.7650 -35.7610 -35.4184 -35.4069 -35.3892 -35.3766 -35.3657 -28.7841
   -28.7816 -28.7813 -28.7789 -28.7515 -28.7491 -28.7477 -28.7454 -28.7198
   -28.7176 -12.2026 -11.7303 -10.5229  -7.7690  -6.5274  -1.5902  -1.5265
    -1.1400  -1.0836  -0.7908  -0.4848   0.0698   0.2447   0.7817   2.2230
     2.8024   2.9670   3.8576   4.1734   4.5052   6.4705   6.6665   7.5159
     8.0154   8.3352   8.4660   8.8307   9.3648   9.5236   9.6275   9.9930
    10.4389  10.6999  10.9505  11.3410

     occupation numbers 
     1.0000   1.0000   1.0000   1.0000   1.0000   1.0000   1.0000   1.0000
     1.0000   1.0000   1.0000   1.0000   1.0000   1.0000   1.0000   1.0000
     1.0000   1.0000   1.0000   1.0000   1.0000   1.0000   1.0000   1.0000
     1.0000   1.0000   1.0000   1.0000   1.0000   1.0000   1.0000   1.0000
     1.0000   1.0000   1.0000   1.0000   1.0000   1.0000   1.0000   0.0000
     0.0000   0.0000   0.0000   0.0000   0.0000   0.0000   0.0000   0.0000
     0.0000   0.0000   0.0000   0.0000   0.0000   0.0000   0.0000   0.0000
     0.0000   0.0000   0.0000   0.0000

          k = 0.0000 0.1865 0.0000 ( 24964 PWs)   bands (ev):

   -35.8195 -35.8156 -35.8155 -35.8117 -35.7820 -35.7781 -35.7715 -35.7675
   -35.7468 -35.7429 -35.4155 -35.4034 -35.3859 -35.3746 -35.3639 -28.7790
   -28.7765 -28.7723 -28.7699 -28.7521 -28.7499 -28.7456 -28.7432 -28.7295
   -28.7272 -12.0245 -11.5381 -10.4304  -7.8579  -6.8145  -2.3394  -1.9118
    -1.5875  -1.3293  -1.2751  -0.6819   0.1569   0.4600   0.9070   2.3902
     2.9871   3.2965   4.0484   4.4509   4.9556   6.6815   6.8129   7.5857
     7.7752   8.2029   8.7065   8.9060   9.3321   9.5802   9.7645  10.1707
    10.2247  10.8988  11.4194  11.5584

     occupation numbers 
     1.0000   1.0000   1.0000   1.0000   1.0000   1.0000   1.0000   1.0000
     1.0000   1.0000   1.0000   1.0000   1.0000   1.0000   1.0000   1.0000
     1.0000   1.0000   1.0000   1.0000   1.0000   1.0000   1.0000   1.0000
     1.0000   1.0000   1.0000   1.0000   1.0000   1.0000   1.0000   1.0000
     1.0000   1.0000   1.0000   1.0000   1.0000   1.0000   1.0000   0.0000
     0.0000   0.0000   0.0000   0.0000   0.0000   0.0000   0.0000   0.0000
     0.0000   0.0000   0.0000   0.0000   0.0000   0.0000   0.0000   0.0000
     0.0000   0.0000   0.0000   0.0000

          k = 0.0000 0.2798 0.0000 ( 25021 PWs)   bands (ev):

   -35.8119 -35.8089 -35.8079 -35.8049 -35.7717 -35.7678 -35.7603 -35.7563
   -35.7365 -35.7326 -35.4049 -35.3912 -35.3738 -35.3636 -35.3531 -28.7761
   -28.7736 -28.7652 -28.7628 -28.7514 -28.7491 -28.7446 -28.7422 -28.7293
   -28.7270 -11.7541 -11.2995 -10.3005  -7.9957  -7.2287  -3.0355  -2.2746
    -2.1091  -1.6131  -1.5890  -0.7259  -0.0333   0.1459   1.0063   2.4987
     3.1512   3.6417   4.3885   4.7555   5.4362   6.7998   6.9957   7.4149
     8.0352   8.4049   9.0484   9.2211   9.3106   9.4794  10.2175  10.3707
    10.5811  11.0285  11.2613  12.0458

     occupation numbers 
     1.0000   1.0000   1.0000   1.0000   1.0000   1.0000   1.0000   1.0000
     1.0000   1.0000   1.0000   1.0000   1.0000   1.0000   1.0000   1.0000
     1.0000   1.0000   1.0000   1.0000   1.0000   1.0000   1.0000   1.0000
     1.0000   1.0000   1.0000   1.0000   1.0000   1.0000   1.0000   1.0000
     1.0000   1.0000   1.0000   1.0000   1.0000   1.0000   1.0000   0.0000
     0.0000   0.0000   0.0000   0.0000   0.0000   0.0000   0.0000   0.0000
     0.0000   0.0000   0.0000   0.0000   0.0000   0.0000   0.0000   0.0000
     0.0000   0.0000   0.0000   0.0000

          k = 0.0000 0.3731 0.0000 ( 25054 PWs)   bands (ev):

   -35.8048 -35.8011 -35.8009 -35.7971 -35.7627 -35.7588 -35.7499 -35.7458
   -35.7257 -35.7218 -35.3984 -35.3847 -35.3604 -35.3492 -35.3366 -28.7764
   -28.7738 -28.7616 -28.7593 -28.7525 -28.7502 -28.7470 -28.7446 -28.7305
   -28.7281 -11.4029 -11.0030 -10.1749  -8.2447  -7.6939  -3.5884  -2.5755
    -2.5136  -1.8641  -1.7850  -1.0287  -0.0913   0.0836   0.7643   2.5689
     3.2672   3.7021   4.6321   5.0462   5.8984   6.5014   7.4264   7.6355
     8.3514   8.7334   9.0776   9.5564   9.8276  10.0117  10.6498  10.7326
    10.8101  11.1312  11.5197  11.5749

     occupation numbers 
     1.0000   1.0000   1.0000   1.0000   1.0000   1.0000   1.0000   1.0000
     1.0000   1.0000   1.0000   1.0000   1.0000   1.0000   1.0000   1.0000
     1.0000   1.0000   1.0000   1.0000   1.0000   1.0000   1.0000   1.0000
     1.0000   1.0000   1.0000   1.0000   1.0000   1.0000   1.0000   1.0000
     1.0000   1.0000   1.0000   1.0000   1.0000   1.0000   1.0000   0.0000
     0.0000   0.0000   0.0000   0.0000   0.0000   0.0000   0.0000   0.0000
     0.0000   0.0000   0.0000   0.0000   0.0000   0.0000   0.0000   0.0000
     0.0000   0.0000   0.0000   0.0000

          k = 0.0000 0.4663 0.0000 ( 25034 PWs)   bands (ev):

   -35.7979 -35.7939 -35.7939 -35.7899 -35.7606 -35.7568 -35.7443 -35.7403
   -35.7230 -35.7191 -35.3967 -35.3837 -35.3551 -35.3412 -35.3276 -28.7750
   -28.7724 -28.7589 -28.7566 -28.7514 -28.7491 -28.7453 -28.7430 -28.7291
   -28.7267 -11.0011 -10.6943 -10.1352  -8.5816  -8.0932  -3.9674  -2.7891
    -2.7069  -2.0514  -2.0231  -1.2315  -0.0374   0.0356   0.4715   2.5567
     3.3118   3.6323   4.8124   5.2568   6.0693   6.3410   7.7308   8.0607
     8.6329   9.0655   9.5875   9.8353  10.0228  10.4964  10.7643  11.0259
    11.1444  11.3291  11.4907  11.7449

     occupation numbers 
     1.0000   1.0000   1.0000   1.0000   1.0000   1.0000   1.0000   1.0000
     1.0000   1.0000   1.0000   1.0000   1.0000   1.0000   1.0000   1.0000
     1.0000   1.0000   1.0000   1.0000   1.0000   1.0000   1.0000   1.0000
     1.0000   1.0000   1.0000   1.0000   1.0000   1.0000   1.0000   1.0000
     1.0000   1.0000   1.0000   1.0000   1.0000   1.0000   1.0000   0.0000
     0.0000   0.0000   0.0000   0.0000   0.0000   0.0000   0.0000   0.0000
     0.0000   0.0000   0.0000   0.0000   0.0000   0.0000   0.0000   0.0000
     0.0000   0.0000   0.0000   0.0000

          k = 0.0000 0.5596 0.0000 ( 25035 PWs)   bands (ev):

   -35.7939 -35.7903 -35.7899 -35.7863 -35.7613 -35.7574 -35.7417 -35.7377
   -35.7246 -35.7207 -35.3969 -35.3847 -35.3543 -35.3380 -35.3242 -28.7730
   -28.7704 -28.7573 -28.7550 -28.7495 -28.7472 -28.7427 -28.7404 -28.7266
   -28.7243 -10.6006 -10.4695 -10.2586  -8.8501  -8.3303  -4.1623  -2.8954
    -2.7372  -2.2492  -2.1398  -1.2837  -0.0603   0.0621   0.2977   2.4881
     3.3218   3.6387   4.8453   5.3614   6.0826   6.2678   7.9162   8.6509
     8.9425   9.2704   9.5033   9.6674  10.2065  10.3632  10.8306  11.2464
    11.5110  11.7148  11.8795  12.1105

     occupation numbers 
     1.0000   1.0000   1.0000   1.0000   1.0000   1.0000   1.0000   1.0000
     1.0000   1.0000   1.0000   1.0000   1.0000   1.0000   1.0000   1.0000
     1.0000   1.0000   1.0000   1.0000   1.0000   1.0000   1.0000   1.0000
     1.0000   1.0000   1.0000   1.0000   1.0000   1.0000   1.0000   1.0000
     1.0000   1.0000   1.0000   1.0000   1.0000   1.0000   1.0000   0.0000
     0.0000   0.0000   0.0000   0.0000   0.0000   0.0000   0.0000   0.0000
     0.0000   0.0000   0.0000   0.0000   0.0000   0.0000   0.0000   0.0000
     0.0000   0.0000   0.0000   0.0000

          k = 0.0769 0.0444 0.0000 ( 24955 PWs)   bands (ev):

   -35.8340 -35.8299 -35.8236 -35.8196 -35.8013 -35.7973 -35.7865 -35.7825
   -35.7653 -35.7614 -35.4102 -35.4060 -35.3912 -35.3784 -35.3750 -28.7851
   -28.7827 -28.7823 -28.7798 -28.7588 -28.7563 -28.7432 -28.7409 -28.7221
   -28.7198 -12.2084 -11.7367 -10.5277  -7.7756  -6.5463  -1.7075  -1.5177
    -1.2036  -0.8720  -0.7500  -0.5079   0.2056   0.2702   0.7158   2.4454
     2.5904   2.9647   4.0382   4.1311   4.3656   6.4630   6.6581   7.5121
     7.9561   8.1379   8.7729   8.9644   9.2614   9.4546   9.6051  10.1156
    10.5118  10.7556  10.9384  11.0638

     occupation numbers 
     1.0000   1.0000   1.0000   1.0000   1.0000   1.0000   1.0000   1.0000
     1.0000   1.0000   1.0000   1.0000   1.0000   1.0000   1.0000   1.0000
     1.0000   1.0000   1.0000   1.0000   1.0000   1.0000   1.0000   1.0000
     1.0000   1.0000   1.0000   1.0000   1.0000   1.0000   1.0000   1.0000
     1.0000   1.0000   1.0000   1.0000   1.0000   1.0000   1.0000   0.0000
     0.0000   0.0000   0.0000   0.0000   0.0000   0.0000   0.0000   0.0000
     0.0000   0.0000   0.0000   0.0000   0.0000   0.0000   0.0000   0.0000
     0.0000   0.0000   0.0000   0.0000

          k = 0.0769 0.1377 0.0000 ( 24965 PWs)   bands (ev):

   -35.8331 -35.8291 -35.8169 -35.8129 -35.7901 -35.7861 -35.7776 -35.7736
   -35.7550 -35.7510 -35.4145 -35.4043 -35.3967 -35.3701 -35.3670 -28.7800
   -28.7775 -28.7736 -28.7712 -28.7565 -28.7542 -28.7420 -28.7397 -28.7256
   -28.7233 -12.0906 -11.6125 -10.4703  -7.8398  -6.7468  -2.1811  -1.7845
    -1.5924  -1.2547  -0.7944  -0.6730   0.0263   0.6768   0.8630   2.6410
     2.6857   3.1789   4.1375   4.2671   4.7434   6.6087   6.7568   7.6758
     7.7814   7.9567   8.8736   8.9317   9.2487   9.5668   9.6333  10.0965
    10.4933  10.9361  11.1900  11.4696

     occupation numbers 
     1.0000   1.0000   1.0000   1.0000   1.0000   1.0000   1.0000   1.0000
     1.0000   1.0000   1.0000   1.0000   1.0000   1.0000   1.0000   1.0000
     1.0000   1.0000   1.0000   1.0000   1.0000   1.0000   1.0000   1.0000
     1.0000   1.0000   1.0000   1.0000   1.0000   1.0000   1.0000   1.0000
     1.0000   1.0000   1.0000   1.0000   1.0000   1.0000   1.0000   0.0000
     0.0000   0.0000   0.0000   0.0000   0.0000   0.0000   0.0000   0.0000
     0.0000   0.0000   0.0000   0.0000   0.0000   0.0000   0.0000   0.0000
     0.0000   0.0000   0.0000   0.0000

          k = 0.0769 0.2309 0.0000 ( 24989 PWs)   bands (ev):

   -35.8176 -35.8137 -35.8115 -35.8075 -35.7740 -35.7701 -35.7666 -35.7625
   -35.7411 -35.7371 -35.4073 -35.3940 -35.3876 -35.3645 -35.3610 -28.7774
   -28.7750 -28.7665 -28.7641 -28.7511 -28.7488 -28.7441 -28.7418 -28.7330
   -28.7307 -11.8694 -11.4027 -10.3586  -7.9476  -7.0978  -2.6933  -2.3985
    -1.8317  -1.6709  -1.1627  -0.8526   0.0590   0.4804   1.0170   2.7804
     2.8552   3.5144   4.3887   4.6239   5.2165   6.8581   6.9177   7.5044
     7.8703   8.0124   9.0333   9.2125   9.2496   9.3392  10.0178  10.3707
    10.5440  10.9876  11.4981  11.7167

     occupation numbers 
     1.0000   1.0000   1.0000   1.0000   1.0000   1.0000   1.0000   1.0000
     1.0000   1.0000   1.0000   1.0000   1.0000   1.0000   1.0000   1.0000
     1.0000   1.0000   1.0000   1.0000   1.0000   1.0000   1.0000   1.0000
     1.0000   1.0000   1.0000   1.0000   1.0000   1.0000   1.0000   1.0000
     1.0000   1.0000   1.0000   1.0000   1.0000   1.0000   1.0000   0.0000
     0.0000   0.0000   0.0000   0.0000   0.0000   0.0000   0.0000   0.0000
     0.0000   0.0000   0.0000   0.0000   0.0000   0.0000   0.0000   0.0000
     0.0000   0.0000   0.0000   0.0000

          k = 0.0769 0.3242 0.0000 ( 25034 PWs)   bands (ev):

   -35.8079 -35.8039 -35.8024 -35.7984 -35.7656 -35.7618 -35.7553 -35.7512
   -35.7317 -35.7278 -35.3980 -35.3847 -35.3725 -35.3525 -35.3470 -28.7760
   -28.7735 -28.7621 -28.7597 -28.7508 -28.7485 -28.7471 -28.7449 -28.7329
   -28.7305 -11.5602 -11.1353 -10.2257  -8.1340  -7.5410  -3.2959  -2.7110
    -2.1350  -2.0772  -1.4968  -0.9996   0.0736   0.1553   0.9428   2.8289
     3.0302   3.6971   4.7024   4.9363   5.6953   6.7724   7.2264   7.5476
     8.1561   8.4723   8.8151   9.4324   9.5331   9.9019  10.3770  10.6999
    10.7782  10.9726  11.6862  11.7609

     occupation numbers 
     1.0000   1.0000   1.0000   1.0000   1.0000   1.0000   1.0000   1.0000
     1.0000   1.0000   1.0000   1.0000   1.0000   1.0000   1.0000   1.0000
     1.0000   1.0000   1.0000   1.0000   1.0000   1.0000   1.0000   1.0000
     1.0000   1.0000   1.0000   1.0000   1.0000   1.0000   1.0000   1.0000
     1.0000   1.0000   1.0000   1.0000   1.0000   1.0000   1.0000   0.0000
     0.0000   0.0000   0.0000   0.0000   0.0000   0.0000   0.0000   0.0000
     0.0000   0.0000   0.0000   0.0000   0.0000   0.0000   0.0000   0.0000
     0.0000   0.0000   0.0000   0.0000

          k = 0.0769 0.4175 0.0000 ( 25027 PWs)   bands (ev):

   -35.7990 -35.7951 -35.7949 -35.7909 -35.7606 -35.7567 -35.7492 -35.7451
   -35.7271 -35.7232 -35.3943 -35.3821 -35.3624 -35.3424 -35.3339 -28.7749
   -28.7724 -28.7584 -28.7560 -28.7509 -28.7486 -28.7463 -28.7440 -28.7317
   -28.7293 -11.1835 -10.8294 -10.1324  -8.4236  -7.9820  -3.7683  -2.8279
    -2.5532  -2.3468  -1.6302  -1.2302  -0.1159   0.1623   0.7234   2.8579
     3.0392   3.7597   4.9161   5.1582   6.0397   6.5125   7.6623   7.8332
     8.5225   8.8172   9.1529   9.7543   9.9223  10.3015  10.6966  10.8788
    11.1353  11.2457  11.5823  11.7934

     occupation numbers 
     1.0000   1.0000   1.0000   1.0000   1.0000   1.0000   1.0000   1.0000
     1.0000   1.0000   1.0000   1.0000   1.0000   1.0000   1.0000   1.0000
     1.0000   1.0000   1.0000   1.0000   1.0000   1.0000   1.0000   1.0000
     1.0000   1.0000   1.0000   1.0000   1.0000   1.0000   1.0000   1.0000
     1.0000   1.0000   1.0000   1.0000   1.0000   1.0000   1.0000   0.0000
     0.0000   0.0000   0.0000   0.0000   0.0000   0.0000   0.0000   0.0000
     0.0000   0.0000   0.0000   0.0000   0.0000   0.0000   0.0000   0.0000
     0.0000   0.0000   0.0000   0.0000

          k = 0.0769 0.5107 0.0000 ( 25043 PWs)   bands (ev):

   -35.7937 -35.7897 -35.7896 -35.7856 -35.7589 -35.7551 -35.7453 -35.7412
   -35.7260 -35.7221 -35.3934 -35.3821 -35.3581 -35.3361 -35.3262 -28.7738
   -28.7712 -28.7565 -28.7541 -28.7502 -28.7479 -28.7445 -28.7422 -28.7301
   -28.7278 -10.7740 -10.5462 -10.1540  -8.7496  -8.3087  -4.0572  -2.9279
    -2.7137  -2.5252  -1.8017  -1.3881  -0.1173   0.1345   0.5046   2.8259
     3.0588   3.6965   5.0637   5.2615   6.1331   6.3865   7.8732   8.3691
     8.7719   9.3237   9.5968   9.6516  10.1692  10.4311  10.7842  10.9102
    11.4160  11.4528  11.7094  11.8856

     occupation numbers 
     1.0000   1.0000   1.0000   1.0000   1.0000   1.0000   1.0000   1.0000
     1.0000   1.0000   1.0000   1.0000   1.0000   1.0000   1.0000   1.0000
     1.0000   1.0000   1.0000   1.0000   1.0000   1.0000   1.0000   1.0000
     1.0000   1.0000   1.0000   1.0000   1.0000   1.0000   1.0000   1.0000
     1.0000   1.0000   1.0000   1.0000   1.0000   1.0000   1.0000   0.0000
     0.0000   0.0000   0.0000   0.0000   0.0000   0.0000   0.0000   0.0000
     0.0000   0.0000   0.0000   0.0000   0.0000   0.0000   0.0000   0.0000
     0.0000   0.0000   0.0000   0.0000

          k = 0.0769 0.6040 0.0000 ( 25026 PWs)   bands (ev):

   -35.7923 -35.7884 -35.7877 -35.7837 -35.7594 -35.7556 -35.7433 -35.7393
   -35.7262 -35.7223 -35.3939 -35.3827 -35.3570 -35.3340 -35.3238 -28.7732
   -28.7706 -28.7559 -28.7536 -28.7500 -28.7477 -28.7431 -28.7409 -28.7290
   -28.7267 -10.4496 -10.4134 -10.3202  -8.9062  -8.4329  -4.1562  -3.0179
    -2.6564  -2.6093  -1.9237  -1.4146  -0.0482   0.0564   0.4242   2.7736
     3.1055   3.6353   5.0984   5.2872   6.2215   6.2308   7.9787   8.8923
     9.0448   9.1076   9.3565   9.9391  10.0564  10.2393  10.8159  11.0746
    11.4229  11.5928  11.8085  11.9999

     occupation numbers 
     1.0000   1.0000   1.0000   1.0000   1.0000   1.0000   1.0000   1.0000
     1.0000   1.0000   1.0000   1.0000   1.0000   1.0000   1.0000   1.0000
     1.0000   1.0000   1.0000   1.0000   1.0000   1.0000   1.0000   1.0000
     1.0000   1.0000   1.0000   1.0000   1.0000   1.0000   1.0000   1.0000
     1.0000   1.0000   1.0000   1.0000   1.0000   1.0000   1.0000   0.0000
     0.0000   0.0000   0.0000   0.0000   0.0000   0.0000   0.0000   0.0000
     0.0000   0.0000   0.0000   0.0000   0.0000   0.0000   0.0000   0.0000
     0.0000   0.0000   0.0000   0.0000

          k = 0.0769-0.5152 0.0000 ( 25040 PWs)   bands (ev):

   -35.7937 -35.7902 -35.7897 -35.7863 -35.7611 -35.7572 -35.7439 -35.7398
   -35.7260 -35.7221 -35.3954 -35.3832 -35.3579 -35.3356 -35.3259 -28.7739
   -28.7713 -28.7565 -28.7541 -28.7511 -28.7489 -28.7433 -28.7410 -28.7293
   -28.7270 -10.7570 -10.5342 -10.1592  -8.7567  -8.3042  -4.0644  -2.9479
    -2.7232  -2.4913  -1.8348  -1.3562  -0.0911   0.0715   0.5092   2.7949
     3.0685   3.6540   5.0603   5.2197   6.1112   6.3492   7.8589   8.3911
     8.7994   9.2992   9.4579   9.5427  10.1321  10.2600  10.6733  10.8745
    11.2191  11.4908  11.8691  12.0055

     occupation numbers 
     1.0000   1.0000   1.0000   1.0000   1.0000   1.0000   1.0000   1.0000
     1.0000   1.0000   1.0000   1.0000   1.0000   1.0000   1.0000   1.0000
     1.0000   1.0000   1.0000   1.0000   1.0000   1.0000   1.0000   1.0000
     1.0000   1.0000   1.0000   1.0000   1.0000   1.0000   1.0000   1.0000
     1.0000   1.0000   1.0000   1.0000   1.0000   1.0000   1.0000   0.0000
     0.0000   0.0000   0.0000   0.0000   0.0000   0.0000   0.0000   0.0000
     0.0000   0.0000   0.0000   0.0000   0.0000   0.0000   0.0000   0.0000
     0.0000   0.0000   0.0000   0.0000

          k = 0.0769-0.4219 0.0000 ( 25037 PWs)   bands (ev):

   -35.7996 -35.7957 -35.7943 -35.7904 -35.7634 -35.7595 -35.7478 -35.7438
   -35.7270 -35.7231 -35.3975 -35.3836 -35.3611 -35.3412 -35.3325 -28.7755
   -28.7729 -28.7585 -28.7562 -28.7530 -28.7507 -28.7447 -28.7424 -28.7310
   -28.7286 -11.1669 -10.8132 -10.1280  -8.4295  -7.9708  -3.7829  -2.8592
    -2.5541  -2.3065  -1.6816  -1.1735  -0.0854   0.0693   0.6985   2.8260
     3.0363   3.6582   4.8630   5.1595   5.9786   6.4679   7.6561   7.8436
     8.4906   8.7338   8.9328   9.6911   9.8904  10.2797  10.8389  10.9844
    11.1015  11.4257  11.7068  11.7655

     occupation numbers 
     1.0000   1.0000   1.0000   1.0000   1.0000   1.0000   1.0000   1.0000
     1.0000   1.0000   1.0000   1.0000   1.0000   1.0000   1.0000   1.0000
     1.0000   1.0000   1.0000   1.0000   1.0000   1.0000   1.0000   1.0000
     1.0000   1.0000   1.0000   1.0000   1.0000   1.0000   1.0000   1.0000
     1.0000   1.0000   1.0000   1.0000   1.0000   1.0000   1.0000   0.0000
     0.0000   0.0000   0.0000   0.0000   0.0000   0.0000   0.0000   0.0000
     0.0000   0.0000   0.0000   0.0000   0.0000   0.0000   0.0000   0.0000
     0.0000   0.0000   0.0000   0.0000

          k = 0.0769-0.3286 0.0000 ( 25033 PWs)   bands (ev):

   -35.8072 -35.8033 -35.8014 -35.7975 -35.7673 -35.7634 -35.7552 -35.7512
   -35.7318 -35.7279 -35.4006 -35.3851 -35.3690 -35.3509 -35.3439 -28.7775
   -28.7750 -28.7624 -28.7600 -28.7535 -28.7512 -28.7459 -28.7436 -28.7328
   -28.7305 -11.5456 -11.1201 -10.2144  -8.1316  -7.5230  -3.3187  -2.7122
    -2.1564  -2.0470  -1.5281  -0.9241   0.0019   0.1029   0.8856   2.7571
     2.9965   3.6303   4.5747   5.0045   5.6572   6.7259   7.2311   7.5300
     8.0719   8.3837   8.7734   9.3936   9.5185  10.2170  10.4806  10.7374
    10.7570  11.0560  11.7457  11.8469

     occupation numbers 
     1.0000   1.0000   1.0000   1.0000   1.0000   1.0000   1.0000   1.0000
     1.0000   1.0000   1.0000   1.0000   1.0000   1.0000   1.0000   1.0000
     1.0000   1.0000   1.0000   1.0000   1.0000   1.0000   1.0000   1.0000
     1.0000   1.0000   1.0000   1.0000   1.0000   1.0000   1.0000   1.0000
     1.0000   1.0000   1.0000   1.0000   1.0000   1.0000   1.0000   0.0000
     0.0000   0.0000   0.0000   0.0000   0.0000   0.0000   0.0000   0.0000
     0.0000   0.0000   0.0000   0.0000   0.0000   0.0000   0.0000   0.0000
     0.0000   0.0000   0.0000   0.0000

          k = 0.0769-0.2354 0.0000 ( 25004 PWs)   bands (ev):

   -35.8153 -35.8114 -35.8113 -35.8074 -35.7766 -35.7726 -35.7652 -35.7612
   -35.7413 -35.7374 -35.4071 -35.3922 -35.3831 -35.3641 -35.3587 -28.7797
   -28.7773 -28.7661 -28.7637 -28.7508 -28.7485 -28.7456 -28.7433 -28.7326
   -28.7303 -11.8579 -11.3912 -10.3456  -7.9377  -7.0739  -2.7087  -2.3752
    -1.7914  -1.7196  -1.1906  -0.7841  -0.0255   0.3675   0.9753   2.5553
     2.8744   3.5622   4.2307   4.7684   5.1969   6.8695   6.9032   7.4493
     7.8498   7.9697   9.0781   9.1445   9.3111   9.4993  10.0916  10.3775
    10.4808  11.0705  11.3914  11.7905

     occupation numbers 
     1.0000   1.0000   1.0000   1.0000   1.0000   1.0000   1.0000   1.0000
     1.0000   1.0000   1.0000   1.0000   1.0000   1.0000   1.0000   1.0000
     1.0000   1.0000   1.0000   1.0000   1.0000   1.0000   1.0000   1.0000
     1.0000   1.0000   1.0000   1.0000   1.0000   1.0000   1.0000   1.0000
     1.0000   1.0000   1.0000   1.0000   1.0000   1.0000   1.0000   0.0000
     0.0000   0.0000   0.0000   0.0000   0.0000   0.0000   0.0000   0.0000
     0.0000   0.0000   0.0000   0.0000   0.0000   0.0000   0.0000   0.0000
     0.0000   0.0000   0.0000   0.0000

          k = 0.0769-0.1421 0.0000 ( 24972 PWs)   bands (ev):

   -35.8298 -35.8257 -35.8133 -35.8093 -35.7893 -35.7854 -35.7794 -35.7754
   -35.7558 -35.7519 -35.4129 -35.3982 -35.3913 -35.3654 -35.3615 -28.7833
   -28.7809 -28.7743 -28.7718 -28.7554 -28.7531 -28.7466 -28.7443 -28.7262
   -28.7240 -12.0822 -11.6067 -10.4540  -7.8303  -6.7229  -2.1276  -1.7707
    -1.5177  -1.3653  -0.8082  -0.6884  -0.0867   0.6570   0.7913   2.4080
     2.8426   3.0789   4.0989   4.4161   4.7502   6.6173   6.7623   7.6544
     7.7856   7.9880   8.8941   8.9158   9.2333   9.5853   9.6845  10.0864
    10.3828  10.8671  11.1945  11.5708

     occupation numbers 
     1.0000   1.0000   1.0000   1.0000   1.0000   1.0000   1.0000   1.0000
     1.0000   1.0000   1.0000   1.0000   1.0000   1.0000   1.0000   1.0000
     1.0000   1.0000   1.0000   1.0000   1.0000   1.0000   1.0000   1.0000
     1.0000   1.0000   1.0000   1.0000   1.0000   1.0000   1.0000   1.0000
     1.0000   1.0000   1.0000   1.0000   1.0000   1.0000   1.0000   0.0000
     0.0000   0.0000   0.0000   0.0000   0.0000   0.0000   0.0000   0.0000
     0.0000   0.0000   0.0000   0.0000   0.0000   0.0000   0.0000   0.0000
     0.0000   0.0000   0.0000   0.0000

          k = 0.0769-0.0489 0.0000 ( 24969 PWs)   bands (ev):

   -35.8326 -35.8285 -35.8232 -35.8193 -35.8001 -35.7962 -35.7889 -35.7848
   -35.7654 -35.7614 -35.4160 -35.4009 -35.3955 -35.3749 -35.3696 -28.7852
   -28.7827 -28.7815 -28.7791 -28.7558 -28.7534 -28.7451 -28.7428 -28.7208
   -28.7185 -12.2052 -11.7334 -10.5242  -7.7716  -6.5352  -1.6454  -1.4546
    -1.2645  -0.9969  -0.7412  -0.4786   0.0878   0.2858   0.7536   2.2993
     2.7165   2.9754   3.9812   4.1022   4.4573   6.4667   6.6627   7.5119
     7.9708   8.2389   8.6898   8.8424   9.2910   9.5181   9.6802   9.9608
    10.4771  10.6973  10.9877  11.2138

     occupation numbers 
     1.0000   1.0000   1.0000   1.0000   1.0000   1.0000   1.0000   1.0000
     1.0000   1.0000   1.0000   1.0000   1.0000   1.0000   1.0000   1.0000
     1.0000   1.0000   1.0000   1.0000   1.0000   1.0000   1.0000   1.0000
     1.0000   1.0000   1.0000   1.0000   1.0000   1.0000   1.0000   1.0000
     1.0000   1.0000   1.0000   1.0000   1.0000   1.0000   1.0000   0.0000
     0.0000   0.0000   0.0000   0.0000   0.0000   0.0000   0.0000   0.0000
     0.0000   0.0000   0.0000   0.0000   0.0000   0.0000   0.0000   0.0000
     0.0000   0.0000   0.0000   0.0000

          k = 0.1538 0.0888 0.0000 ( 24960 PWs)   bands (ev):

   -35.8288 -35.8248 -35.8172 -35.8132 -35.7845 -35.7806 -35.7710 -35.7670
   -35.7487 -35.7447 -35.4106 -35.4050 -35.3959 -35.3774 -35.3732 -28.7758
   -28.7740 -28.7733 -28.7716 -28.7590 -28.7566 -28.7375 -28.7352 -28.7275
   -28.7252 -12.0459 -11.5624 -10.4558  -7.8823  -6.8647  -2.5123  -1.7737
    -1.5337  -1.4579  -1.0257  -0.6328   0.3674   0.5926   0.8831   2.6479
     3.1207   3.1460   4.1884   4.3976   4.7335   6.6610   6.7700   7.4877
     7.7449   8.1655   8.8588   9.1422   9.2673   9.3352   9.9515  10.2183
    10.3514  11.0957  11.1609  11.3353

     occupation numbers 
     1.0000   1.0000   1.0000   1.0000   1.0000   1.0000   1.0000   1.0000
     1.0000   1.0000   1.0000   1.0000   1.0000   1.0000   1.0000   1.0000
     1.0000   1.0000   1.0000   1.0000   1.0000   1.0000   1.0000   1.0000
     1.0000   1.0000   1.0000   1.0000   1.0000   1.0000   1.0000   1.0000
     1.0000   1.0000   1.0000   1.0000   1.0000   1.0000   1.0000   0.0000
     0.0000   0.0000   0.0000   0.0000   0.0000   0.0000   0.0000   0.0000
     0.0000   0.0000   0.0000   0.0000   0.0000   0.0000   0.0000   0.0000
     0.0000   0.0000   0.0000   0.0000

          k = 0.1538 0.1821 0.0000 ( 25013 PWs)   bands (ev):

   -35.8245 -35.8205 -35.8132 -35.8092 -35.7782 -35.7743 -35.7646 -35.7606
   -35.7423 -35.7383 -35.4082 -35.3973 -35.3951 -35.3670 -35.3644 -28.7757
   -28.7734 -28.7669 -28.7646 -28.7548 -28.7524 -28.7374 -28.7351 -28.7315
   -28.7292 -11.8866 -11.4214 -10.3801  -7.9682  -7.1274  -2.8436  -2.2229
    -1.8953  -1.4956  -1.2685  -0.6833   0.1228   0.5383   1.0762   2.7250
     3.2041   3.3974   4.2570   4.8841   4.9804   6.8254   6.8919   7.4016
     7.9226   7.9874   8.9447   9.0970   9.2657   9.7351   9.9657  10.3066
    10.7415  10.8927  11.3972  11.7939

     occupation numbers 
     1.0000   1.0000   1.0000   1.0000   1.0000   1.0000   1.0000   1.0000
     1.0000   1.0000   1.0000   1.0000   1.0000   1.0000   1.0000   1.0000
     1.0000   1.0000   1.0000   1.0000   1.0000   1.0000   1.0000   1.0000
     1.0000   1.0000   1.0000   1.0000   1.0000   1.0000   1.0000   1.0000
     1.0000   1.0000   1.0000   1.0000   1.0000   1.0000   1.0000   0.0000
     0.0000   0.0000   0.0000   0.0000   0.0000   0.0000   0.0000   0.0000
     0.0000   0.0000   0.0000   0.0000   0.0000   0.0000   0.0000   0.0000
     0.0000   0.0000   0.0000   0.0000

          k = 0.1538 0.2754 0.0000 ( 24990 PWs)   bands (ev):

   -35.8151 -35.8111 -35.8080 -35.8040 -35.7665 -35.7626 -35.7547 -35.7506
   -35.7288 -35.7248 -35.4055 -35.3932 -35.3860 -35.3524 -35.3508 -28.7749
   -28.7726 -28.7616 -28.7593 -28.7508 -28.7485 -28.7412 -28.7389 -28.7355
   -28.7332 -11.6272 -11.1901 -10.2663  -8.1198  -7.5082  -3.0618  -2.9204
    -2.1381  -1.8056  -1.5193  -1.0551   0.1841   0.6190   0.8814   2.8156
     3.3960   3.5465   4.4399   5.1899   5.4922   7.0765   7.1062   7.4583
     7.8080   8.2434   8.7080   9.1801   9.4989  10.1515  10.3833  10.6071
    10.7469  11.2237  11.6091  11.6991

     occupation numbers 
     1.0000   1.0000   1.0000   1.0000   1.0000   1.0000   1.0000   1.0000
     1.0000   1.0000   1.0000   1.0000   1.0000   1.0000   1.0000   1.0000
     1.0000   1.0000   1.0000   1.0000   1.0000   1.0000   1.0000   1.0000
     1.0000   1.0000   1.0000   1.0000   1.0000   1.0000   1.0000   1.0000
     1.0000   1.0000   1.0000   1.0000   1.0000   1.0000   1.0000   0.0000
     0.0000   0.0000   0.0000   0.0000   0.0000   0.0000   0.0000   0.0000
     0.0000   0.0000   0.0000   0.0000   0.0000   0.0000   0.0000   0.0000
     0.0000   0.0000   0.0000   0.0000

          k = 0.1538 0.3686 0.0000 ( 25008 PWs)   bands (ev):

   -35.8037 -35.7998 -35.7987 -35.7947 -35.7640 -35.7602 -35.7480 -35.7439
   -35.7259 -35.7219 -35.3995 -35.3882 -35.3766 -35.3440 -35.3416 -28.7717
   -28.7692 -28.7579 -28.7555 -28.7479 -28.7456 -28.7418 -28.7396 -28.7340
   -28.7317 -11.2918 -10.9101 -10.1583  -8.3392  -7.9479  -3.4727  -3.1614
    -2.4646  -2.1819  -1.7432  -1.2758   0.2108   0.3658   0.8013   2.8885
     3.4277   3.6553   4.7925   5.3851   5.8551   6.9558   7.5110   7.7654
     8.1001   8.5897   8.6862   9.3986   9.7577  10.2048  10.7068  10.8894
    11.2631  11.4162  11.4946  12.0170

     occupation numbers 
     1.0000   1.0000   1.0000   1.0000   1.0000   1.0000   1.0000   1.0000
     1.0000   1.0000   1.0000   1.0000   1.0000   1.0000   1.0000   1.0000
     1.0000   1.0000   1.0000   1.0000   1.0000   1.0000   1.0000   1.0000
     1.0000   1.0000   1.0000   1.0000   1.0000   1.0000   1.0000   1.0000
     1.0000   1.0000   1.0000   1.0000   1.0000   1.0000   1.0000   0.0000
     0.0000   0.0000   0.0000   0.0000   0.0000   0.0000   0.0000   0.0000
     0.0000   0.0000   0.0000   0.0000   0.0000   0.0000   0.0000   0.0000
     0.0000   0.0000   0.0000   0.0000

          k = 0.1538 0.4619 0.0000 ( 25033 PWs)   bands (ev):

   -35.7970 -35.7938 -35.7930 -35.7898 -35.7616 -35.7577 -35.7440 -35.7399
   -35.7259 -35.7219 -35.3956 -35.3855 -35.3705 -35.3394 -35.3352 -28.7691
   -28.7666 -28.7542 -28.7518 -28.7463 -28.7440 -28.7402 -28.7379 -28.7311
   -28.7288 -10.9028 -10.6166 -10.1068  -8.6313  -8.3463  -3.8509  -3.1921
    -2.6965  -2.5445  -1.8285  -1.4463  -0.0071   0.2877   0.7609   2.8541
     3.4019   3.7844   4.9636   5.4710   6.1144   6.7487   7.9232   8.1529
     8.6718   8.8135   9.2158   9.5847  10.0271  10.2050  10.6986  10.8919
    11.3129  11.4101  11.6480  11.8576

     occupation numbers 
     1.0000   1.0000   1.0000   1.0000   1.0000   1.0000   1.0000   1.0000
     1.0000   1.0000   1.0000   1.0000   1.0000   1.0000   1.0000   1.0000
     1.0000   1.0000   1.0000   1.0000   1.0000   1.0000   1.0000   1.0000
     1.0000   1.0000   1.0000   1.0000   1.0000   1.0000   1.0000   1.0000
     1.0000   1.0000   1.0000   1.0000   1.0000   1.0000   1.0000   0.0000
     0.0000   0.0000   0.0000   0.0000   0.0000   0.0000   0.0000   0.0000
     0.0000   0.0000   0.0000   0.0000   0.0000   0.0000   0.0000   0.0000
     0.0000   0.0000   0.0000   0.0000

          k = 0.1538 0.5551 0.0000 ( 25072 PWs)   bands (ev):

   -35.7939 -35.7917 -35.7900 -35.7878 -35.7589 -35.7550 -35.7416 -35.7375
   -35.7239 -35.7199 -35.3936 -35.3839 -35.3662 -35.3354 -35.3300 -28.7690
   -28.7664 -28.7529 -28.7506 -28.7476 -28.7453 -28.7396 -28.7373 -28.7309
   -28.7286 -10.5147 -10.3928 -10.1831  -8.8975  -8.5838  -4.0426  -3.1560
    -3.0337  -2.5051  -1.8176  -1.6987  -0.0342   0.2233   0.6766   2.9220
     3.3643   3.6610   5.1368   5.4731   6.1919   6.6094   8.0627   8.6940
     8.9943   9.3238   9.5057   9.6944  10.1079  10.2531  10.6313  10.7390
    10.9075  11.1719  11.3727  11.8444

     occupation numbers 
     1.0000   1.0000   1.0000   1.0000   1.0000   1.0000   1.0000   1.0000
     1.0000   1.0000   1.0000   1.0000   1.0000   1.0000   1.0000   1.0000
     1.0000   1.0000   1.0000   1.0000   1.0000   1.0000   1.0000   1.0000
     1.0000   1.0000   1.0000   1.0000   1.0000   1.0000   1.0000   1.0000
     1.0000   1.0000   1.0000   1.0000   1.0000   1.0000   1.0000   0.0000
     0.0000   0.0000   0.0000   0.0000   0.0000   0.0000   0.0000   0.0000
     0.0000   0.0000   0.0000   0.0000   0.0000   0.0000   0.0000   0.0000
     0.0000   0.0000   0.0000   0.0000

          k = 0.1538 0.6484 0.0000 ( 25033 PWs)   bands (ev):

   -35.7934 -35.7921 -35.7895 -35.7881 -35.7600 -35.7561 -35.7411 -35.7370
   -35.7241 -35.7201 -35.3954 -35.3850 -35.3653 -35.3351 -35.3296 -28.7693
   -28.7668 -28.7534 -28.7510 -28.7479 -28.7456 -28.7390 -28.7367 -28.7306
   -28.7283 -10.4846 -10.3789 -10.1986  -8.9069  -8.5812  -4.0490  -3.2107
    -2.9835  -2.4991  -1.8957  -1.6251  -0.0108   0.1682   0.6752   2.9292
     3.3409   3.6175   5.1247   5.4441   6.1563   6.5846   8.0382   8.7493
     9.0624   9.2226   9.2632   9.6743   9.9637  10.2388  10.5260  10.7685
    10.9211  11.3946  11.4602  11.8135

     occupation numbers 
     1.0000   1.0000   1.0000   1.0000   1.0000   1.0000   1.0000   1.0000
     1.0000   1.0000   1.0000   1.0000   1.0000   1.0000   1.0000   1.0000
     1.0000   1.0000   1.0000   1.0000   1.0000   1.0000   1.0000   1.0000
     1.0000   1.0000   1.0000   1.0000   1.0000   1.0000   1.0000   1.0000
     1.0000   1.0000   1.0000   1.0000   1.0000   1.0000   1.0000   0.0000
     0.0000   0.0000   0.0000   0.0000   0.0000   0.0000   0.0000   0.0000
     0.0000   0.0000   0.0000   0.0000   0.0000   0.0000   0.0000   0.0000
     0.0000   0.0000   0.0000   0.0000

          k = 0.1538-0.4708 0.0000 ( 24998 PWs)   bands (ev):

   -35.7961 -35.7940 -35.7921 -35.7900 -35.7642 -35.7603 -35.7431 -35.7390
   -35.7261 -35.7222 -35.4001 -35.3881 -35.3675 -35.3386 -35.3334 -28.7702
   -28.7677 -28.7548 -28.7525 -28.7482 -28.7459 -28.7386 -28.7363 -28.7307
   -28.7284 -10.8680 -10.5859 -10.1036  -8.6472  -8.3345  -3.8727  -3.2297
    -2.6578  -2.5614  -1.8878  -1.3661  -0.0096   0.1979   0.7325   2.8544
     3.3368   3.6638   4.9157   5.4216   6.0131   6.6828   7.8865   8.1581
     8.4949   8.6950   9.2382   9.4481  10.0092  10.1756  10.6354  10.8945
    11.3447  11.3771  11.6778  11.8631

     occupation numbers 
     1.0000   1.0000   1.0000   1.0000   1.0000   1.0000   1.0000   1.0000
     1.0000   1.0000   1.0000   1.0000   1.0000   1.0000   1.0000   1.0000
     1.0000   1.0000   1.0000   1.0000   1.0000   1.0000   1.0000   1.0000
     1.0000   1.0000   1.0000   1.0000   1.0000   1.0000   1.0000   1.0000
     1.0000   1.0000   1.0000   1.0000   1.0000   1.0000   1.0000   0.0000
     0.0000   0.0000   0.0000   0.0000   0.0000   0.0000   0.0000   0.0000
     0.0000   0.0000   0.0000   0.0000   0.0000   0.0000   0.0000   0.0000
     0.0000   0.0000   0.0000   0.0000

          k = 0.1538-0.3775 0.0000 ( 25030 PWs)   bands (ev):

   -35.8021 -35.7989 -35.7981 -35.7949 -35.7669 -35.7630 -35.7471 -35.7431
   -35.7256 -35.7217 -35.4041 -35.3903 -35.3715 -35.3432 -35.3382 -28.7738
   -28.7715 -28.7579 -28.7555 -28.7514 -28.7491 -28.7401 -28.7378 -28.7343
   -28.7320 -11.2600 -10.8771 -10.1406  -8.3403  -7.9262  -3.5118  -3.1699
    -2.4660  -2.2102  -1.7762  -1.1779   0.1346   0.2820   0.7247   2.8198
     3.3514   3.5265   4.6623   5.3880   5.7414   6.8703   7.4371   7.7372
     7.9979   8.5403   8.7004   9.3226   9.8016  10.2226  10.8191  10.9250
    11.3372  11.4340  11.8013  12.1100

     occupation numbers 
     1.0000   1.0000   1.0000   1.0000   1.0000   1.0000   1.0000   1.0000
     1.0000   1.0000   1.0000   1.0000   1.0000   1.0000   1.0000   1.0000
     1.0000   1.0000   1.0000   1.0000   1.0000   1.0000   1.0000   1.0000
     1.0000   1.0000   1.0000   1.0000   1.0000   1.0000   1.0000   1.0000
     1.0000   1.0000   1.0000   1.0000   1.0000   1.0000   1.0000   0.0000
     0.0000   0.0000   0.0000   0.0000   0.0000   0.0000   0.0000   0.0000
     0.0000   0.0000   0.0000   0.0000   0.0000   0.0000   0.0000   0.0000
     0.0000   0.0000   0.0000   0.0000

          k = 0.1538-0.2842 0.0000 ( 24998 PWs)   bands (ev):

   -35.8129 -35.8089 -35.8073 -35.8033 -35.7698 -35.7659 -35.7525 -35.7485
   -35.7280 -35.7240 -35.4078 -35.3929 -35.3789 -35.3515 -35.3465 -28.7778
   -28.7756 -28.7611 -28.7588 -28.7533 -28.7509 -28.7414 -28.7391 -28.7364
   -28.7341 -11.6007 -11.1615 -10.2418  -8.1040  -7.4742  -3.0393  -2.9700
    -2.1375  -1.8847  -1.4852  -1.0108   0.0759   0.5125   0.7664   2.6111
     3.3325   3.5242   4.2722   5.2473   5.4421   7.0413   7.0723   7.3691
     7.7898   8.2527   8.7237   9.1231   9.5421  10.3291  10.5606  10.6639
    10.8776  11.1926  11.5456  11.7545

     occupation numbers 
     1.0000   1.0000   1.0000   1.0000   1.0000   1.0000   1.0000   1.0000
     1.0000   1.0000   1.0000   1.0000   1.0000   1.0000   1.0000   1.0000
     1.0000   1.0000   1.0000   1.0000   1.0000   1.0000   1.0000   1.0000
     1.0000   1.0000   1.0000   1.0000   1.0000   1.0000   1.0000   1.0000
     1.0000   1.0000   1.0000   1.0000   1.0000   1.0000   1.0000   0.0000
     0.0000   0.0000   0.0000   0.0000   0.0000   0.0000   0.0000   0.0000
     0.0000   0.0000   0.0000   0.0000   0.0000   0.0000   0.0000   0.0000
     0.0000   0.0000   0.0000   0.0000

          k = 0.1538-0.1910 0.0000 ( 24981 PWs)   bands (ev):

   -35.8199 -35.8158 -35.8109 -35.8069 -35.7790 -35.7751 -35.7641 -35.7601
   -35.7422 -35.7382 -35.4082 -35.3920 -35.3879 -35.3645 -35.3606 -28.7789
   -28.7766 -28.7661 -28.7637 -28.7530 -28.7507 -28.7414 -28.7391 -28.7321
   -28.7299 -11.8661 -11.4000 -10.3554  -7.9465  -7.0866  -2.7839  -2.2785
    -1.8348  -1.6146  -1.2624  -0.6948  -0.0009   0.4071   0.9918   2.5200
     3.0275   3.4939   4.1894   4.9060   5.0631   6.8509   6.8887   7.3921
     7.9075   7.9539   9.0243   9.1017   9.3161   9.7008  10.0883  10.3360
    10.5780  10.9570  11.4044  11.8046

     occupation numbers 
     1.0000   1.0000   1.0000   1.0000   1.0000   1.0000   1.0000   1.0000
     1.0000   1.0000   1.0000   1.0000   1.0000   1.0000   1.0000   1.0000
     1.0000   1.0000   1.0000   1.0000   1.0000   1.0000   1.0000   1.0000
     1.0000   1.0000   1.0000   1.0000   1.0000   1.0000   1.0000   1.0000
     1.0000   1.0000   1.0000   1.0000   1.0000   1.0000   1.0000   0.0000
     0.0000   0.0000   0.0000   0.0000   0.0000   0.0000   0.0000   0.0000
     0.0000   0.0000   0.0000   0.0000   0.0000   0.0000   0.0000   0.0000
     0.0000   0.0000   0.0000   0.0000

          k = 0.1538-0.0977 0.0000 ( 24955 PWs)   bands (ev):

   -35.8244 -35.8203 -35.8153 -35.8113 -35.7836 -35.7797 -35.7717 -35.7676
   -35.7483 -35.7443 -35.4148 -35.3988 -35.3944 -35.3742 -35.3682 -28.7779
   -28.7755 -28.7724 -28.7700 -28.7559 -28.7535 -28.7410 -28.7387 -28.7283
   -28.7260 -12.0346 -11.5498 -10.4412  -7.8674  -6.8350  -2.4227  -1.7437
    -1.6592  -1.3836  -1.1878  -0.6394   0.2354   0.5520   0.8800   2.4726
     3.0611   3.2354   4.0781   4.4746   4.8372   6.6725   6.7911   7.5241
     7.7557   8.2208   8.8814   8.9246   9.3120   9.4534   9.9102  10.1276
    10.3107  10.9741  11.2491  11.4655

     occupation numbers 
     1.0000   1.0000   1.0000   1.0000   1.0000   1.0000   1.0000   1.0000
     1.0000   1.0000   1.0000   1.0000   1.0000   1.0000   1.0000   1.0000
     1.0000   1.0000   1.0000   1.0000   1.0000   1.0000   1.0000   1.0000
     1.0000   1.0000   1.0000   1.0000   1.0000   1.0000   1.0000   1.0000
     1.0000   1.0000   1.0000   1.0000   1.0000   1.0000   1.0000   0.0000
     0.0000   0.0000   0.0000   0.0000   0.0000   0.0000   0.0000   0.0000
     0.0000   0.0000   0.0000   0.0000   0.0000   0.0000   0.0000   0.0000
     0.0000   0.0000   0.0000   0.0000

          k = 0.1538-0.0044 0.0000 ( 24964 PWs)   bands (ev):

   -35.8362 -35.8321 -35.8190 -35.8150 -35.7909 -35.7871 -35.7769 -35.7729
   -35.7553 -35.7514 -35.4155 -35.4081 -35.4013 -35.3727 -35.3704 -28.7771
   -28.7748 -28.7731 -28.7707 -28.7567 -28.7543 -28.7391 -28.7368 -28.7246
   -28.7223 -12.0980 -11.6189 -10.4818  -7.8450  -6.7621  -2.1908  -1.7704
    -1.5765  -1.3525  -0.7358  -0.6617   0.1148   0.7374   0.8877   2.6707
     2.8423   3.1142   4.1740   4.2241   4.6600   6.6009   6.7513   7.6727
     7.8308   7.8983   8.8583   9.0096   9.3468   9.5059   9.6546   9.9434
    10.7549  10.9082  11.1915  11.4496

     occupation numbers 
     1.0000   1.0000   1.0000   1.0000   1.0000   1.0000   1.0000   1.0000
     1.0000   1.0000   1.0000   1.0000   1.0000   1.0000   1.0000   1.0000
     1.0000   1.0000   1.0000   1.0000   1.0000   1.0000   1.0000   1.0000
     1.0000   1.0000   1.0000   1.0000   1.0000   1.0000   1.0000   1.0000
     1.0000   1.0000   1.0000   1.0000   1.0000   1.0000   1.0000   0.0000
     0.0000   0.0000   0.0000   0.0000   0.0000   0.0000   0.0000   0.0000
     0.0000   0.0000   0.0000   0.0000   0.0000   0.0000   0.0000   0.0000
     0.0000   0.0000   0.0000   0.0000

          k = 0.2308 0.1332 0.0000 ( 24971 PWs)   bands (ev):

   -35.8216 -35.8176 -35.8092 -35.8053 -35.7729 -35.7690 -35.7637 -35.7597
   -35.7410 -35.7370 -35.4002 -35.3928 -35.3864 -35.3678 -35.3638 -28.7725
   -28.7701 -28.7684 -28.7661 -28.7576 -28.7553 -28.7361 -28.7337 -28.7282
   -28.7258 -11.8000 -11.3499 -10.3491  -8.0492  -7.2982  -3.1560  -2.1411
    -1.8957  -1.8571  -1.2535  -0.6956   0.1565   0.4068   1.1214   2.8887
     3.2937   3.4922   4.6281   4.7804   5.1563   6.7303   6.9532   7.3383
     7.9922   8.3787   8.9387   9.1832   9.4107   9.6289  10.2363  10.4112
    10.6701  10.9894  11.2227  11.8244

     occupation numbers 
     1.0000   1.0000   1.0000   1.0000   1.0000   1.0000   1.0000   1.0000
     1.0000   1.0000   1.0000   1.0000   1.0000   1.0000   1.0000   1.0000
     1.0000   1.0000   1.0000   1.0000   1.0000   1.0000   1.0000   1.0000
     1.0000   1.0000   1.0000   1.0000   1.0000   1.0000   1.0000   1.0000
     1.0000   1.0000   1.0000   1.0000   1.0000   1.0000   1.0000   0.0000
     0.0000   0.0000   0.0000   0.0000   0.0000   0.0000   0.0000   0.0000
     0.0000   0.0000   0.0000   0.0000   0.0000   0.0000   0.0000   0.0000
     0.0000   0.0000   0.0000   0.0000

          k = 0.2308 0.2265 0.0000 ( 24990 PWs)   bands (ev):

   -35.8170 -35.8130 -35.8048 -35.8008 -35.7675 -35.7636 -35.7579 -35.7539
   -35.7352 -35.7312 -35.3995 -35.3888 -35.3831 -35.3551 -35.3526 -28.7725
   -28.7702 -28.7644 -28.7621 -28.7555 -28.7532 -28.7388 -28.7365 -28.7302
   -28.7279 -11.6017 -11.1820 -10.2747  -8.1890  -7.5798  -3.3964  -2.5914
    -2.0734  -1.9028  -1.5561  -0.8069   0.1773   0.3031   1.1038   3.0517
     3.2963   3.5543   4.6004   5.2343   5.4647   6.7159   7.1811   7.4648
     8.1178   8.3686   8.6527   9.3332   9.4954  10.2897  10.4233  10.6107
    10.7270  11.0763  11.6043  11.8871

     occupation numbers 
     1.0000   1.0000   1.0000   1.0000   1.0000   1.0000   1.0000   1.0000
     1.0000   1.0000   1.0000   1.0000   1.0000   1.0000   1.0000   1.0000
     1.0000   1.0000   1.0000   1.0000   1.0000   1.0000   1.0000   1.0000
     1.0000   1.0000   1.0000   1.0000   1.0000   1.0000   1.0000   1.0000
     1.0000   1.0000   1.0000   1.0000   1.0000   1.0000   1.0000   0.0000
     0.0000   0.0000   0.0000   0.0000   0.0000   0.0000   0.0000   0.0000
     0.0000   0.0000   0.0000   0.0000   0.0000   0.0000   0.0000   0.0000
     0.0000   0.0000   0.0000   0.0000

          k = 0.2308 0.3198 0.0000 ( 24969 PWs)   bands (ev):

   -35.8081 -35.8041 -35.7992 -35.7952 -35.7621 -35.7582 -35.7518 -35.7476
   -35.7280 -35.7240 -35.4016 -35.3916 -35.3803 -35.3443 -35.3420 -28.7697
   -28.7674 -28.7596 -28.7573 -28.7489 -28.7466 -28.7392 -28.7369 -28.7322
   -28.7299 -11.3160 -10.9388 -10.1892  -8.3774  -7.9499  -3.5355  -3.0717
[...]
    11.0010  11.1938  11.4381  11.6666

     occupation numbers 
     1.0000   1.0000   1.0000   1.0000   1.0000   1.0000   1.0000   1.0000
     1.0000   1.0000   1.0000   1.0000   1.0000   1.0000   1.0000   1.0000
     1.0000   1.0000   1.0000   1.0000   1.0000   1.0000   1.0000   1.0000
     1.0000   1.0000   1.0000   1.0000   1.0000   1.0000   1.0000   1.0000
     1.0000   1.0000   1.0000   1.0000   1.0000   1.0000   1.0000   0.0000
     0.0000   0.0000   0.0000   0.0000   0.0000   0.0000   0.0000   0.0000
     0.0000   0.0000   0.0000   0.0000   0.0000   0.0000   0.0000   0.0000
     0.0000   0.0000   0.0000   0.0000

          k = 0.4615 0.2665 0.0000 ( 24994 PWs)   bands (ev):

   -35.8289 -35.8150 -35.7902 -35.7783 -35.7763 -35.7724 -35.7506 -35.7398
   -35.7341 -35.7123 -35.3505 -35.3402 -35.3344 -35.3053 -35.2977 -28.7502
   -28.7419 -28.7373 -28.7272 -28.7187 -28.7183 -28.7140 -28.7066 -28.6951
   -28.6837 -10.7454 -10.6327 -10.3522  -8.8902  -8.2923  -4.1170  -2.7103
    -2.4753  -2.3812  -1.6929  -1.2402   0.1696   0.3299   0.6725   2.9675
     3.6172   3.7275   5.3054   5.4213   6.1318   6.3103   7.7371   8.4558
     8.7843   9.0307   9.2926   9.5072  10.0499  10.1844  10.6304  11.1656
    11.2639  11.7276  12.0420  12.0921

     occupation numbers 
     1.0000   1.0000   1.0000   1.0000   1.0000   1.0000   1.0000   1.0000
     1.0000   1.0000   1.0000   1.0000   1.0000   1.0000   1.0000   1.0000
     1.0000   1.0000   1.0000   1.0000   1.0000   1.0000   1.0000   1.0000
     1.0000   1.0000   1.0000   1.0000   1.0000   1.0000   1.0000   1.0000
     1.0000   1.0000   1.0000   1.0000   1.0000   1.0000   1.0000   0.0000
     0.0000   0.0000   0.0000   0.0000   0.0000   0.0000   0.0000   0.0000
     0.0000   0.0000   0.0000   0.0000   0.0000   0.0000   0.0000   0.0000
     0.0000   0.0000   0.0000   0.0000

          k = 0.4615 0.3597 0.0000 ( 24982 PWs)   bands (ev):

   -35.8265 -35.8138 -35.7879 -35.7782 -35.7752 -35.7711 -35.7505 -35.7397
   -35.7328 -35.7122 -35.3482 -35.3417 -35.3370 -35.3009 -35.2950 -28.7500
   -28.7408 -28.7348 -28.7269 -28.7194 -28.7176 -28.7116 -28.7091 -28.6962
   -28.6862 -10.6256 -10.5722 -10.3809  -8.9320  -8.3771  -4.1028  -2.7422
    -2.6893  -2.4071  -1.7930  -1.2797   0.1700   0.2513   0.8418   3.2581
     3.4032   3.7431   5.3366   5.5390   6.2762   6.3210   7.8317   8.6583
     8.8526   8.9486   9.1546   9.7250   9.8363  10.1829  10.5981  10.9480
    11.1313  11.4704  11.9969  12.0753

     occupation numbers 
     1.0000   1.0000   1.0000   1.0000   1.0000   1.0000   1.0000   1.0000
     1.0000   1.0000   1.0000   1.0000   1.0000   1.0000   1.0000   1.0000
     1.0000   1.0000   1.0000   1.0000   1.0000   1.0000   1.0000   1.0000
     1.0000   1.0000   1.0000   1.0000   1.0000   1.0000   1.0000   1.0000
     1.0000   1.0000   1.0000   1.0000   1.0000   1.0000   1.0000   0.0000
     0.0000   0.0000   0.0000   0.0000   0.0000   0.0000   0.0000   0.0000
     0.0000   0.0000   0.0000   0.0000   0.0000   0.0000   0.0000   0.0000
     0.0000   0.0000   0.0000   0.0000

          k = 0.4615 0.4530 0.0000 ( 24972 PWs)   bands (ev):

   -35.8248 -35.8147 -35.7861 -35.7760 -35.7757 -35.7712 -35.7487 -35.7372
   -35.7329 -35.7104 -35.3487 -35.3466 -35.3417 -35.3001 -35.2960 -28.7449
   -28.7391 -28.7269 -28.7218 -28.7186 -28.7160 -28.7098 -28.7036 -28.6955
   -28.6868 -10.6291 -10.5190 -10.2484  -8.9099  -8.5054  -3.9734  -3.0676
    -2.8878  -2.4033  -1.8068  -1.6143   0.1294   0.4022   1.0068   3.2589
     3.6991   3.7935   5.2617   5.7910   6.2287   6.8358   8.0171   8.5356
     8.8310   9.1162   9.2743   9.5332   9.8883  10.1270  10.4781  10.5242
    10.7109  11.0885  11.3138  11.9354

     occupation numbers 
     1.0000   1.0000   1.0000   1.0000   1.0000   1.0000   1.0000   1.0000
     1.0000   1.0000   1.0000   1.0000   1.0000   1.0000   1.0000   1.0000
     1.0000   1.0000   1.0000   1.0000   1.0000   1.0000   1.0000   1.0000
     1.0000   1.0000   1.0000   1.0000   1.0000   1.0000   1.0000   1.0000
     1.0000   1.0000   1.0000   1.0000   1.0000   1.0000   1.0000   0.0000
     0.0000   0.0000   0.0000   0.0000   0.0000   0.0000   0.0000   0.0000
     0.0000   0.0000   0.0000   0.0000   0.0000   0.0000   0.0000   0.0000
     0.0000   0.0000   0.0000   0.0000

          k = 0.4615 0.5463 0.0000 ( 24969 PWs)   bands (ev):

   -35.8208 -35.8073 -35.7822 -35.7762 -35.7686 -35.7685 -35.7488 -35.7377
   -35.7302 -35.7105 -35.3472 -35.3419 -35.3381 -35.2981 -35.2944 -28.7435
   -28.7402 -28.7236 -28.7204 -28.7185 -28.7170 -28.7135 -28.7004 -28.6954
   -28.6903 -10.6474 -10.4742 -10.1027  -8.8353  -8.6541  -3.7632  -3.4660
    -2.8890  -2.4262  -2.1253  -1.6060   0.0904   0.6455   0.8514   3.4704
     3.6433   3.8504   5.4588   5.8819   6.0821   7.6424   8.2622   8.3309
     8.6192   8.9451   9.1637   9.4455   9.8662  10.1004  10.3230  10.4214
    10.5794  10.9959  11.2109  11.5854

     occupation numbers 
     1.0000   1.0000   1.0000   1.0000   1.0000   1.0000   1.0000   1.0000
     1.0000   1.0000   1.0000   1.0000   1.0000   1.0000   1.0000   1.0000
     1.0000   1.0000   1.0000   1.0000   1.0000   1.0000   1.0000   1.0000
     1.0000   1.0000   1.0000   1.0000   1.0000   1.0000   1.0000   1.0000
     1.0000   1.0000   1.0000   1.0000   1.0000   1.0000   1.0000   0.0000
     0.0000   0.0000   0.0000   0.0000   0.0000   0.0000   0.0000   0.0000
     0.0000   0.0000   0.0000   0.0000   0.0000   0.0000   0.0000   0.0000
     0.0000   0.0000   0.0000   0.0000

          k = 0.4615 0.6395 0.0000 ( 24963 PWs)   bands (ev):

   -35.8196 -35.8081 -35.7809 -35.7786 -35.7694 -35.7655 -35.7478 -35.7402
   -35.7271 -35.7095 -35.3489 -35.3424 -35.3358 -35.2979 -35.2951 -28.7453
   -28.7387 -28.7242 -28.7222 -28.7176 -28.7156 -28.7146 -28.7009 -28.6945
   -28.6915 -10.6302 -10.4506 -10.0798  -8.8128  -8.6809  -3.7805  -3.4653
    -2.9077  -2.4599  -2.1388  -1.5849   0.0445   0.6237   0.8093   3.3040
     3.6605   3.8845   5.3630   5.8108   6.1263   7.4445   8.2619   8.4190
     8.7979   8.9169   9.3195   9.4624  10.0122  10.0672  10.2780  10.4207
    10.6559  11.0967  11.2141  11.4548

     occupation numbers 
     1.0000   1.0000   1.0000   1.0000   1.0000   1.0000   1.0000   1.0000
     1.0000   1.0000   1.0000   1.0000   1.0000   1.0000   1.0000   1.0000
     1.0000   1.0000   1.0000   1.0000   1.0000   1.0000   1.0000   1.0000
     1.0000   1.0000   1.0000   1.0000   1.0000   1.0000   1.0000   1.0000
     1.0000   1.0000   1.0000   1.0000   1.0000   1.0000   1.0000   0.0000
     0.0000   0.0000   0.0000   0.0000   0.0000   0.0000   0.0000   0.0000
     0.0000   0.0000   0.0000   0.0000   0.0000   0.0000   0.0000   0.0000
     0.0000   0.0000   0.0000   0.0000

          k = 0.4615 0.7328 0.0000 ( 24939 PWs)   bands (ev):

   -35.8207 -35.8138 -35.7821 -35.7795 -35.7752 -35.7659 -35.7471 -35.7411
   -35.7275 -35.7088 -35.3537 -35.3457 -35.3336 -35.2979 -35.2949 -28.7486
   -28.7372 -28.7282 -28.7255 -28.7188 -28.7142 -28.7129 -28.7049 -28.6956
   -28.6901 -10.5747 -10.4531 -10.1939  -8.8895  -8.5306  -3.9912  -3.0693
    -2.9819  -2.4542  -1.7561  -1.7097   0.0465   0.3407   0.8539   3.0792
     3.5903   3.7225   5.1937   5.6387   6.2103   6.7192   8.0396   8.5753
     8.8677   9.2598   9.4702   9.5757  10.0674  10.2046  10.4659  10.6727
    10.7884  11.1568  11.3042  11.9149

     occupation numbers 
     1.0000   1.0000   1.0000   1.0000   1.0000   1.0000   1.0000   1.0000
     1.0000   1.0000   1.0000   1.0000   1.0000   1.0000   1.0000   1.0000
     1.0000   1.0000   1.0000   1.0000   1.0000   1.0000   1.0000   1.0000
     1.0000   1.0000   1.0000   1.0000   1.0000   1.0000   1.0000   1.0000
     1.0000   1.0000   1.0000   1.0000   1.0000   1.0000   1.0000   0.0000
     0.0000   0.0000   0.0000   0.0000   0.0000   0.0000   0.0000   0.0000
     0.0000   0.0000   0.0000   0.0000   0.0000   0.0000   0.0000   0.0000
     0.0000   0.0000   0.0000   0.0000

          k = 0.4615 0.8261 0.0000 ( 24998 PWs)   bands (ev):

   -35.8205 -35.8109 -35.7820 -35.7806 -35.7722 -35.7675 -35.7497 -35.7422
   -35.7291 -35.7114 -35.3547 -35.3430 -35.3259 -35.2968 -35.2907 -28.7534
   -28.7387 -28.7348 -28.7302 -28.7215 -28.7155 -28.7117 -28.7109 -28.6983
   -28.6881 -10.5306 -10.4798 -10.3326  -8.9096  -8.3887  -4.1152  -2.8656
    -2.6404  -2.5063  -1.9049  -1.3240   0.0641   0.1468   0.6467   3.0180
     3.2514   3.6857   5.2828   5.3286   6.2352   6.2641   7.8965   8.7611
     8.9529   9.0168   9.2505   9.8102   9.9379  10.1835  10.6889  10.8278
    11.2624  11.6571  11.8521  12.0300

     occupation numbers 
     1.0000   1.0000   1.0000   1.0000   1.0000   1.0000   1.0000   1.0000
     1.0000   1.0000   1.0000   1.0000   1.0000   1.0000   1.0000   1.0000
     1.0000   1.0000   1.0000   1.0000   1.0000   1.0000   1.0000   1.0000
     1.0000   1.0000   1.0000   1.0000   1.0000   1.0000   1.0000   1.0000
     1.0000   1.0000   1.0000   1.0000   1.0000   1.0000   1.0000   0.0000
     0.0000   0.0000   0.0000   0.0000   0.0000   0.0000   0.0000   0.0000
     0.0000   0.0000   0.0000   0.0000   0.0000   0.0000   0.0000   0.0000
     0.0000   0.0000   0.0000   0.0000

          k = 0.4615-0.2931 0.0000 ( 24997 PWs)   bands (ev):

   -35.8225 -35.8126 -35.7840 -35.7822 -35.7740 -35.7669 -35.7490 -35.7438
   -35.7285 -35.7107 -35.3572 -35.3436 -35.3236 -35.3008 -35.2918 -28.7533
   -28.7395 -28.7363 -28.7301 -28.7206 -28.7163 -28.7131 -28.7083 -28.6975
   -28.6854 -10.6595 -10.5401 -10.2910  -8.8606  -8.2946  -4.1254  -2.7164
    -2.6397  -2.3511  -1.9330  -1.2401   0.0795   0.1561   0.5085   2.7284
     3.4599   3.6852   5.0664   5.3770   6.0973   6.2784   7.8200   8.5490
     8.8614   9.1415   9.3928   9.5793  10.1341  10.2335  10.6995  11.0970
    11.3165  11.6839  11.8798  12.1037

     occupation numbers 
     1.0000   1.0000   1.0000   1.0000   1.0000   1.0000   1.0000   1.0000
     1.0000   1.0000   1.0000   1.0000   1.0000   1.0000   1.0000   1.0000
     1.0000   1.0000   1.0000   1.0000   1.0000   1.0000   1.0000   1.0000
     1.0000   1.0000   1.0000   1.0000   1.0000   1.0000   1.0000   1.0000
     1.0000   1.0000   1.0000   1.0000   1.0000   1.0000   1.0000   0.0000
     0.0000   0.0000   0.0000   0.0000   0.0000   0.0000   0.0000   0.0000
     0.0000   0.0000   0.0000   0.0000   0.0000   0.0000   0.0000   0.0000
     0.0000   0.0000   0.0000   0.0000

          k = 0.4615-0.1999 0.0000 ( 24964 PWs)   bands (ev):

   -35.8218 -35.8125 -35.7833 -35.7792 -35.7739 -35.7700 -35.7496 -35.7408
   -35.7316 -35.7114 -35.3531 -35.3417 -35.3277 -35.2993 -35.2931 -28.7539
   -28.7396 -28.7346 -28.7308 -28.7227 -28.7164 -28.7123 -28.7113 -28.6995
   -28.6893 -10.8246 -10.6097 -10.1815  -8.7581  -8.2750  -4.0183  -2.7761
    -2.6802  -2.4492  -1.7781  -1.3147  -0.0159   0.2618   0.7130   3.0781
     3.1984   3.7548   5.2097   5.3438   6.1514   6.4260   7.8035   8.2713
     8.6876   9.2202   9.5273   9.5957  10.0900  10.4155  10.7538  10.8479
    11.3465  11.3844  11.6396  11.8454

     occupation numbers 
     1.0000   1.0000   1.0000   1.0000   1.0000   1.0000   1.0000   1.0000
     1.0000   1.0000   1.0000   1.0000   1.0000   1.0000   1.0000   1.0000
     1.0000   1.0000   1.0000   1.0000   1.0000   1.0000   1.0000   1.0000
     1.0000   1.0000   1.0000   1.0000   1.0000   1.0000   1.0000   1.0000
     1.0000   1.0000   1.0000   1.0000   1.0000   1.0000   1.0000   0.0000
     0.0000   0.0000   0.0000   0.0000   0.0000   0.0000   0.0000   0.0000
     0.0000   0.0000   0.0000   0.0000   0.0000   0.0000   0.0000   0.0000
     0.0000   0.0000   0.0000   0.0000

          k = 0.4615-0.1066 0.0000 ( 24940 PWs)   bands (ev):

   -35.8232 -35.8160 -35.7846 -35.7811 -35.7774 -35.7683 -35.7488 -35.7428
   -35.7298 -35.7105 -35.3538 -35.3465 -35.3390 -35.3021 -35.2992 -28.7488
   -28.7381 -28.7277 -28.7257 -28.7191 -28.7150 -28.7136 -28.7044 -28.6958
   -28.6907 -10.9430 -10.6663 -10.1179  -8.6268  -8.3148  -3.8068  -3.1022
    -2.6551  -2.5037  -1.7553  -1.4866   0.0897   0.4201   0.9244   3.0180
     3.6210   3.8597   5.0388   5.6267   6.1359   6.8742   7.8925   8.0736
     8.6289   8.9089   9.1749   9.5551   9.9469  10.1939  10.6270  10.8479
    11.2532  11.2845  11.5178  11.7490

     occupation numbers 
     1.0000   1.0000   1.0000   1.0000   1.0000   1.0000   1.0000   1.0000
     1.0000   1.0000   1.0000   1.0000   1.0000   1.0000   1.0000   1.0000
     1.0000   1.0000   1.0000   1.0000   1.0000   1.0000   1.0000   1.0000
     1.0000   1.0000   1.0000   1.0000   1.0000   1.0000   1.0000   1.0000
     1.0000   1.0000   1.0000   1.0000   1.0000   1.0000   1.0000   0.0000
     0.0000   0.0000   0.0000   0.0000   0.0000   0.0000   0.0000   0.0000
     0.0000   0.0000   0.0000   0.0000   0.0000   0.0000   0.0000   0.0000
     0.0000   0.0000   0.0000   0.0000

          k = 0.4615-0.0133 0.0000 ( 24971 PWs)   bands (ev):

   -35.8248 -35.8099 -35.7862 -35.7782 -35.7712 -35.7696 -35.7486 -35.7398
   -35.7312 -35.7103 -35.3516 -35.3452 -35.3415 -35.3003 -35.2970 -28.7477
   -28.7406 -28.7257 -28.7245 -28.7200 -28.7175 -28.7157 -28.7025 -28.6969
   -28.6926 -10.9903 -10.6954 -10.1009  -8.5659  -8.3535  -3.5476  -3.4493
    -2.6208  -2.2359  -2.1534  -1.4386   0.2609   0.7004   0.7478   3.3852
     3.5205   3.8826   5.1975   5.7518   6.0118   7.5576   7.7744   8.0575
     8.1127   8.7574   9.0040   9.2440   9.8964  10.0811  10.7226  10.8213
    11.1509  11.2427  11.5701  11.7745

     occupation numbers 
     1.0000   1.0000   1.0000   1.0000   1.0000   1.0000   1.0000   1.0000
     1.0000   1.0000   1.0000   1.0000   1.0000   1.0000   1.0000   1.0000
     1.0000   1.0000   1.0000   1.0000   1.0000   1.0000   1.0000   1.0000
     1.0000   1.0000   1.0000   1.0000   1.0000   1.0000   1.0000   1.0000
     1.0000   1.0000   1.0000   1.0000   1.0000   1.0000   1.0000   0.0000
     0.0000   0.0000   0.0000   0.0000   0.0000   0.0000   0.0000   0.0000
     0.0000   0.0000   0.0000   0.0000   0.0000   0.0000   0.0000   0.0000
     0.0000   0.0000   0.0000   0.0000

          k = 0.4615 0.0799 0.0000 ( 24968 PWs)   bands (ev):

   -35.8266 -35.8164 -35.7880 -35.7777 -35.7770 -35.7738 -35.7504 -35.7385
   -35.7355 -35.7121 -35.3515 -35.3469 -35.3456 -35.3032 -35.2994 -28.7461
   -28.7401 -28.7274 -28.7230 -28.7188 -28.7170 -28.7109 -28.7042 -28.6956
   -28.6879 -10.9730 -10.7048 -10.1562  -8.6606  -8.3014  -3.8084  -3.0767
    -2.5945  -2.4684  -1.7712  -1.4234   0.1582   0.4584   1.0443   3.1879
     3.7122   3.8517   5.0817   5.7586   6.0911   6.9563   7.8626   8.0343
     8.6092   8.7263   9.0941   9.3874   9.8730  10.1594  10.5428  10.8020
    11.1084  11.2724  11.5711  11.6602

     occupation numbers 
     1.0000   1.0000   1.0000   1.0000   1.0000   1.0000   1.0000   1.0000
     1.0000   1.0000   1.0000   1.0000   1.0000   1.0000   1.0000   1.0000
     1.0000   1.0000   1.0000   1.0000   1.0000   1.0000   1.0000   1.0000
     1.0000   1.0000   1.0000   1.0000   1.0000   1.0000   1.0000   1.0000
     1.0000   1.0000   1.0000   1.0000   1.0000   1.0000   1.0000   0.0000
     0.0000   0.0000   0.0000   0.0000   0.0000   0.0000   0.0000   0.0000
     0.0000   0.0000   0.0000   0.0000   0.0000   0.0000   0.0000   0.0000
     0.0000   0.0000   0.0000   0.0000

          k = 0.4615 0.1732 0.0000 ( 24992 PWs)   bands (ev):

   -35.8279 -35.8156 -35.7892 -35.7782 -35.7769 -35.7726 -35.7506 -35.7397
   -35.7342 -35.7123 -35.3469 -35.3414 -35.3395 -35.3032 -35.2972 -28.7506
   -28.7416 -28.7350 -28.7275 -28.7200 -28.7185 -28.7117 -28.7098 -28.6969
   -28.6868 -10.8847 -10.6824 -10.2445  -8.7934  -8.2700  -4.0139  -2.7798
    -2.5860  -2.3515  -1.7120  -1.2538   0.1055   0.3339   0.9021   3.3131
     3.3410   3.7764   5.2592   5.5206   6.1715   6.4502   7.7335   8.2067
     8.6472   9.1250   9.3796   9.4516  10.0639  10.2232  10.6742  10.6974
    11.1592  11.4284  11.7438  11.9446

     occupation numbers 
     1.0000   1.0000   1.0000   1.0000   1.0000   1.0000   1.0000   1.0000
     1.0000   1.0000   1.0000   1.0000   1.0000   1.0000   1.0000   1.0000
     1.0000   1.0000   1.0000   1.0000   1.0000   1.0000   1.0000   1.0000
     1.0000   1.0000   1.0000   1.0000   1.0000   1.0000   1.0000   1.0000
     1.0000   1.0000   1.0000   1.0000   1.0000   1.0000   1.0000   0.0000
     0.0000   0.0000   0.0000   0.0000   0.0000   0.0000   0.0000   0.0000
     0.0000   0.0000   0.0000   0.0000   0.0000   0.0000   0.0000   0.0000
     0.0000   0.0000   0.0000   0.0000

     highest occupied, lowest unoccupied level (ev):     1.1789    2.1295

     Writing all to output data dir tmp/Sb2Te3-uatsx-c1-5.0.save/ :
     XML data file, pseudopotentials, collected wavefunctions

     init_run     :     11.02s CPU     12.18s WALL (       1 calls)
     electrons    :   1285.88s CPU   1295.49s WALL (       1 calls)

     Called by init_run:
     aceinit0     :     10.50s CPU     11.61s WALL (       1 calls)
     wfcinit      :      0.00s CPU      0.03s WALL (       1 calls)
     wfcinit:wfcr :      6.59s CPU      6.70s WALL (     170 calls)
     potinit      :      0.03s CPU      0.03s WALL (       1 calls)
     hinit0       :      0.46s CPU      0.46s WALL (       1 calls)

     Called by electrons:
     c_bands      :    239.17s CPU    242.33s WALL (       2 calls)
     sum_band     :      1.31s CPU      1.35s WALL (       1 calls)
     v_of_rho     :      0.03s CPU      0.03s WALL (       2 calls)
     v_h          :      0.00s CPU      0.00s WALL (       2 calls)
     v_xc         :      0.03s CPU      0.03s WALL (       2 calls)

     Called by c_bands:
     init_us_2    :      0.07s CPU      0.09s WALL (     255 calls)
     cegterg      :    224.93s CPU    227.84s WALL (     471 calls)

     Called by sum_band:
     sum_band:wei :      0.00s CPU      0.00s WALL (       1 calls)
     sum_band:loo :      1.31s CPU      1.35s WALL (       1 calls)
     sum_band:buf :      0.01s CPU      0.02s WALL (      85 calls)
     sum_band:ini :      0.02s CPU      0.03s WALL (      85 calls)

     Called by *egterg:
     cdiaghg      :     44.37s CPU     44.59s WALL (    7775 calls)
     cegterg:over :     17.81s CPU     17.95s WALL (    7605 calls)
     cegterg:upda :      3.44s CPU      3.48s WALL (    7605 calls)
     cegterg:last :      6.32s CPU      6.38s WALL (    4056 calls)
     h_psi        :    153.13s CPU    155.67s WALL (    8246 calls)
     g_psi        :      0.91s CPU      0.92s WALL (    7605 calls)

     Called by h_psi:
     h_psi:calbec :      9.27s CPU      9.38s WALL (    8246 calls)
     vloc_psi     :    133.22s CPU    135.55s WALL (    8246 calls)
     add_vuspsi   :      2.64s CPU      2.67s WALL (    8246 calls)

     General routines
     calbec       :     14.99s CPU     15.17s WALL (   16577 calls)
     fft          :      0.48s CPU      0.48s WALL (      19 calls)
     ffts         :      0.00s CPU      0.00s WALL (       1 calls)
     fftw         :    128.27s CPU    130.50s WALL (  527794 calls)
     fftc         :    973.26s CPU    978.86s WALL (  612000 calls)
     fftcw        :      4.14s CPU      4.19s WALL (   15300 calls)
     davcio       :      0.06s CPU      0.13s WALL (     510 calls)

     Parallel routines

     EXX routines
     exx_grid     :      0.00s CPU      0.00s WALL (       1 calls)
     exxinit      :     21.56s CPU     21.91s WALL (       1 calls)
     vexx         :   1023.64s CPU   1029.62s WALL (      85 calls)
     matcalc      :      5.77s CPU      5.83s WALL (    8331 calls)
     aceupdate    :      0.03s CPU      0.03s WALL (      85 calls)
     vexxace      :      7.64s CPU      7.72s WALL (    8246 calls)
     aceinit      :   1023.78s CPU   1029.77s WALL (      85 calls)

     PWSCF        :  22m 4.69s CPU  22m56.54s WALL


   This run was terminated on:   4:15:17  15May2025            

=------------------------------------------------------------------------------=
   JOB DONE.
=------------------------------------------------------------------------------=
