
     Program PWSCF v.7.3.1 starts on 14May2025 at 19:37:57 

     This program is part of the open-source Quantum ESPRESSO suite
     for quantum simulation of materials; please cite
         "P. Giannozzi et al., J. Phys.:Condens. Matter 21 395502 (2009);
         "P. Giannozzi et al., J. Phys.:Condens. Matter 29 465901 (2017);
         "P. Giannozzi et al., J. Chem. Phys. 152 154105 (2020);
          URL http://www.quantum-espresso.org", 
     in publications or presentations arising from this work. More details at
     http://www.quantum-espresso.org/quote

     Parallel version (MPI & OpenMP), running on      72 processor cores
     Number of MPI processes:                72
     Threads/MPI process:                     1

     MPI processes distributed on     3 nodes
     102361 MiB available memory on the printing compute node when the environment starts

     Waiting for input...
     Reading input from standard input

     Current dimensions of program PWSCF are:
     Max number of different atomic species (ntypx) = 10
     Max number of k-points (npk) =  40000
     Max angular momentum in pseudopotentials (lmaxx) =  4

     IMPORTANT: XC functional enforced from input :
     Exchange-correlation= B3LYP-V1R
                           (   7  13   9   7   0   0   0)
     EXX-fraction              =        0.20
     Any further DFT definition will be discarded
     Please, verify this is what you really want


     Atomic positions and unit cell read from directory:
     tmp/Sb2Te3-uatsx-c1-1.0.save/

     EXX fraction changed:   0.20

     R & G space division:  proc/nbgrp/npool/nimage =      72
     Subspace diagonalization in iterative solution of the eigenvalue problem:
     a serial algorithm will be used

     EXX: q-point mesh:     1    1    1
     EXX: setup a grid of 85 q-points centered on each k-point
     (k+q)-points:
   0.0000000   0.0000000   0.0000000         1    1
   0.0000000   0.0897122   0.0000000         2    1
   0.0000000   0.1794244   0.0000000         3    1
   0.0000000   0.2691367   0.0000000         4    1
   0.0000000   0.3588489   0.0000000         5    1
   0.0000000   0.4485611   0.0000000         6    1
   0.0000000   0.5382733   0.0000000         7    1
   0.0769231   0.0444120   0.0000000         8    1
   0.0769231   0.1341242   0.0000000         9    1
   0.0769231   0.2238364   0.0000000        10    1
   0.0769231   0.3135486   0.0000000        11    1
   0.0769231   0.4032609   0.0000000        12    1
   0.0769231   0.4929731   0.0000000        13    1
   0.0769231   0.5826853   0.0000000        14    1
   0.0769231  -0.4938613   0.0000000        15    1
   0.0769231  -0.4041491   0.0000000        16    1
   0.0769231  -0.3144369   0.0000000        17    1
   0.0769231  -0.2247247   0.0000000        18    1
   0.0769231  -0.1350124   0.0000000        19    1
   0.0769231  -0.0453002   0.0000000        20    1
   0.1538462   0.0888240   0.0000000        21    1
   0.1538462   0.1785362   0.0000000        22    1
   0.1538462   0.2682484   0.0000000        23    1
   0.1538462   0.3579606   0.0000000        24    1
   0.1538462   0.4476728   0.0000000        25    1
   0.1538462   0.5373851   0.0000000        26    1
   0.1538462   0.6270973   0.0000000        27    1
   0.1538462  -0.4494493   0.0000000        28    1
   0.1538462  -0.3597371   0.0000000        29    1
   0.1538462  -0.2700249   0.0000000        30    1
   0.1538462  -0.1803127   0.0000000        31    1
   0.1538462  -0.0906005   0.0000000        32    1
   0.1538462  -0.0008882   0.0000000        33    1
   0.2307692   0.1332360   0.0000000        34    1
   0.2307692   0.2229482   0.0000000        35    1
   0.2307692   0.3126604   0.0000000        36    1
   0.2307692   0.4023726   0.0000000        37    1
   0.2307692   0.4920848   0.0000000        38    1
   0.2307692   0.5817971   0.0000000        39    1
   0.2307692   0.6715093   0.0000000        40    1
   0.2307692  -0.4050373   0.0000000        41    1
   0.2307692  -0.3153251   0.0000000        42    1
   0.2307692  -0.2256129   0.0000000        43    1
   0.2307692  -0.1359007   0.0000000        44    1
   0.2307692  -0.0461885   0.0000000        45    1
   0.2307692   0.0435237   0.0000000        46    1
   0.3076923   0.1776480   0.0000000        47    1
   0.3076923   0.2673602   0.0000000        48    1
   0.3076923   0.3570724   0.0000000        49    1
   0.3076923   0.4467846   0.0000000        50    1
   0.3076923   0.5364968   0.0000000        51    1
   0.3076923   0.6262090   0.0000000        52    1
   0.3076923   0.7159213   0.0000000        53    1
   0.3076923  -0.3606253   0.0000000        54    1
   0.3076923  -0.2709131   0.0000000        55    1
   0.3076923  -0.1812009   0.0000000        56    1
   0.3076923  -0.0914887   0.0000000        57    1
   0.3076923  -0.0017765   0.0000000        58    1
   0.3076923   0.0879357   0.0000000        59    1
   0.3846154   0.2220599   0.0000000        60    1
   0.3846154   0.3117722   0.0000000        61    1
   0.3846154   0.4014844   0.0000000        62    1
   0.3846154   0.4911966   0.0000000        63    1
   0.3846154   0.5809088   0.0000000        64    1
   0.3846154   0.6706210   0.0000000        65    1
   0.3846154   0.7603332   0.0000000        66    1
   0.3846154  -0.3162134   0.0000000        67    1
   0.3846154  -0.2265011   0.0000000        68    1
   0.3846154  -0.1367889   0.0000000        69    1
   0.3846154  -0.0470767   0.0000000        70    1
   0.3846154   0.0426355   0.0000000        71    1
   0.3846154   0.1323477   0.0000000        72    1
   0.4615385   0.2664719   0.0000000        73    1
   0.4615385   0.3561841   0.0000000        74    1
   0.4615385   0.4458964   0.0000000        75    1
   0.4615385   0.5356086   0.0000000        76    1
   0.4615385   0.6253208   0.0000000        77    1
   0.4615385   0.7150330   0.0000000        78    1
   0.4615385   0.8047452   0.0000000        79    1
   0.4615385  -0.2718014   0.0000000        80    1
   0.4615385  -0.1820892   0.0000000        81    1
   0.4615385  -0.0923769   0.0000000        82    1
   0.4615385  -0.0026647   0.0000000        83    1
   0.4615385   0.0870475   0.0000000        84    1
   0.4615385   0.1767597   0.0000000        85    1

     Parallelization info
     --------------------
     sticks:   dense  smooth     PW     G-vecs:    dense   smooth      PW
     Min          17      17      5                 2645     2645     419
     Max          18      18      6                 2684     2684     440
     Sum        1285    1285    379               192371   192371   30683

     Using Slab Decomposition



     bravais-lattice index     =            0
     lattice parameter (alat)  =       8.2271  a.u.
     unit-cell volume          =    2430.6623 (a.u.)^3
     number of atoms/cell      =            5
     number of atomic types    =            2
     number of electrons       =        78.00
     number of Kohn-Sham states=           60
     kinetic-energy cutoff     =      70.0000  Ry
     charge density cutoff     =     280.0000  Ry
     cutoff for Fock operator  =     280.0000  Ry
     Exchange-correlation= B3LYP-V1R
                           (   7  13   9   7   0   0   0)
     EXX-fraction              =        0.20

     celldm(1)=   8.227090  celldm(2)=   0.000000  celldm(3)=   0.000000
     celldm(4)=   0.000000  celldm(5)=   0.000000  celldm(6)=   0.000000

     crystal axes: (cart. coord. in units of alat)
               a(1) = (   1.000000   0.000000   0.000000 )  
               a(2) = (  -0.495050   0.857443   0.000000 )  
               a(3) = (   0.000000   0.000000   5.090739 )  

     reciprocal axes: (cart. coord. in units 2 pi/alat)
               b(1) = (  1.000000  0.577356 -0.000000 )  
               b(2) = (  0.000000  1.166259  0.000000 )  
               b(3) = (  0.000000 -0.000000  0.196435 )  


     PseudoPot. # 1 for Sb read from file:
     /zfs-home/202401017n/pseudos/Sb_ONCV_PBE-1.2.upf
     MD5 check sum: 0417cd6c0fe8ce4611e2b23135f1abd9
     Pseudo is Norm-conserving, Zval = 15.0
     Generated using ONCVPSP code by D. R. Hamann
     Using radial grid of  602 points,  6 beta functions with: 
                l(1) =   0
                l(2) =   0
                l(3) =   1
                l(4) =   1
                l(5) =   2
                l(6) =   2

     PseudoPot. # 2 for Te read from file:
     /zfs-home/202401017n/pseudos/Te_ONCV_PBE-1.2.upf
     MD5 check sum: dd4de4dac1e38587f63aaf3700bb29d3
     Pseudo is Norm-conserving, Zval = 16.0
     Generated using ONCVPSP code by D. R. Hamann
     Using radial grid of  602 points,  6 beta functions with: 
                l(1) =   0
                l(2) =   0
                l(3) =   1
                l(4) =   1
                l(5) =   2
                l(6) =   2

     atomic species   valence    mass     pseudopotential
     Sb               15.00   121.76000     Sb( 1.00)
     Te               16.00   127.60000     Te( 1.00)

     No symmetry found


                                    s                        frac. trans.

      isym =  1     identity                                     

 cryst.   s( 1) = (     1          0          0      )
                  (     0          1          0      )
                  (     0          0          1      )

 cart.    s( 1) = (  1.0000000  0.0000000  0.0000000 )
                  (  0.0000000  1.0000000  0.0000000 )
                  (  0.0000000  0.0000000  1.0000000 )


   Cartesian axes

     site n.     atom                  positions (alat units)
         1        Sb     tau(   1) = (   0.5788554   0.4207610   3.0040749  )
         2        Te     tau(   2) = (   0.5752577   0.4138624   1.6972962  )
         3        Sb     tau(   3) = (   0.0743102   0.1298379   2.0866212  )
         4        Te     tau(   4) = (   0.0782247   0.1361538   3.3933943  )
         5        Te     tau(   5) = (   0.0792404   0.7036244   2.5453648  )

     -------------------------------------------------
     Parameters for Dispersion (Grimme-D2) Correction:
     -------------------------------------------------
       atom      VdW radius       C_6     

        Sb         3.555       1333.532
        Te         3.575       1101.101

   Crystallographic axes

     site n.     atom                  positions (cryst. coord.)
         1        Sb     tau(   1) = (  0.8217842  0.4907162  0.5901058  )
         2        Te     tau(   2) = (  0.8142035  0.4826706  0.3334086  )
         3        Sb     tau(   3) = (  0.1492728  0.1514246  0.4098857  )
         4        Te     tau(   4) = (  0.1568340  0.1587906  0.6665818  )
         5        Te     tau(   5) = (  0.4854821  0.8206082  0.4999990  )

     number of k points=    85
                       cart. coord. in units 2pi/alat
        k(    1) = (   0.0000000   0.0000000   0.0000000), wk =   0.0118343
        k(    2) = (   0.0000000   0.0897122   0.0000000), wk =   0.0236686
        k(    3) = (   0.0000000   0.1794244   0.0000000), wk =   0.0236686
        k(    4) = (   0.0000000   0.2691367   0.0000000), wk =   0.0236686
        k(    5) = (   0.0000000   0.3588489   0.0000000), wk =   0.0236686
        k(    6) = (   0.0000000   0.4485611   0.0000000), wk =   0.0236686
        k(    7) = (   0.0000000   0.5382733   0.0000000), wk =   0.0236686
        k(    8) = (   0.0769231   0.0444120   0.0000000), wk =   0.0236686
        k(    9) = (   0.0769231   0.1341242   0.0000000), wk =   0.0236686
        k(   10) = (   0.0769231   0.2238364   0.0000000), wk =   0.0236686
        k(   11) = (   0.0769231   0.3135486   0.0000000), wk =   0.0236686
        k(   12) = (   0.0769231   0.4032609   0.0000000), wk =   0.0236686
        k(   13) = (   0.0769231   0.4929731   0.0000000), wk =   0.0236686
        k(   14) = (   0.0769231   0.5826853   0.0000000), wk =   0.0236686
        k(   15) = (   0.0769231  -0.4938613   0.0000000), wk =   0.0236686
        k(   16) = (   0.0769231  -0.4041491   0.0000000), wk =   0.0236686
        k(   17) = (   0.0769231  -0.3144369   0.0000000), wk =   0.0236686
        k(   18) = (   0.0769231  -0.2247247   0.0000000), wk =   0.0236686
        k(   19) = (   0.0769231  -0.1350124   0.0000000), wk =   0.0236686
        k(   20) = (   0.0769231  -0.0453002   0.0000000), wk =   0.0236686
        k(   21) = (   0.1538462   0.0888240   0.0000000), wk =   0.0236686
        k(   22) = (   0.1538462   0.1785362   0.0000000), wk =   0.0236686
        k(   23) = (   0.1538462   0.2682484   0.0000000), wk =   0.0236686
        k(   24) = (   0.1538462   0.3579606   0.0000000), wk =   0.0236686
        k(   25) = (   0.1538462   0.4476728   0.0000000), wk =   0.0236686
        k(   26) = (   0.1538462   0.5373851   0.0000000), wk =   0.0236686
        k(   27) = (   0.1538462   0.6270973   0.0000000), wk =   0.0236686
        k(   28) = (   0.1538462  -0.4494493   0.0000000), wk =   0.0236686
        k(   29) = (   0.1538462  -0.3597371   0.0000000), wk =   0.0236686
        k(   30) = (   0.1538462  -0.2700249   0.0000000), wk =   0.0236686
        k(   31) = (   0.1538462  -0.1803127   0.0000000), wk =   0.0236686
        k(   32) = (   0.1538462  -0.0906005   0.0000000), wk =   0.0236686
        k(   33) = (   0.1538462  -0.0008882   0.0000000), wk =   0.0236686
        k(   34) = (   0.2307692   0.1332360   0.0000000), wk =   0.0236686
        k(   35) = (   0.2307692   0.2229482   0.0000000), wk =   0.0236686
        k(   36) = (   0.2307692   0.3126604   0.0000000), wk =   0.0236686
        k(   37) = (   0.2307692   0.4023726   0.0000000), wk =   0.0236686
        k(   38) = (   0.2307692   0.4920848   0.0000000), wk =   0.0236686
        k(   39) = (   0.2307692   0.5817971   0.0000000), wk =   0.0236686
        k(   40) = (   0.2307692   0.6715093   0.0000000), wk =   0.0236686
        k(   41) = (   0.2307692  -0.4050373   0.0000000), wk =   0.0236686
        k(   42) = (   0.2307692  -0.3153251   0.0000000), wk =   0.0236686
        k(   43) = (   0.2307692  -0.2256129   0.0000000), wk =   0.0236686
        k(   44) = (   0.2307692  -0.1359007   0.0000000), wk =   0.0236686
        k(   45) = (   0.2307692  -0.0461885   0.0000000), wk =   0.0236686
        k(   46) = (   0.2307692   0.0435237   0.0000000), wk =   0.0236686
        k(   47) = (   0.3076923   0.1776480   0.0000000), wk =   0.0236686
        k(   48) = (   0.3076923   0.2673602   0.0000000), wk =   0.0236686
        k(   49) = (   0.3076923   0.3570724   0.0000000), wk =   0.0236686
        k(   50) = (   0.3076923   0.4467846   0.0000000), wk =   0.0236686
        k(   51) = (   0.3076923   0.5364968   0.0000000), wk =   0.0236686
        k(   52) = (   0.3076923   0.6262090   0.0000000), wk =   0.0236686
        k(   53) = (   0.3076923   0.7159213   0.0000000), wk =   0.0236686
        k(   54) = (   0.3076923  -0.3606253   0.0000000), wk =   0.0236686
        k(   55) = (   0.3076923  -0.2709131   0.0000000), wk =   0.0236686
        k(   56) = (   0.3076923  -0.1812009   0.0000000), wk =   0.0236686
        k(   57) = (   0.3076923  -0.0914887   0.0000000), wk =   0.0236686
        k(   58) = (   0.3076923  -0.0017765   0.0000000), wk =   0.0236686
        k(   59) = (   0.3076923   0.0879357   0.0000000), wk =   0.0236686
        k(   60) = (   0.3846154   0.2220599   0.0000000), wk =   0.0236686
        k(   61) = (   0.3846154   0.3117722   0.0000000), wk =   0.0236686
        k(   62) = (   0.3846154   0.4014844   0.0000000), wk =   0.0236686
        k(   63) = (   0.3846154   0.4911966   0.0000000), wk =   0.0236686
        k(   64) = (   0.3846154   0.5809088   0.0000000), wk =   0.0236686
        k(   65) = (   0.3846154   0.6706210   0.0000000), wk =   0.0236686
        k(   66) = (   0.3846154   0.7603332   0.0000000), wk =   0.0236686
        k(   67) = (   0.3846154  -0.3162134   0.0000000), wk =   0.0236686
        k(   68) = (   0.3846154  -0.2265011   0.0000000), wk =   0.0236686
        k(   69) = (   0.3846154  -0.1367889   0.0000000), wk =   0.0236686
        k(   70) = (   0.3846154  -0.0470767   0.0000000), wk =   0.0236686
        k(   71) = (   0.3846154   0.0426355   0.0000000), wk =   0.0236686
        k(   72) = (   0.3846154   0.1323477   0.0000000), wk =   0.0236686
        k(   73) = (   0.4615385   0.2664719   0.0000000), wk =   0.0236686
        k(   74) = (   0.4615385   0.3561841   0.0000000), wk =   0.0236686
        k(   75) = (   0.4615385   0.4458964   0.0000000), wk =   0.0236686
        k(   76) = (   0.4615385   0.5356086   0.0000000), wk =   0.0236686
        k(   77) = (   0.4615385   0.6253208   0.0000000), wk =   0.0236686
        k(   78) = (   0.4615385   0.7150330   0.0000000), wk =   0.0236686
        k(   79) = (   0.4615385   0.8047452   0.0000000), wk =   0.0236686
        k(   80) = (   0.4615385  -0.2718014   0.0000000), wk =   0.0236686
        k(   81) = (   0.4615385  -0.1820892   0.0000000), wk =   0.0236686
        k(   82) = (   0.4615385  -0.0923769   0.0000000), wk =   0.0236686
        k(   83) = (   0.4615385  -0.0026647   0.0000000), wk =   0.0236686
        k(   84) = (   0.4615385   0.0870475   0.0000000), wk =   0.0236686
        k(   85) = (   0.4615385   0.1767597   0.0000000), wk =   0.0236686

                       cryst. coord.
        k(    1) = (   0.0000000   0.0000000   0.0000000), wk =   0.0118343
        k(    2) = (   0.0000000   0.0769231   0.0000000), wk =   0.0236686
        k(    3) = (   0.0000000   0.1538462   0.0000000), wk =   0.0236686
        k(    4) = (   0.0000000   0.2307692   0.0000000), wk =   0.0236686
        k(    5) = (   0.0000000   0.3076923   0.0000000), wk =   0.0236686
        k(    6) = (   0.0000000   0.3846154   0.0000000), wk =   0.0236686
        k(    7) = (   0.0000000   0.4615385   0.0000000), wk =   0.0236686
        k(    8) = (   0.0769231  -0.0000000   0.0000000), wk =   0.0236686
        k(    9) = (   0.0769231   0.0769231   0.0000000), wk =   0.0236686
        k(   10) = (   0.0769231   0.1538462   0.0000000), wk =   0.0236686
        k(   11) = (   0.0769231   0.2307692   0.0000000), wk =   0.0236686
        k(   12) = (   0.0769231   0.3076923   0.0000000), wk =   0.0236686
        k(   13) = (   0.0769231   0.3846154   0.0000000), wk =   0.0236686
        k(   14) = (   0.0769231   0.4615385   0.0000000), wk =   0.0236686
        k(   15) = (   0.0769231  -0.4615385   0.0000000), wk =   0.0236686
        k(   16) = (   0.0769231  -0.3846154   0.0000000), wk =   0.0236686
        k(   17) = (   0.0769231  -0.3076923   0.0000000), wk =   0.0236686
        k(   18) = (   0.0769231  -0.2307692   0.0000000), wk =   0.0236686
        k(   19) = (   0.0769231  -0.1538462   0.0000000), wk =   0.0236686
        k(   20) = (   0.0769231  -0.0769231   0.0000000), wk =   0.0236686
        k(   21) = (   0.1538462  -0.0000000   0.0000000), wk =   0.0236686
        k(   22) = (   0.1538462   0.0769231   0.0000000), wk =   0.0236686
        k(   23) = (   0.1538462   0.1538462   0.0000000), wk =   0.0236686
        k(   24) = (   0.1538462   0.2307692   0.0000000), wk =   0.0236686
        k(   25) = (   0.1538462   0.3076923   0.0000000), wk =   0.0236686
        k(   26) = (   0.1538462   0.3846154   0.0000000), wk =   0.0236686
        k(   27) = (   0.1538462   0.4615385   0.0000000), wk =   0.0236686
        k(   28) = (   0.1538462  -0.4615385   0.0000000), wk =   0.0236686
        k(   29) = (   0.1538462  -0.3846154   0.0000000), wk =   0.0236686
        k(   30) = (   0.1538462  -0.3076923   0.0000000), wk =   0.0236686
        k(   31) = (   0.1538462  -0.2307692   0.0000000), wk =   0.0236686
        k(   32) = (   0.1538462  -0.1538462   0.0000000), wk =   0.0236686
        k(   33) = (   0.1538462  -0.0769231   0.0000000), wk =   0.0236686
        k(   34) = (   0.2307692  -0.0000000   0.0000000), wk =   0.0236686
        k(   35) = (   0.2307692   0.0769231   0.0000000), wk =   0.0236686
        k(   36) = (   0.2307692   0.1538462   0.0000000), wk =   0.0236686
        k(   37) = (   0.2307692   0.2307692   0.0000000), wk =   0.0236686
        k(   38) = (   0.2307692   0.3076923   0.0000000), wk =   0.0236686
        k(   39) = (   0.2307692   0.3846154   0.0000000), wk =   0.0236686
        k(   40) = (   0.2307692   0.4615385   0.0000000), wk =   0.0236686
        k(   41) = (   0.2307692  -0.4615385   0.0000000), wk =   0.0236686
        k(   42) = (   0.2307692  -0.3846154   0.0000000), wk =   0.0236686
        k(   43) = (   0.2307692  -0.3076923   0.0000000), wk =   0.0236686
        k(   44) = (   0.2307692  -0.2307692   0.0000000), wk =   0.0236686
        k(   45) = (   0.2307692  -0.1538462   0.0000000), wk =   0.0236686
        k(   46) = (   0.2307692  -0.0769231   0.0000000), wk =   0.0236686
        k(   47) = (   0.3076923  -0.0000000   0.0000000), wk =   0.0236686
        k(   48) = (   0.3076923   0.0769231   0.0000000), wk =   0.0236686
        k(   49) = (   0.3076923   0.1538462   0.0000000), wk =   0.0236686
        k(   50) = (   0.3076923   0.2307692   0.0000000), wk =   0.0236686
        k(   51) = (   0.3076923   0.3076923   0.0000000), wk =   0.0236686
        k(   52) = (   0.3076923   0.3846154   0.0000000), wk =   0.0236686
        k(   53) = (   0.3076923   0.4615385   0.0000000), wk =   0.0236686
        k(   54) = (   0.3076923  -0.4615385   0.0000000), wk =   0.0236686
        k(   55) = (   0.3076923  -0.3846154   0.0000000), wk =   0.0236686
        k(   56) = (   0.3076923  -0.3076923   0.0000000), wk =   0.0236686
        k(   57) = (   0.3076923  -0.2307692   0.0000000), wk =   0.0236686
        k(   58) = (   0.3076923  -0.1538462   0.0000000), wk =   0.0236686
        k(   59) = (   0.3076923  -0.0769231   0.0000000), wk =   0.0236686
        k(   60) = (   0.3846154   0.0000000   0.0000000), wk =   0.0236686
        k(   61) = (   0.3846154   0.0769231   0.0000000), wk =   0.0236686
        k(   62) = (   0.3846154   0.1538462   0.0000000), wk =   0.0236686
        k(   63) = (   0.3846154   0.2307692   0.0000000), wk =   0.0236686
        k(   64) = (   0.3846154   0.3076923   0.0000000), wk =   0.0236686
        k(   65) = (   0.3846154   0.3846154   0.0000000), wk =   0.0236686
        k(   66) = (   0.3846154   0.4615385   0.0000000), wk =   0.0236686
        k(   67) = (   0.3846154  -0.4615385   0.0000000), wk =   0.0236686
        k(   68) = (   0.3846154  -0.3846154   0.0000000), wk =   0.0236686
        k(   69) = (   0.3846154  -0.3076923   0.0000000), wk =   0.0236686
        k(   70) = (   0.3846154  -0.2307692   0.0000000), wk =   0.0236686
        k(   71) = (   0.3846154  -0.1538462   0.0000000), wk =   0.0236686
        k(   72) = (   0.3846154  -0.0769231   0.0000000), wk =   0.0236686
        k(   73) = (   0.4615385  -0.0000000   0.0000000), wk =   0.0236686
        k(   74) = (   0.4615385   0.0769231   0.0000000), wk =   0.0236686
        k(   75) = (   0.4615385   0.1538462   0.0000000), wk =   0.0236686
        k(   76) = (   0.4615385   0.2307692   0.0000000), wk =   0.0236686
        k(   77) = (   0.4615385   0.3076923   0.0000000), wk =   0.0236686
        k(   78) = (   0.4615385   0.3846154   0.0000000), wk =   0.0236686
        k(   79) = (   0.4615385   0.4615385   0.0000000), wk =   0.0236686
        k(   80) = (   0.4615385  -0.4615385   0.0000000), wk =   0.0236686
        k(   81) = (   0.4615385  -0.3846154   0.0000000), wk =   0.0236686
        k(   82) = (   0.4615385  -0.3076923   0.0000000), wk =   0.0236686
        k(   83) = (   0.4615385  -0.2307692   0.0000000), wk =   0.0236686
        k(   84) = (   0.4615385  -0.1538462   0.0000000), wk =   0.0236686
        k(   85) = (   0.4615385  -0.0769231   0.0000000), wk =   0.0236686

     Dense  grid:   192371 G-vectors     FFT dimensions: (  45,  45, 225)

     Dynamical RAM for                 wfc:       0.30 MB

     Dynamical RAM for     wfc (w. buffer):       0.30 MB

     Dynamical RAM for                 EXX:     453.53 MB

     Dynamical RAM for           str. fact:       0.08 MB

     Dynamical RAM for           local pot:       0.00 MB

     Dynamical RAM for          nlocal pot:       0.46 MB

     Dynamical RAM for                qrad:       2.85 MB

     Dynamical RAM for          rho,v,vnew:       0.31 MB

     Dynamical RAM for           G-vectors:       0.17 MB

     Dynamical RAM for          h,s,v(r/c):       0.66 MB

     Dynamical RAM for          <psi|beta>:       0.08 MB

     Dynamical RAM for                 psi:       0.61 MB

     Dynamical RAM for                hpsi:       0.61 MB

     Dynamical RAM for      wfcinit/wfcrot:       0.69 MB

     Estimated static dynamical RAM per process >     458.13 MB

     Estimated max dynamical RAM per process >     460.09 MB

     Estimated total dynamical RAM >      32.35 GB
     EXX: initializing ACE and reading from file
     ACE potential read for       60 bands
     ACE potential read for       60 bands
     ACE potential read for       60 bands
     ACE potential read for       60 bands
     ACE potential read for       60 bands
     ACE potential read for       60 bands
     ACE potential read for       60 bands
     ACE potential read for       60 bands
     ACE potential read for       60 bands
     ACE potential read for       60 bands
     ACE potential read for       60 bands
     ACE potential read for       60 bands
     ACE potential read for       60 bands
     ACE potential read for       60 bands
     ACE potential read for       60 bands
     ACE potential read for       60 bands
     ACE potential read for       60 bands
     ACE potential read for       60 bands
     ACE potential read for       60 bands
     ACE potential read for       60 bands
     ACE potential read for       60 bands
     ACE potential read for       60 bands
     ACE potential read for       60 bands
     ACE potential read for       60 bands
     ACE potential read for       60 bands
     ACE potential read for       60 bands
     ACE potential read for       60 bands
     ACE potential read for       60 bands
     ACE potential read for       60 bands
     ACE potential read for       60 bands
     ACE potential read for       60 bands
     ACE potential read for       60 bands
     ACE potential read for       60 bands
     ACE potential read for       60 bands
     ACE potential read for       60 bands
     ACE potential read for       60 bands
     ACE potential read for       60 bands
     ACE potential read for       60 bands
     ACE potential read for       60 bands
     ACE potential read for       60 bands
     ACE potential read for       60 bands
     ACE potential read for       60 bands
     ACE potential read for       60 bands
     ACE potential read for       60 bands
     ACE potential read for       60 bands
     ACE potential read for       60 bands
     ACE potential read for       60 bands
     ACE potential read for       60 bands
     ACE potential read for       60 bands
     ACE potential read for       60 bands
     ACE potential read for       60 bands
     ACE potential read for       60 bands
     ACE potential read for       60 bands
     ACE potential read for       60 bands
     ACE potential read for       60 bands
     ACE potential read for       60 bands
     ACE potential read for       60 bands
     ACE potential read for       60 bands
     ACE potential read for       60 bands
     ACE potential read for       60 bands
     ACE potential read for       60 bands
     ACE potential read for       60 bands
     ACE potential read for       60 bands
     ACE potential read for       60 bands
     ACE potential read for       60 bands
     ACE potential read for       60 bands
     ACE potential read for       60 bands
     ACE potential read for       60 bands
     ACE potential read for       60 bands
     ACE potential read for       60 bands
     ACE potential read for       60 bands
     ACE potential read for       60 bands
     ACE potential read for       60 bands
     ACE potential read for       60 bands
     ACE potential read for       60 bands
     ACE potential read for       60 bands
     ACE potential read for       60 bands
     ACE potential read for       60 bands
     ACE potential read for       60 bands
     ACE potential read for       60 bands
     ACE potential read for       60 bands
     ACE potential read for       60 bands
     ACE potential read for       60 bands
     ACE potential read for       60 bands
     ACE potential read for       60 bands
     Starting ACE correctly read from file

     The potential is recalculated from file :
     tmp/Sb2Te3-uatsx-c1-1.0.save/charge-density

     Starting wfcs are random

     Band Structure Calculation
     Davidson diagonalization with overlap

     Computing kpt #:     1  of    85
     total cpu time spent up to now is       13.6 secs

     Computing kpt #:     2  of    85
     total cpu time spent up to now is       15.0 secs

     Computing kpt #:     3  of    85
     total cpu time spent up to now is       16.3 secs

     Computing kpt #:     4  of    85
     total cpu time spent up to now is       17.6 secs

     Computing kpt #:     5  of    85
     total cpu time spent up to now is       19.0 secs

     Computing kpt #:     6  of    85
     total cpu time spent up to now is       20.5 secs

     Computing kpt #:     7  of    85
     total cpu time spent up to now is       21.8 secs

     Computing kpt #:     8  of    85
     total cpu time spent up to now is       23.1 secs

     Computing kpt #:     9  of    85
     total cpu time spent up to now is       24.4 secs

     Computing kpt #:    10  of    85
     total cpu time spent up to now is       25.8 secs

     Computing kpt #:    11  of    85
     total cpu time spent up to now is       27.2 secs

     Computing kpt #:    12  of    85
     total cpu time spent up to now is       28.5 secs

     Computing kpt #:    13  of    85
     total cpu time spent up to now is       29.8 secs

     Computing kpt #:    14  of    85
     total cpu time spent up to now is       31.4 secs

     Computing kpt #:    15  of    85
     total cpu time spent up to now is       32.8 secs

     Computing kpt #:    16  of    85
     total cpu time spent up to now is       34.2 secs

     Computing kpt #:    17  of    85
     total cpu time spent up to now is       35.6 secs

     Computing kpt #:    18  of    85
     total cpu time spent up to now is       36.9 secs

     Computing kpt #:    19  of    85
     total cpu time spent up to now is       38.1 secs

     Computing kpt #:    20  of    85
     total cpu time spent up to now is       39.4 secs

     Computing kpt #:    21  of    85
     total cpu time spent up to now is       40.7 secs

     Computing kpt #:    22  of    85
     total cpu time spent up to now is       42.0 secs

     Computing kpt #:    23  of    85
     total cpu time spent up to now is       43.3 secs

     Computing kpt #:    24  of    85
     total cpu time spent up to now is       45.2 secs

     Computing kpt #:    25  of    85
     total cpu time spent up to now is       46.6 secs

     Computing kpt #:    26  of    85
     total cpu time spent up to now is       48.1 secs

     Computing kpt #:    27  of    85
     total cpu time spent up to now is       49.5 secs

     Computing kpt #:    28  of    85
     total cpu time spent up to now is       50.8 secs

     Computing kpt #:    29  of    85
     total cpu time spent up to now is       52.2 secs

     Computing kpt #:    30  of    85
     total cpu time spent up to now is       53.5 secs

     Computing kpt #:    31  of    85
     total cpu time spent up to now is       54.8 secs

     Computing kpt #:    32  of    85
     total cpu time spent up to now is       56.2 secs

     Computing kpt #:    33  of    85
     total cpu time spent up to now is       57.4 secs

     Computing kpt #:    34  of    85
     total cpu time spent up to now is       58.8 secs

     Computing kpt #:    35  of    85
     total cpu time spent up to now is       60.1 secs

     Computing kpt #:    36  of    85
     total cpu time spent up to now is       61.5 secs

     Computing kpt #:    37  of    85
     total cpu time spent up to now is       62.9 secs

     Computing kpt #:    38  of    85
     total cpu time spent up to now is       64.2 secs

     Computing kpt #:    39  of    85
     total cpu time spent up to now is       65.6 secs

     Computing kpt #:    40  of    85
     total cpu time spent up to now is       67.0 secs

     Computing kpt #:    41  of    85
     total cpu time spent up to now is       68.3 secs

     Computing kpt #:    42  of    85
     total cpu time spent up to now is       69.7 secs

     Computing kpt #:    43  of    85
     total cpu time spent up to now is       72.3 secs

     Computing kpt #:    44  of    85
     total cpu time spent up to now is       73.7 secs

     Computing kpt #:    45  of    85
     total cpu time spent up to now is       75.0 secs

     Computing kpt #:    46  of    85
     total cpu time spent up to now is       76.4 secs

     Computing kpt #:    47  of    85
     total cpu time spent up to now is       77.7 secs

     Computing kpt #:    48  of    85
     total cpu time spent up to now is       79.0 secs

     Computing kpt #:    49  of    85
     total cpu time spent up to now is       80.4 secs

     Computing kpt #:    50  of    85
     total cpu time spent up to now is       81.6 secs

     Computing kpt #:    51  of    85
     total cpu time spent up to now is       83.0 secs

     Computing kpt #:    52  of    85
     total cpu time spent up to now is       84.3 secs

     Computing kpt #:    53  of    85
     total cpu time spent up to now is       85.5 secs

     Computing kpt #:    54  of    85
     total cpu time spent up to now is       86.8 secs

     Computing kpt #:    55  of    85
     total cpu time spent up to now is       88.1 secs

     Computing kpt #:    56  of    85
     total cpu time spent up to now is       89.4 secs

     Computing kpt #:    57  of    85
     total cpu time spent up to now is       90.7 secs

     Computing kpt #:    58  of    85
     total cpu time spent up to now is       92.0 secs

     Computing kpt #:    59  of    85
     total cpu time spent up to now is       93.4 secs

     Computing kpt #:    60  of    85
     total cpu time spent up to now is       94.7 secs

     Computing kpt #:    61  of    85
     total cpu time spent up to now is       96.2 secs

     Computing kpt #:    62  of    85
     total cpu time spent up to now is       97.7 secs

     Computing kpt #:    63  of    85
     total cpu time spent up to now is       99.0 secs

     Computing kpt #:    64  of    85
     total cpu time spent up to now is      100.4 secs

     Computing kpt #:    65  of    85
     total cpu time spent up to now is      101.9 secs

     Computing kpt #:    66  of    85
     total cpu time spent up to now is      103.3 secs

     Computing kpt #:    67  of    85
     total cpu time spent up to now is      104.8 secs

     Computing kpt #:    68  of    85
     total cpu time spent up to now is      106.2 secs

     Computing kpt #:    69  of    85
     total cpu time spent up to now is      107.7 secs

     Computing kpt #:    70  of    85
     total cpu time spent up to now is      109.1 secs

     Computing kpt #:    71  of    85
     total cpu time spent up to now is      110.4 secs

     Computing kpt #:    72  of    85
     total cpu time spent up to now is      111.7 secs

     Computing kpt #:    73  of    85
     total cpu time spent up to now is      113.2 secs

     Computing kpt #:    74  of    85
     total cpu time spent up to now is      114.5 secs

     Computing kpt #:    75  of    85
     total cpu time spent up to now is      115.9 secs

     Computing kpt #:    76  of    85
     total cpu time spent up to now is      117.1 secs

     Computing kpt #:    77  of    85
     total cpu time spent up to now is      118.4 secs

     Computing kpt #:    78  of    85
     total cpu time spent up to now is      119.8 secs

     Computing kpt #:    79  of    85
     total cpu time spent up to now is      121.7 secs

     Computing kpt #:    80  of    85
     total cpu time spent up to now is      123.2 secs

     Computing kpt #:    81  of    85
     total cpu time spent up to now is      124.6 secs

     Computing kpt #:    82  of    85
     total cpu time spent up to now is      125.9 secs

     Computing kpt #:    83  of    85
     total cpu time spent up to now is      127.2 secs

     Computing kpt #:    84  of    85
     total cpu time spent up to now is      128.5 secs

     Computing kpt #:    85  of    85
     total cpu time spent up to now is      129.9 secs

     ethr =  1.28E-09,  avg # of iterations = 44.3

     total cpu time spent up to now is      131.3 secs

     End of band structure calculation

          k = 0.0000 0.0000 0.0000 ( 23927 PWs)   bands (ev):

   -35.5571 -35.5544 -35.5523 -35.5502 -35.5345 -35.5316 -35.5299 -35.5271
   -35.5096 -35.5051 -35.1121 -35.1106 -35.0883 -35.0808 -35.0804 -28.4869
   -28.4866 -28.4839 -28.4837 -28.4454 -28.4441 -28.4425 -28.4414 -28.4089
   -28.4061 -12.0977 -11.6412 -10.3858  -7.5311  -6.1087  -0.8579  -0.8055
    -0.7303  -0.5405  -0.4782   0.0497   0.5036   0.5463   0.8570   2.6975
     3.1328   3.1699   4.4051   4.4166   4.5777   6.6195   6.8555   7.6539
     8.3414   8.9529   8.9583   9.0933   9.7182   9.7859  10.1778  10.3250
    10.8097  10.9437  10.9978  11.0502

     occupation numbers 
     1.0000   1.0000   1.0000   1.0000   1.0000   1.0000   1.0000   1.0000
     1.0000   1.0000   1.0000   1.0000   1.0000   1.0000   1.0000   1.0000
     1.0000   1.0000   1.0000   1.0000   1.0000   1.0000   1.0000   1.0000
     1.0000   1.0000   1.0000   1.0000   1.0000   1.0000   1.0000   1.0000
     1.0000   1.0000   1.0000   1.0000   1.0000   1.0000   1.0000   0.0000
     0.0000   0.0000   0.0000   0.0000   0.0000   0.0000   0.0000   0.0000
     0.0000   0.0000   0.0000   0.0000   0.0000   0.0000   0.0000   0.0000
     0.0000   0.0000   0.0000   0.0000

          k = 0.0000 0.0897 0.0000 ( 23925 PWs)   bands (ev):

   -35.5572 -35.5553 -35.5532 -35.5504 -35.5339 -35.5293 -35.5278 -35.5234
   -35.5034 -35.4990 -35.1182 -35.1084 -35.0966 -35.0736 -35.0686 -28.4797
   -28.4794 -28.4768 -28.4765 -28.4482 -28.4456 -28.4400 -28.4371 -28.4117
   -28.4089 -12.0335 -11.5776 -10.3533  -7.5571  -6.2171  -1.2858  -1.0084
    -0.9691  -0.6771  -0.6111  -0.1608   0.5667   0.6584   1.2435   2.8119
     3.2185   3.2669   4.3399   4.5093   4.8722   6.7050   6.9109   7.7508
     8.2598   8.6421   9.0607   9.1543   9.6613   9.8524  10.1545  10.1930
    10.7190  11.1478  11.2338  11.6008

     occupation numbers 
     1.0000   1.0000   1.0000   1.0000   1.0000   1.0000   1.0000   1.0000
     1.0000   1.0000   1.0000   1.0000   1.0000   1.0000   1.0000   1.0000
     1.0000   1.0000   1.0000   1.0000   1.0000   1.0000   1.0000   1.0000
     1.0000   1.0000   1.0000   1.0000   1.0000   1.0000   1.0000   1.0000
     1.0000   1.0000   1.0000   1.0000   1.0000   1.0000   1.0000   0.0000
     0.0000   0.0000   0.0000   0.0000   0.0000   0.0000   0.0000   0.0000
     0.0000   0.0000   0.0000   0.0000   0.0000   0.0000   0.0000   0.0000
     0.0000   0.0000   0.0000   0.0000

          k = 0.0000 0.1794 0.0000 ( 23955 PWs)   bands (ev):

   -35.5458 -35.5418 -35.5403 -35.5357 -35.5138 -35.5118 -35.5089 -35.5074
   -35.4852 -35.4809 -35.1129 -35.1000 -35.0927 -35.0682 -35.0636 -28.4752
   -28.4722 -28.4721 -28.4692 -28.4515 -28.4488 -28.4384 -28.4356 -28.4228
   -28.4200 -11.8527 -11.3856 -10.2489  -7.6297  -6.5013  -2.1214  -1.3811
    -1.3764  -1.1152  -0.8373  -0.5207   0.6339   0.9250   1.2963   2.9891
     3.4102   3.5770   4.6482   4.7621   5.2940   6.9214   7.0660   7.8205
     8.0371   8.5478   9.2611   9.3476   9.5649   9.7147  10.3612  10.4566
    10.5232  11.3344  11.6816  11.8728

     occupation numbers 
     1.0000   1.0000   1.0000   1.0000   1.0000   1.0000   1.0000   1.0000
     1.0000   1.0000   1.0000   1.0000   1.0000   1.0000   1.0000   1.0000
     1.0000   1.0000   1.0000   1.0000   1.0000   1.0000   1.0000   1.0000
     1.0000   1.0000   1.0000   1.0000   1.0000   1.0000   1.0000   1.0000
     1.0000   1.0000   1.0000   1.0000   1.0000   1.0000   1.0000   0.0000
     0.0000   0.0000   0.0000   0.0000   0.0000   0.0000   0.0000   0.0000
     0.0000   0.0000   0.0000   0.0000   0.0000   0.0000   0.0000   0.0000
     0.0000   0.0000   0.0000   0.0000

          k = 0.0000 0.2691 0.0000 ( 23986 PWs)   bands (ev):

   -35.5388 -35.5349 -35.5312 -35.5268 -35.5028 -35.5008 -35.4983 -35.4960
   -35.4754 -35.4711 -35.1016 -35.0867 -35.0810 -35.0561 -35.0514 -28.4722
   -28.4692 -28.4654 -28.4625 -28.4512 -28.4484 -28.4382 -28.4353 -28.4221
   -28.4192 -11.5801 -11.1435 -10.1075  -7.7509  -6.9184  -2.8479  -1.8842
    -1.7460  -1.5367  -1.1158  -0.5076   0.3350   0.6150   1.4219   3.0145
     3.5834   3.9384   4.9970   5.0828   5.7619   7.0405   7.2402   7.6712
     8.2895   8.7967   9.3064   9.6183   9.7964   9.8443  10.6589  10.7823
    10.8235  11.4466  11.4956  12.3922

     occupation numbers 
     1.0000   1.0000   1.0000   1.0000   1.0000   1.0000   1.0000   1.0000
     1.0000   1.0000   1.0000   1.0000   1.0000   1.0000   1.0000   1.0000
     1.0000   1.0000   1.0000   1.0000   1.0000   1.0000   1.0000   1.0000
     1.0000   1.0000   1.0000   1.0000   1.0000   1.0000   1.0000   1.0000
     1.0000   1.0000   1.0000   1.0000   1.0000   1.0000   1.0000   0.0000
     0.0000   0.0000   0.0000   0.0000   0.0000   0.0000   0.0000   0.0000
     0.0000   0.0000   0.0000   0.0000   0.0000   0.0000   0.0000   0.0000
     0.0000   0.0000   0.0000   0.0000

          k = 0.0000 0.3588 0.0000 ( 24054 PWs)   bands (ev):

   -35.5316 -35.5277 -35.5232 -35.5188 -35.4941 -35.4900 -35.4897 -35.4851
   -35.4651 -35.4607 -35.0950 -35.0804 -35.0678 -35.0414 -35.0341 -28.4721
   -28.4690 -28.4623 -28.4595 -28.4513 -28.4486 -28.4419 -28.4390 -28.4226
   -28.4197 -11.2260 -10.8425  -9.9709  -7.9918  -7.3878  -3.4080  -2.3662
    -2.0474  -1.7164  -1.3672  -0.7603   0.1934   0.5451   1.1827   3.0850
     3.6782   3.9347   5.2215   5.3800   6.2104   6.7311   7.6647   7.8820
     8.5481   8.9846   9.5913   9.9553  10.2055  10.5814  10.8479  11.0472
    11.3543  11.4016  11.7969  12.0549

     occupation numbers 
     1.0000   1.0000   1.0000   1.0000   1.0000   1.0000   1.0000   1.0000
     1.0000   1.0000   1.0000   1.0000   1.0000   1.0000   1.0000   1.0000
     1.0000   1.0000   1.0000   1.0000   1.0000   1.0000   1.0000   1.0000
     1.0000   1.0000   1.0000   1.0000   1.0000   1.0000   1.0000   1.0000
     1.0000   1.0000   1.0000   1.0000   1.0000   1.0000   1.0000   0.0000
     0.0000   0.0000   0.0000   0.0000   0.0000   0.0000   0.0000   0.0000
     0.0000   0.0000   0.0000   0.0000   0.0000   0.0000   0.0000   0.0000
     0.0000   0.0000   0.0000   0.0000

          k = 0.0000 0.4486 0.0000 ( 24060 PWs)   bands (ev):

   -35.5248 -35.5209 -35.5154 -35.5111 -35.4920 -35.4876 -35.4845 -35.4796
   -35.4629 -35.4585 -35.0934 -35.0804 -35.0627 -35.0333 -35.0242 -28.4706
   -28.4675 -28.4595 -28.4567 -28.4501 -28.4473 -28.4409 -28.4380 -28.4209
   -28.4181 -10.8199 -10.5285  -9.9236  -8.3307  -7.7896  -3.7875  -2.5945
    -2.2584  -1.9458  -1.5506  -0.9971   0.2600   0.4694   0.8938   3.0912
     3.7090   3.8089   5.3800   5.5880   6.3219   6.5887   7.8844   8.3069
     8.8268   9.3504  10.0391  10.1582  10.3587  10.9562  11.0823  11.3948
    11.5620  11.7435  11.8979  12.0688

     occupation numbers 
     1.0000   1.0000   1.0000   1.0000   1.0000   1.0000   1.0000   1.0000
     1.0000   1.0000   1.0000   1.0000   1.0000   1.0000   1.0000   1.0000
     1.0000   1.0000   1.0000   1.0000   1.0000   1.0000   1.0000   1.0000
     1.0000   1.0000   1.0000   1.0000   1.0000   1.0000   1.0000   1.0000
     1.0000   1.0000   1.0000   1.0000   1.0000   1.0000   1.0000   0.0000
     0.0000   0.0000   0.0000   0.0000   0.0000   0.0000   0.0000   0.0000
     0.0000   0.0000   0.0000   0.0000   0.0000   0.0000   0.0000   0.0000
     0.0000   0.0000   0.0000   0.0000

          k = 0.0000 0.5383 0.0000 ( 24063 PWs)   bands (ev):

   -35.5211 -35.5173 -35.5110 -35.5067 -35.4925 -35.4881 -35.4823 -35.4773
   -35.4648 -35.4605 -35.0938 -35.0821 -35.0621 -35.0301 -35.0203 -28.4687
   -28.4656 -28.4575 -28.4547 -28.4486 -28.4459 -28.4384 -28.4356 -28.4184
   -28.4156 -10.4191 -10.3003 -10.0428  -8.6011  -8.0279  -3.9856  -2.5816
    -2.3668  -2.2214  -1.6463  -1.0530   0.2863   0.4226   0.7384   3.0146
     3.7132   3.7940   5.4100   5.6888   6.3096   6.5069   8.0178   8.8955
     9.1962   9.5222   9.7914   9.9578  10.5043  10.6122  11.1475  11.7773
    11.8862  12.2610  12.3449  12.6652

     occupation numbers 
     1.0000   1.0000   1.0000   1.0000   1.0000   1.0000   1.0000   1.0000
     1.0000   1.0000   1.0000   1.0000   1.0000   1.0000   1.0000   1.0000
     1.0000   1.0000   1.0000   1.0000   1.0000   1.0000   1.0000   1.0000
     1.0000   1.0000   1.0000   1.0000   1.0000   1.0000   1.0000   1.0000
     1.0000   1.0000   1.0000   1.0000   1.0000   1.0000   1.0000   0.0000
     0.0000   0.0000   0.0000   0.0000   0.0000   0.0000   0.0000   0.0000
     0.0000   0.0000   0.0000   0.0000   0.0000   0.0000   0.0000   0.0000
     0.0000   0.0000   0.0000   0.0000

          k = 0.0769 0.0444 0.0000 ( 23957 PWs)   bands (ev):

   -35.5594 -35.5549 -35.5538 -35.5494 -35.5357 -35.5312 -35.5255 -35.5210
   -35.5034 -35.4990 -35.1166 -35.1089 -35.0971 -35.0739 -35.0698 -28.4800
   -28.4795 -28.4770 -28.4766 -28.4497 -28.4468 -28.4391 -28.4364 -28.4122
   -28.4094 -12.0348 -11.5791 -10.3545  -7.5586  -6.2213  -1.3148  -1.0584
    -0.9321  -0.6723  -0.5524  -0.1716   0.6060   0.6528   1.2332   2.8586
     3.1870   3.2558   4.3727   4.5067   4.8415   6.7035   6.9090   7.7507
     8.2546   8.5897   9.1343   9.1822   9.6292   9.8239  10.0982  10.2988
    10.7331  11.1814  11.2091  11.5379

     occupation numbers 
     1.0000   1.0000   1.0000   1.0000   1.0000   1.0000   1.0000   1.0000
     1.0000   1.0000   1.0000   1.0000   1.0000   1.0000   1.0000   1.0000
     1.0000   1.0000   1.0000   1.0000   1.0000   1.0000   1.0000   1.0000
     1.0000   1.0000   1.0000   1.0000   1.0000   1.0000   1.0000   1.0000
     1.0000   1.0000   1.0000   1.0000   1.0000   1.0000   1.0000   0.0000
     0.0000   0.0000   0.0000   0.0000   0.0000   0.0000   0.0000   0.0000
     0.0000   0.0000   0.0000   0.0000   0.0000   0.0000   0.0000   0.0000
     0.0000   0.0000   0.0000   0.0000

          k = 0.0769 0.1341 0.0000 ( 23979 PWs)   bands (ev):

   -35.5580 -35.5537 -35.5425 -35.5381 -35.5227 -35.5180 -35.5158 -35.5112
   -35.4924 -35.4879 -35.1135 -35.1070 -35.1008 -35.0648 -35.0645 -28.4768
   -28.4738 -28.4712 -28.4683 -28.4507 -28.4479 -28.4371 -28.4343 -28.4187
   -28.4160 -11.9132 -11.4509 -10.2865  -7.6089  -6.4164  -1.8486  -1.4515
    -1.2046  -1.0479  -0.6320  -0.3448   0.3924   1.1819   1.2380   3.0373
     3.2952   3.4347   4.5202   4.7384   5.1359   6.8548   7.0218   7.9216
     8.1092   8.2785   9.2396   9.4001   9.6162   9.7493  10.0482  10.3290
    10.9063  11.2826  11.5525  11.8673

     occupation numbers 
     1.0000   1.0000   1.0000   1.0000   1.0000   1.0000   1.0000   1.0000
     1.0000   1.0000   1.0000   1.0000   1.0000   1.0000   1.0000   1.0000
     1.0000   1.0000   1.0000   1.0000   1.0000   1.0000   1.0000   1.0000
     1.0000   1.0000   1.0000   1.0000   1.0000   1.0000   1.0000   1.0000
     1.0000   1.0000   1.0000   1.0000   1.0000   1.0000   1.0000   0.0000
     0.0000   0.0000   0.0000   0.0000   0.0000   0.0000   0.0000   0.0000
     0.0000   0.0000   0.0000   0.0000   0.0000   0.0000   0.0000   0.0000
     0.0000   0.0000   0.0000   0.0000

          k = 0.0769 0.2238 0.0000 ( 23983 PWs)   bands (ev):

   -35.5434 -35.5394 -35.5359 -35.5314 -35.5066 -35.5050 -35.5021 -35.5000
   -35.4786 -35.4741 -35.1052 -35.0944 -35.0920 -35.0567 -35.0561 -28.4743
   -28.4714 -28.4653 -28.4624 -28.4481 -28.4453 -28.4386 -28.4357 -28.4260
   -28.4232 -11.6881 -11.2385 -10.1626  -7.6995  -6.7695  -2.4948  -2.0219
    -1.5314  -1.3604  -0.9764  -0.5447   0.3905   0.9195   1.4165   3.1711
     3.3527   3.8695   4.7051   5.2064   5.5340   7.1065   7.1915   7.7560
     8.1876   8.3197   9.3329   9.4769   9.5751   9.9778  10.4088  10.5921
    11.0330  11.2928  11.8545  12.0803

     occupation numbers 
     1.0000   1.0000   1.0000   1.0000   1.0000   1.0000   1.0000   1.0000
     1.0000   1.0000   1.0000   1.0000   1.0000   1.0000   1.0000   1.0000
     1.0000   1.0000   1.0000   1.0000   1.0000   1.0000   1.0000   1.0000
     1.0000   1.0000   1.0000   1.0000   1.0000   1.0000   1.0000   1.0000
     1.0000   1.0000   1.0000   1.0000   1.0000   1.0000   1.0000   0.0000
     0.0000   0.0000   0.0000   0.0000   0.0000   0.0000   0.0000   0.0000
     0.0000   0.0000   0.0000   0.0000   0.0000   0.0000   0.0000   0.0000
     0.0000   0.0000   0.0000   0.0000

          k = 0.0769 0.3135 0.0000 ( 24030 PWs)   bands (ev):

   -35.5342 -35.5302 -35.5252 -35.5209 -35.4978 -35.4942 -35.4933 -35.4892
   -35.4701 -35.4657 -35.0964 -35.0836 -35.0786 -35.0429 -35.0410 -28.4722
   -28.4692 -28.4622 -28.4593 -28.4492 -28.4465 -28.4418 -28.4389 -28.4253
   -28.4225 -11.3752 -10.9659 -10.0181  -7.8758  -7.2210  -3.1188  -2.3995
    -1.8507  -1.7057  -1.3548  -0.6560   0.3835   0.5423   1.3642   3.3021
     3.4566   3.9502   5.0699   5.4557   6.0071   7.0194   7.4822   7.8126
     8.4291   8.7845   9.0379   9.7995   9.8626  10.6297  10.7537  10.9026
    11.1177  11.4793  12.0903  12.2048

     occupation numbers 
     1.0000   1.0000   1.0000   1.0000   1.0000   1.0000   1.0000   1.0000
     1.0000   1.0000   1.0000   1.0000   1.0000   1.0000   1.0000   1.0000
     1.0000   1.0000   1.0000   1.0000   1.0000   1.0000   1.0000   1.0000
     1.0000   1.0000   1.0000   1.0000   1.0000   1.0000   1.0000   1.0000
     1.0000   1.0000   1.0000   1.0000   1.0000   1.0000   1.0000   0.0000
     0.0000   0.0000   0.0000   0.0000   0.0000   0.0000   0.0000   0.0000
     0.0000   0.0000   0.0000   0.0000   0.0000   0.0000   0.0000   0.0000
     0.0000   0.0000   0.0000   0.0000

          k = 0.0769 0.4033 0.0000 ( 24058 PWs)   bands (ev):

   -35.5258 -35.5219 -35.5170 -35.5127 -35.4927 -35.4885 -35.4881 -35.4830
   -35.4659 -35.4615 -35.0924 -35.0811 -35.0697 -35.0333 -35.0287 -28.4705
   -28.4675 -28.4588 -28.4560 -28.4484 -28.4456 -28.4420 -28.4391 -28.4235
   -28.4207 -10.9938 -10.6541  -9.9172  -8.1678  -7.6686  -3.5887  -2.5779
    -2.2560  -1.9940  -1.4715  -0.8869   0.2238   0.4883   1.1678   3.3418
     3.4639   3.9498   5.3203   5.6270   6.3133   6.7581   7.8815   8.0830
     8.7029   9.1109   9.5068  10.1176  10.2309  10.6524  11.0379  11.3476
    11.4245  11.7663  12.0381  12.1584

     occupation numbers 
     1.0000   1.0000   1.0000   1.0000   1.0000   1.0000   1.0000   1.0000
     1.0000   1.0000   1.0000   1.0000   1.0000   1.0000   1.0000   1.0000
     1.0000   1.0000   1.0000   1.0000   1.0000   1.0000   1.0000   1.0000
     1.0000   1.0000   1.0000   1.0000   1.0000   1.0000   1.0000   1.0000
     1.0000   1.0000   1.0000   1.0000   1.0000   1.0000   1.0000   0.0000
     0.0000   0.0000   0.0000   0.0000   0.0000   0.0000   0.0000   0.0000
     0.0000   0.0000   0.0000   0.0000   0.0000   0.0000   0.0000   0.0000
     0.0000   0.0000   0.0000   0.0000

          k = 0.0769 0.4930 0.0000 ( 24038 PWs)   bands (ev):

   -35.5206 -35.5168 -35.5113 -35.5070 -35.4906 -35.4864 -35.4845 -35.4794
   -35.4652 -35.4608 -35.0909 -35.0814 -35.0663 -35.0275 -35.0211 -28.4691
   -28.4660 -28.4566 -28.4538 -28.4472 -28.4445 -28.4408 -28.4380 -28.4219
   -28.4190 -10.5801 -10.3675  -9.9384  -8.4983  -7.9994  -3.8772  -2.6032
    -2.5129  -2.2031  -1.5828  -1.0838   0.2138   0.4511   0.9740   3.3660
     3.4285   3.8686   5.5171   5.6719   6.3880   6.6320   8.0085   8.6328
     9.0182   9.5897   9.8761   9.9498  10.4921  10.7453  11.0853  11.1562
    11.6600  11.8247  12.2395  12.5183

     occupation numbers 
     1.0000   1.0000   1.0000   1.0000   1.0000   1.0000   1.0000   1.0000
     1.0000   1.0000   1.0000   1.0000   1.0000   1.0000   1.0000   1.0000
     1.0000   1.0000   1.0000   1.0000   1.0000   1.0000   1.0000   1.0000
     1.0000   1.0000   1.0000   1.0000   1.0000   1.0000   1.0000   1.0000
     1.0000   1.0000   1.0000   1.0000   1.0000   1.0000   1.0000   0.0000
     0.0000   0.0000   0.0000   0.0000   0.0000   0.0000   0.0000   0.0000
     0.0000   0.0000   0.0000   0.0000   0.0000   0.0000   0.0000   0.0000
     0.0000   0.0000   0.0000   0.0000

          k = 0.0769 0.5827 0.0000 ( 24046 PWs)   bands (ev):

   -35.5190 -35.5152 -35.5093 -35.5050 -35.4902 -35.4859 -35.4832 -35.4782
   -35.4655 -35.4612 -35.0907 -35.0820 -35.0656 -35.0255 -35.0186 -28.4684
   -28.4653 -28.4559 -28.4531 -28.4468 -28.4441 -28.4400 -28.4371 -28.4210
   -28.4182 -10.2750 -10.2377 -10.0886  -8.6527  -8.1258  -3.9759  -2.6600
    -2.4751  -2.3265  -1.6663  -1.1304   0.2830   0.3707   0.9038   3.3164
     3.4917   3.7973   5.6018   5.6631   6.4757   6.4812   8.0967   9.1165
     9.3307   9.4091   9.6138  10.2058  10.3539  10.5102  11.1382  11.7123
    11.7452  12.0265  12.3333  12.5425

     occupation numbers 
     1.0000   1.0000   1.0000   1.0000   1.0000   1.0000   1.0000   1.0000
     1.0000   1.0000   1.0000   1.0000   1.0000   1.0000   1.0000   1.0000
     1.0000   1.0000   1.0000   1.0000   1.0000   1.0000   1.0000   1.0000
     1.0000   1.0000   1.0000   1.0000   1.0000   1.0000   1.0000   1.0000
     1.0000   1.0000   1.0000   1.0000   1.0000   1.0000   1.0000   0.0000
     0.0000   0.0000   0.0000   0.0000   0.0000   0.0000   0.0000   0.0000
     0.0000   0.0000   0.0000   0.0000   0.0000   0.0000   0.0000   0.0000
     0.0000   0.0000   0.0000   0.0000

          k = 0.0769-0.4939 0.0000 ( 24062 PWs)   bands (ev):

   -35.5207 -35.5169 -35.5114 -35.5071 -35.4916 -35.4870 -35.4837 -35.4789
   -35.4652 -35.4609 -35.0914 -35.0816 -35.0661 -35.0274 -35.0211 -28.4691
   -28.4661 -28.4566 -28.4538 -28.4475 -28.4447 -28.4406 -28.4377 -28.4217
   -28.4189 -10.5766 -10.3652  -9.9395  -8.4996  -7.9987  -3.8789  -2.6009
    -2.5232  -2.1918  -1.5912  -1.0764   0.2169   0.4410   0.9745   3.3548
     3.4386   3.8573   5.5166   5.6625   6.3833   6.6244   8.0052   8.6375
     9.0244   9.5902   9.8618   9.9180  10.4885  10.7030  11.0722  11.1293
    11.6203  11.8170  12.2381  12.5513

     occupation numbers 
     1.0000   1.0000   1.0000   1.0000   1.0000   1.0000   1.0000   1.0000
     1.0000   1.0000   1.0000   1.0000   1.0000   1.0000   1.0000   1.0000
     1.0000   1.0000   1.0000   1.0000   1.0000   1.0000   1.0000   1.0000
     1.0000   1.0000   1.0000   1.0000   1.0000   1.0000   1.0000   1.0000
     1.0000   1.0000   1.0000   1.0000   1.0000   1.0000   1.0000   0.0000
     0.0000   0.0000   0.0000   0.0000   0.0000   0.0000   0.0000   0.0000
     0.0000   0.0000   0.0000   0.0000   0.0000   0.0000   0.0000   0.0000
     0.0000   0.0000   0.0000   0.0000

          k = 0.0769-0.4041 0.0000 ( 24067 PWs)   bands (ev):

   -35.5259 -35.5220 -35.5169 -35.5126 -35.4939 -35.4893 -35.4873 -35.4826
   -35.4658 -35.4615 -35.0933 -35.0814 -35.0691 -35.0331 -35.0286 -28.4706
   -28.4676 -28.4588 -28.4560 -28.4488 -28.4461 -28.4417 -28.4388 -28.4234
   -28.4206 -10.9903 -10.6510  -9.9163  -8.1688  -7.6666  -3.5919  -2.5833
    -2.2578  -1.9809  -1.4830  -0.8756   0.2257   0.4732   1.1631   3.3486
     3.4535   3.9271   5.3087   5.6258   6.3012   6.7476   7.8794   8.0852
     8.7011   9.1052   9.4428  10.0982  10.2299  10.6391  11.0352  11.3574
    11.4171  11.8419  12.0333  12.1532

     occupation numbers 
     1.0000   1.0000   1.0000   1.0000   1.0000   1.0000   1.0000   1.0000
     1.0000   1.0000   1.0000   1.0000   1.0000   1.0000   1.0000   1.0000
     1.0000   1.0000   1.0000   1.0000   1.0000   1.0000   1.0000   1.0000
     1.0000   1.0000   1.0000   1.0000   1.0000   1.0000   1.0000   1.0000
     1.0000   1.0000   1.0000   1.0000   1.0000   1.0000   1.0000   0.0000
     0.0000   0.0000   0.0000   0.0000   0.0000   0.0000   0.0000   0.0000
     0.0000   0.0000   0.0000   0.0000   0.0000   0.0000   0.0000   0.0000
     0.0000   0.0000   0.0000   0.0000

          k = 0.0769-0.3144 0.0000 ( 24040 PWs)   bands (ev):

   -35.5340 -35.5300 -35.5251 -35.5207 -35.4981 -35.4941 -35.4937 -35.4894
   -35.4701 -35.4657 -35.0972 -35.0838 -35.0775 -35.0425 -35.0407 -28.4725
   -28.4695 -28.4623 -28.4594 -28.4497 -28.4470 -28.4417 -28.4388 -28.4253
   -28.4224 -11.3722 -10.9629 -10.0159  -7.8751  -7.2176  -3.1236  -2.3996
    -1.8568  -1.6937  -1.3604  -0.6421   0.3671   0.5334   1.3525   3.2944
     3.4457   3.9339   5.0424   5.4680   5.9993   7.0080   7.4832   7.8100
     8.4207   8.7600   9.0187   9.7842   9.8656  10.6869  10.7697  10.9042
    11.1337  11.4831  12.1039  12.2249

     occupation numbers 
     1.0000   1.0000   1.0000   1.0000   1.0000   1.0000   1.0000   1.0000
     1.0000   1.0000   1.0000   1.0000   1.0000   1.0000   1.0000   1.0000
     1.0000   1.0000   1.0000   1.0000   1.0000   1.0000   1.0000   1.0000
     1.0000   1.0000   1.0000   1.0000   1.0000   1.0000   1.0000   1.0000
     1.0000   1.0000   1.0000   1.0000   1.0000   1.0000   1.0000   0.0000
     0.0000   0.0000   0.0000   0.0000   0.0000   0.0000   0.0000   0.0000
     0.0000   0.0000   0.0000   0.0000   0.0000   0.0000   0.0000   0.0000
     0.0000   0.0000   0.0000   0.0000

          k = 0.0769-0.2247 0.0000 ( 23987 PWs)   bands (ev):

   -35.5430 -35.5389 -35.5360 -35.5315 -35.5080 -35.5036 -35.5033 -35.4993
   -35.4785 -35.4742 -35.1054 -35.0934 -35.0917 -35.0567 -35.0556 -28.4747
   -28.4719 -28.4652 -28.4624 -28.4481 -28.4453 -28.4389 -28.4360 -28.4259
   -28.4231 -11.6858 -11.2362 -10.1601  -7.6974  -6.7650  -2.4982  -2.0159
    -1.5390  -1.3467  -0.9836  -0.5362   0.3753   0.8961   1.4078   3.1290
     3.3468   3.8864   4.6711   5.2319   5.5300   7.1082   7.1881   7.7445
     8.1894   8.3018   9.3325   9.4713   9.5830  10.0090  10.4270  10.5971
    11.0103  11.3019  11.8466  12.0950

     occupation numbers 
     1.0000   1.0000   1.0000   1.0000   1.0000   1.0000   1.0000   1.0000
     1.0000   1.0000   1.0000   1.0000   1.0000   1.0000   1.0000   1.0000
     1.0000   1.0000   1.0000   1.0000   1.0000   1.0000   1.0000   1.0000
     1.0000   1.0000   1.0000   1.0000   1.0000   1.0000   1.0000   1.0000
     1.0000   1.0000   1.0000   1.0000   1.0000   1.0000   1.0000   0.0000
     0.0000   0.0000   0.0000   0.0000   0.0000   0.0000   0.0000   0.0000
     0.0000   0.0000   0.0000   0.0000   0.0000   0.0000   0.0000   0.0000
     0.0000   0.0000   0.0000   0.0000

          k = 0.0769-0.1350 0.0000 ( 23933 PWs)   bands (ev):

   -35.5573 -35.5528 -35.5421 -35.5377 -35.5222 -35.5177 -35.5164 -35.5118
   -35.4925 -35.4881 -35.1135 -35.1053 -35.1002 -35.0643 -35.0637 -28.4774
   -28.4744 -28.4714 -28.4684 -28.4505 -28.4477 -28.4378 -28.4350 -28.4188
   -28.4160 -11.9116 -11.4497 -10.2837  -7.6069  -6.4119  -1.8382  -1.4498
    -1.1897  -1.0517  -0.6490  -0.3499   0.3736   1.1860   1.2125   2.9939
     3.3246   3.4118   4.5068   4.7691   5.1392   6.8563   7.0228   7.9174
     8.1057   8.2852   9.2440   9.4115   9.5859   9.7629  10.0544  10.3375
    10.8625  11.2787  11.5559  11.8805

     occupation numbers 
     1.0000   1.0000   1.0000   1.0000   1.0000   1.0000   1.0000   1.0000
     1.0000   1.0000   1.0000   1.0000   1.0000   1.0000   1.0000   1.0000
     1.0000   1.0000   1.0000   1.0000   1.0000   1.0000   1.0000   1.0000
     1.0000   1.0000   1.0000   1.0000   1.0000   1.0000   1.0000   1.0000
     1.0000   1.0000   1.0000   1.0000   1.0000   1.0000   1.0000   0.0000
     0.0000   0.0000   0.0000   0.0000   0.0000   0.0000   0.0000   0.0000
     0.0000   0.0000   0.0000   0.0000   0.0000   0.0000   0.0000   0.0000
     0.0000   0.0000   0.0000   0.0000

          k = 0.0769-0.0453 0.0000 ( 23931 PWs)   bands (ev):

   -35.5589 -35.5540 -35.5540 -35.5499 -35.5349 -35.5305 -35.5266 -35.5219
   -35.5034 -35.4990 -35.1175 -35.1084 -35.0970 -35.0737 -35.0692 -28.4800
   -28.4794 -28.4770 -28.4765 -28.4491 -28.4461 -28.4395 -28.4368 -28.4119
   -28.4091 -12.0341 -11.5783 -10.3539  -7.5578  -6.2192  -1.3005  -1.0171
    -0.9696  -0.6745  -0.5796  -0.1653   0.5818   0.6592   1.2386   2.8333
     3.2070   3.2587   4.3582   4.5056   4.8577   6.7042   6.9099   7.7506
     8.2567   8.6155   9.1098   9.1566   9.6442   9.8404  10.1232  10.2465
    10.7271  11.1573  11.2284  11.5701

     occupation numbers 
     1.0000   1.0000   1.0000   1.0000   1.0000   1.0000   1.0000   1.0000
     1.0000   1.0000   1.0000   1.0000   1.0000   1.0000   1.0000   1.0000
     1.0000   1.0000   1.0000   1.0000   1.0000   1.0000   1.0000   1.0000
     1.0000   1.0000   1.0000   1.0000   1.0000   1.0000   1.0000   1.0000
     1.0000   1.0000   1.0000   1.0000   1.0000   1.0000   1.0000   0.0000
     0.0000   0.0000   0.0000   0.0000   0.0000   0.0000   0.0000   0.0000
     0.0000   0.0000   0.0000   0.0000   0.0000   0.0000   0.0000   0.0000
     0.0000   0.0000   0.0000   0.0000

          k = 0.1538 0.0888 0.0000 ( 23991 PWs)   bands (ev):

   -35.5488 -35.5443 -35.5399 -35.5355 -35.5156 -35.5112 -35.5098 -35.5052
   -35.4855 -35.4810 -35.1119 -35.1010 -35.0945 -35.0689 -35.0650 -28.4745
   -28.4725 -28.4715 -28.4695 -28.4529 -28.4501 -28.4370 -28.4342 -28.4226
   -28.4198 -11.8572 -11.3904 -10.2543  -7.6358  -6.5131  -2.1617  -1.4308
    -1.2978  -1.1442  -0.7685  -0.5125   0.6818   0.9509   1.2946   3.0587
     3.4437   3.5351   4.6737   4.7579   5.2466   6.9175   7.0578   7.8086
     8.0270   8.5364   9.2512   9.4533   9.5358   9.6630  10.4062  10.4726
    10.5476  11.3842  11.6132  11.8205

     occupation numbers 
     1.0000   1.0000   1.0000   1.0000   1.0000   1.0000   1.0000   1.0000
     1.0000   1.0000   1.0000   1.0000   1.0000   1.0000   1.0000   1.0000
     1.0000   1.0000   1.0000   1.0000   1.0000   1.0000   1.0000   1.0000
     1.0000   1.0000   1.0000   1.0000   1.0000   1.0000   1.0000   1.0000
     1.0000   1.0000   1.0000   1.0000   1.0000   1.0000   1.0000   0.0000
     0.0000   0.0000   0.0000   0.0000   0.0000   0.0000   0.0000   0.0000
     0.0000   0.0000   0.0000   0.0000   0.0000   0.0000   0.0000   0.0000
     0.0000   0.0000   0.0000   0.0000

          k = 0.1538 0.1785 0.0000 ( 24012 PWs)   bands (ev):

   -35.5454 -35.5409 -35.5361 -35.5316 -35.5086 -35.5043 -35.5031 -35.4980
   -35.4789 -35.4743 -35.1052 -35.0964 -35.0928 -35.0575 -35.0563 -28.4739
   -28.4711 -28.4653 -28.4624 -28.4489 -28.4461 -28.4370 -28.4342 -28.4257
   -28.4229 -11.6917 -11.2422 -10.1674  -7.7045  -6.7769  -2.5292  -1.9866
    -1.5741  -1.2981  -0.9888  -0.5159   0.4101   0.9278   1.4336   3.1620
     3.4203   3.8576   4.6706   5.2830   5.4693   7.1010   7.1869   7.7374
     8.1947   8.3120   9.3024   9.4589   9.5790  10.0747  10.4097  10.5611
    11.0848  11.2620  11.8379  12.0953

     occupation numbers 
     1.0000   1.0000   1.0000   1.0000   1.0000   1.0000   1.0000   1.0000
     1.0000   1.0000   1.0000   1.0000   1.0000   1.0000   1.0000   1.0000
     1.0000   1.0000   1.0000   1.0000   1.0000   1.0000   1.0000   1.0000
     1.0000   1.0000   1.0000   1.0000   1.0000   1.0000   1.0000   1.0000
     1.0000   1.0000   1.0000   1.0000   1.0000   1.0000   1.0000   0.0000
     0.0000   0.0000   0.0000   0.0000   0.0000   0.0000   0.0000   0.0000
     0.0000   0.0000   0.0000   0.0000   0.0000   0.0000   0.0000   0.0000
     0.0000   0.0000   0.0000   0.0000

          k = 0.1538 0.2682 0.0000 ( 24045 PWs)   bands (ev):

   -35.5374 -35.5331 -35.5312 -35.5267 -35.4993 -35.4951 -35.4921 -35.4869
   -35.4656 -35.4610 -35.1031 -35.0919 -35.0868 -35.0406 -35.0401 -28.4724
   -28.4696 -28.4608 -28.4580 -28.4458 -28.4429 -28.4399 -28.4371 -28.4294
   -28.4266 -11.4271 -11.0049 -10.0417  -7.8435  -7.1696  -2.7990  -2.7034
    -1.8189  -1.6095  -1.2847  -0.8201   0.4302   1.0495   1.1927   3.2407
     3.7501   3.8221   4.8378   5.7151   5.8128   7.3545   7.4201   7.7826
     8.1003   8.5368   8.9789   9.4769   9.8655  10.6110  10.8000  10.9114
    11.1710  11.6855  12.0234  12.1115

     occupation numbers 
     1.0000   1.0000   1.0000   1.0000   1.0000   1.0000   1.0000   1.0000
     1.0000   1.0000   1.0000   1.0000   1.0000   1.0000   1.0000   1.0000
     1.0000   1.0000   1.0000   1.0000   1.0000   1.0000   1.0000   1.0000
     1.0000   1.0000   1.0000   1.0000   1.0000   1.0000   1.0000   1.0000
     1.0000   1.0000   1.0000   1.0000   1.0000   1.0000   1.0000   0.0000
     0.0000   0.0000   0.0000   0.0000   0.0000   0.0000   0.0000   0.0000
     0.0000   0.0000   0.0000   0.0000   0.0000   0.0000   0.0000   0.0000
     0.0000   0.0000   0.0000   0.0000

          k = 0.1538 0.3580 0.0000 ( 24054 PWs)   bands (ev):

   -35.5268 -35.5227 -35.5207 -35.5163 -35.4964 -35.4922 -35.4862 -35.4811
   -35.4636 -35.4589 -35.0975 -35.0886 -35.0792 -35.0316 -35.0312 -28.4680
   -28.4651 -28.4574 -28.4546 -28.4435 -28.4406 -28.4392 -28.4364 -28.4273
   -28.4245 -11.0855 -10.7163  -9.9247  -8.0643  -7.6230  -3.2857  -2.9086
    -2.1844  -1.9205  -1.5773  -1.0161   0.4773   0.7041   1.1942   3.3257
     3.8119   3.8782   5.1643   5.8800   6.1396   7.2785   7.7945   8.0423
     8.4096   8.8095   8.9952   9.6757  10.1314  10.5300  11.0815  11.2094
    11.5789  11.9063  12.1775  12.4978

     occupation numbers 
     1.0000   1.0000   1.0000   1.0000   1.0000   1.0000   1.0000   1.0000
     1.0000   1.0000   1.0000   1.0000   1.0000   1.0000   1.0000   1.0000
     1.0000   1.0000   1.0000   1.0000   1.0000   1.0000   1.0000   1.0000
     1.0000   1.0000   1.0000   1.0000   1.0000   1.0000   1.0000   1.0000
     1.0000   1.0000   1.0000   1.0000   1.0000   1.0000   1.0000   0.0000
     0.0000   0.0000   0.0000   0.0000   0.0000   0.0000   0.0000   0.0000
     0.0000   0.0000   0.0000   0.0000   0.0000   0.0000   0.0000   0.0000
     0.0000   0.0000   0.0000   0.0000

          k = 0.1538 0.4477 0.0000 ( 24036 PWs)   bands (ev):

   -35.5205 -35.5165 -35.5151 -35.5107 -35.4942 -35.4900 -35.4821 -35.4770
   -35.4643 -35.4598 -35.0929 -35.0862 -35.0753 -35.0282 -35.0261 -28.4643
   -28.4613 -28.4539 -28.4510 -28.4408 -28.4381 -28.4378 -28.4352 -28.4236
   -28.4208 -10.6902 -10.4164  -9.8720  -8.3700  -8.0267  -3.6633  -2.9418
    -2.4196  -2.3218  -1.6380  -1.1978   0.2829   0.5989   1.1760   3.2546
     3.8533   3.9772   5.3288   5.9584   6.3815   7.0800   8.1489   8.4353
     8.9186   9.1046   9.5370   9.8292  10.3692  10.5591  10.9457  11.2139
    11.5969  11.6739  12.1475  12.1843

     occupation numbers 
     1.0000   1.0000   1.0000   1.0000   1.0000   1.0000   1.0000   1.0000
     1.0000   1.0000   1.0000   1.0000   1.0000   1.0000   1.0000   1.0000
     1.0000   1.0000   1.0000   1.0000   1.0000   1.0000   1.0000   1.0000
     1.0000   1.0000   1.0000   1.0000   1.0000   1.0000   1.0000   1.0000
     1.0000   1.0000   1.0000   1.0000   1.0000   1.0000   1.0000   0.0000
     0.0000   0.0000   0.0000   0.0000   0.0000   0.0000   0.0000   0.0000
     0.0000   0.0000   0.0000   0.0000   0.0000   0.0000   0.0000   0.0000
     0.0000   0.0000   0.0000   0.0000

          k = 0.1538 0.5374 0.0000 ( 24075 PWs)   bands (ev):

   -35.5183 -35.5143 -35.5126 -35.5083 -35.4911 -35.4869 -35.4798 -35.4747
   -35.4625 -35.4580 -35.0892 -35.0842 -35.0730 -35.0252 -35.0219 -28.4635
   -28.4604 -28.4526 -28.4498 -28.4406 -28.4384 -28.4378 -28.4356 -28.4230
   -28.4201 -10.3015 -10.1944  -9.9546  -8.6385  -8.2674  -3.8503  -2.9151
    -2.7552  -2.2804  -1.6356  -1.4490   0.2405   0.5570   1.1050   3.3401
     3.8178   3.8618   5.4949   5.9781   6.4655   6.9541   8.2519   8.9968
     9.2918   9.5702   9.7622  10.0058  10.3809  10.5687  10.9435  11.0666
    11.3757  11.6777  11.7690  12.2731

     occupation numbers 
     1.0000   1.0000   1.0000   1.0000   1.0000   1.0000   1.0000   1.0000
     1.0000   1.0000   1.0000   1.0000   1.0000   1.0000   1.0000   1.0000
     1.0000   1.0000   1.0000   1.0000   1.0000   1.0000   1.0000   1.0000
     1.0000   1.0000   1.0000   1.0000   1.0000   1.0000   1.0000   1.0000
     1.0000   1.0000   1.0000   1.0000   1.0000   1.0000   1.0000   0.0000
     0.0000   0.0000   0.0000   0.0000   0.0000   0.0000   0.0000   0.0000
     0.0000   0.0000   0.0000   0.0000   0.0000   0.0000   0.0000   0.0000
     0.0000   0.0000   0.0000   0.0000

          k = 0.1538 0.6271 0.0000 ( 24067 PWs)   bands (ev):

   -35.5183 -35.5143 -35.5126 -35.5083 -35.4914 -35.4872 -35.4796 -35.4746
   -35.4625 -35.4580 -35.0897 -35.0844 -35.0726 -35.0251 -35.0220 -28.4636
   -28.4605 -28.4527 -28.4498 -28.4410 -28.4382 -28.4380 -28.4352 -28.4229
   -28.4201 -10.2955 -10.1917  -9.9576  -8.6402  -8.2670  -3.8518  -2.9252
    -2.7464  -2.2774  -1.6540  -1.4320   0.2427   0.5484   1.1051   3.3446
     3.8076   3.8556   5.4927   5.9718   6.4581   6.9487   8.2469   9.0094
     9.3065   9.5501   9.7196  10.0045  10.3431  10.5605  10.9104  11.0722
    11.3534  11.7454  11.7929  12.2642

     occupation numbers 
     1.0000   1.0000   1.0000   1.0000   1.0000   1.0000   1.0000   1.0000
     1.0000   1.0000   1.0000   1.0000   1.0000   1.0000   1.0000   1.0000
     1.0000   1.0000   1.0000   1.0000   1.0000   1.0000   1.0000   1.0000
     1.0000   1.0000   1.0000   1.0000   1.0000   1.0000   1.0000   1.0000
     1.0000   1.0000   1.0000   1.0000   1.0000   1.0000   1.0000   0.0000
     0.0000   0.0000   0.0000   0.0000   0.0000   0.0000   0.0000   0.0000
     0.0000   0.0000   0.0000   0.0000   0.0000   0.0000   0.0000   0.0000
     0.0000   0.0000   0.0000   0.0000

          k = 0.1538-0.4494 0.0000 ( 24080 PWs)   bands (ev):

   -35.5204 -35.5163 -35.5152 -35.5108 -35.4950 -35.4907 -35.4818 -35.4769
   -35.4643 -35.4598 -35.0942 -35.0868 -35.0743 -35.0280 -35.0261 -28.4645
   -28.4615 -28.4539 -28.4511 -28.4416 -28.4388 -28.4374 -28.4345 -28.4235
   -28.4206 -10.6830 -10.4104  -9.8715  -8.3728  -8.0245  -3.6681  -2.9486
    -2.4200  -2.3144  -1.6537  -1.1787   0.2798   0.5829   1.1719   3.2578
     3.8413   3.9494   5.3198   5.9457   6.3611   7.0648   8.1408   8.4398
     8.9233   9.0363   9.5366   9.7979  10.3609  10.5521  10.9295  11.2090
    11.5960  11.6718  12.1503  12.1792

     occupation numbers 
     1.0000   1.0000   1.0000   1.0000   1.0000   1.0000   1.0000   1.0000
     1.0000   1.0000   1.0000   1.0000   1.0000   1.0000   1.0000   1.0000
     1.0000   1.0000   1.0000   1.0000   1.0000   1.0000   1.0000   1.0000
     1.0000   1.0000   1.0000   1.0000   1.0000   1.0000   1.0000   1.0000
     1.0000   1.0000   1.0000   1.0000   1.0000   1.0000   1.0000   0.0000
     0.0000   0.0000   0.0000   0.0000   0.0000   0.0000   0.0000   0.0000
     0.0000   0.0000   0.0000   0.0000   0.0000   0.0000   0.0000   0.0000
     0.0000   0.0000   0.0000   0.0000

          k = 0.1538-0.3597 0.0000 ( 24055 PWs)   bands (ev):

   -35.5263 -35.5221 -35.5211 -35.5167 -35.4973 -35.4930 -35.4858 -35.4810
   -35.4634 -35.4588 -35.0988 -35.0891 -35.0779 -35.0314 -35.0310 -28.4684
   -28.4656 -28.4574 -28.4546 -28.4444 -28.4417 -28.4388 -28.4359 -28.4273
   -28.4245 -11.0790 -10.7099  -9.9213  -8.0641  -7.6188  -3.2939  -2.9098
    -2.1862  -1.9199  -1.5877  -0.9945   0.4627   0.6854   1.1813   3.3184
     3.7799   3.8623   5.1390   5.8747   6.1168   7.2582   7.7855   8.0360
     8.3794   8.7961   8.9959   9.6566  10.1381  10.5300  11.0953  11.2108
    11.5858  11.9116  12.2411  12.5094

     occupation numbers 
     1.0000   1.0000   1.0000   1.0000   1.0000   1.0000   1.0000   1.0000
     1.0000   1.0000   1.0000   1.0000   1.0000   1.0000   1.0000   1.0000
     1.0000   1.0000   1.0000   1.0000   1.0000   1.0000   1.0000   1.0000
     1.0000   1.0000   1.0000   1.0000   1.0000   1.0000   1.0000   1.0000
     1.0000   1.0000   1.0000   1.0000   1.0000   1.0000   1.0000   0.0000
     0.0000   0.0000   0.0000   0.0000   0.0000   0.0000   0.0000   0.0000
     0.0000   0.0000   0.0000   0.0000   0.0000   0.0000   0.0000   0.0000
     0.0000   0.0000   0.0000   0.0000

          k = 0.1538-0.2700 0.0000 ( 24002 PWs)   bands (ev):

   -35.5367 -35.5322 -35.5315 -35.5270 -35.5005 -35.4960 -35.4911 -35.4866
   -35.4652 -35.4608 -35.1038 -35.0920 -35.0851 -35.0405 -35.0394 -28.4730
   -28.4702 -28.4608 -28.4580 -28.4464 -28.4435 -28.4400 -28.4373 -28.4294
   -28.4267 -11.4218 -10.9993 -10.0369  -7.8399  -7.1628  -2.7969  -2.7103
    -1.8188  -1.6207  -1.2796  -0.8106   0.4089   1.0274   1.1694   3.1997
     3.7292   3.8224   4.8054   5.7128   5.8107   7.3548   7.4064   7.7595
     8.0931   8.5377   8.9770   9.4638   9.8733  10.6320  10.8364  10.9187
    11.2042  11.6850  12.0160  12.1087

     occupation numbers 
     1.0000   1.0000   1.0000   1.0000   1.0000   1.0000   1.0000   1.0000
     1.0000   1.0000   1.0000   1.0000   1.0000   1.0000   1.0000   1.0000
     1.0000   1.0000   1.0000   1.0000   1.0000   1.0000   1.0000   1.0000
     1.0000   1.0000   1.0000   1.0000   1.0000   1.0000   1.0000   1.0000
     1.0000   1.0000   1.0000   1.0000   1.0000   1.0000   1.0000   0.0000
     0.0000   0.0000   0.0000   0.0000   0.0000   0.0000   0.0000   0.0000
     0.0000   0.0000   0.0000   0.0000   0.0000   0.0000   0.0000   0.0000
     0.0000   0.0000   0.0000   0.0000

          k = 0.1538-0.1803 0.0000 ( 23988 PWs)   bands (ev):

   -35.5444 -35.5396 -35.5359 -35.5315 -35.5086 -35.5045 -35.5031 -35.4982
   -35.4787 -35.4742 -35.1055 -35.0942 -35.0922 -35.0570 -35.0558 -28.4746
   -28.4717 -28.4652 -28.4623 -28.4486 -28.4457 -28.4380 -28.4352 -28.4257
   -28.4230 -11.6876 -11.2381 -10.1625  -7.6998  -6.7687  -2.5155  -1.9977
    -1.5595  -1.3161  -0.9907  -0.5217   0.3848   0.9010   1.4157   3.1237
     3.3799   3.8806   4.6543   5.2686   5.4991   7.1055   7.1856   7.7347
     8.1937   8.2987   9.3162   9.4632   9.5853  10.0572  10.4296  10.5797
    11.0366  11.2846  11.8400  12.1016

     occupation numbers 
     1.0000   1.0000   1.0000   1.0000   1.0000   1.0000   1.0000   1.0000
     1.0000   1.0000   1.0000   1.0000   1.0000   1.0000   1.0000   1.0000
     1.0000   1.0000   1.0000   1.0000   1.0000   1.0000   1.0000   1.0000
     1.0000   1.0000   1.0000   1.0000   1.0000   1.0000   1.0000   1.0000
     1.0000   1.0000   1.0000   1.0000   1.0000   1.0000   1.0000   0.0000
     0.0000   0.0000   0.0000   0.0000   0.0000   0.0000   0.0000   0.0000
     0.0000   0.0000   0.0000   0.0000   0.0000   0.0000   0.0000   0.0000
     0.0000   0.0000   0.0000   0.0000

          k = 0.1538-0.0906 0.0000 ( 23971 PWs)   bands (ev):

   -35.5478 -35.5428 -35.5399 -35.5355 -35.5147 -35.5106 -35.5106 -35.5059
   -35.4854 -35.4809 -35.1125 -35.1002 -35.0938 -35.0685 -35.0643 -28.4748
   -28.4723 -28.4719 -28.4693 -28.4523 -28.4494 -28.4377 -28.4349 -28.4227
   -28.4199 -11.8550 -11.3880 -10.2515  -7.6326  -6.5070  -2.1415  -1.4034
    -1.3396  -1.1302  -0.8040  -0.5153   0.6566   0.9394   1.2947   3.0212
     3.4252   3.5595   4.6522   4.7688   5.2701   6.9195   7.0618   7.8140
     8.0319   8.5438   9.2562   9.3969   9.5544   9.6891  10.3984  10.4451
    10.5404  11.3577  11.6456  11.8475

     occupation numbers 
     1.0000   1.0000   1.0000   1.0000   1.0000   1.0000   1.0000   1.0000
     1.0000   1.0000   1.0000   1.0000   1.0000   1.0000   1.0000   1.0000
     1.0000   1.0000   1.0000   1.0000   1.0000   1.0000   1.0000   1.0000
     1.0000   1.0000   1.0000   1.0000   1.0000   1.0000   1.0000   1.0000
     1.0000   1.0000   1.0000   1.0000   1.0000   1.0000   1.0000   0.0000
     0.0000   0.0000   0.0000   0.0000   0.0000   0.0000   0.0000   0.0000
     0.0000   0.0000   0.0000   0.0000   0.0000   0.0000   0.0000   0.0000
     0.0000   0.0000   0.0000   0.0000

          k = 0.1538-0.0009 0.0000 ( 23978 PWs)   bands (ev):

   -35.5590 -35.5543 -35.5428 -35.5384 -35.5228 -35.5185 -35.5153 -35.5108
   -35.4923 -35.4879 -35.1133 -35.1088 -35.1014 -35.0653 -35.0651 -28.4761
   -28.4733 -28.4712 -28.4682 -28.4508 -28.4480 -28.4364 -28.4336 -28.4187
   -28.4159 -11.9147 -11.4521 -10.2892  -7.6108  -6.4207  -1.8566  -1.4522
    -1.2084  -1.0608  -0.6135  -0.3400   0.4103   1.1867   1.2544   3.0793
     3.2853   3.4373   4.5316   4.7148   5.1283   6.8532   7.0208   7.9247
     8.1144   8.2714   9.2356   9.3920   9.6612   9.7241  10.0460  10.3113
    10.9589  11.2787  11.5511  11.8591

     occupation numbers 
     1.0000   1.0000   1.0000   1.0000   1.0000   1.0000   1.0000   1.0000
     1.0000   1.0000   1.0000   1.0000   1.0000   1.0000   1.0000   1.0000
     1.0000   1.0000   1.0000   1.0000   1.0000   1.0000   1.0000   1.0000
     1.0000   1.0000   1.0000   1.0000   1.0000   1.0000   1.0000   1.0000
     1.0000   1.0000   1.0000   1.0000   1.0000   1.0000   1.0000   0.0000
     0.0000   0.0000   0.0000   0.0000   0.0000   0.0000   0.0000   0.0000
     0.0000   0.0000   0.0000   0.0000   0.0000   0.0000   0.0000   0.0000
     0.0000   0.0000   0.0000   0.0000

          k = 0.2308 0.1332 0.0000 ( 24049 PWs)   bands (ev):

   -35.5416 -35.5371 -35.5312 -35.5268 -35.5032 -35.5007 -35.4989 -35.4959
   -35.4762 -35.4718 -35.1007 -35.0871 -35.0843 -35.0572 -35.0532 -28.4715
   -28.4685 -28.4659 -28.4629 -28.4525 -28.4497 -28.4364 -28.4336 -28.4219
   -28.4191 -11.5899 -11.1539 -10.1183  -7.7638  -6.9358  -2.8769  -1.8935
    -1.6559  -1.6018  -1.0366  -0.5042   0.3727   0.6740   1.4511   3.0960
     3.6236   3.9053   5.0591   5.0870   5.7088   7.0310   7.2321   7.6561
     8.2795   8.7826   9.2843   9.6025   9.7807   9.9296  10.6434  10.7289
    10.9220  11.3990  11.5386  12.3368

     occupation numbers 
     1.0000   1.0000   1.0000   1.0000   1.0000   1.0000   1.0000   1.0000
     1.0000   1.0000   1.0000   1.0000   1.0000   1.0000   1.0000   1.0000
     1.0000   1.0000   1.0000   1.0000   1.0000   1.0000   1.0000   1.0000
     1.0000   1.0000   1.0000   1.0000   1.0000   1.0000   1.0000   1.0000
     1.0000   1.0000   1.0000   1.0000   1.0000   1.0000   1.0000   0.0000
     0.0000   0.0000   0.0000   0.0000   0.0000   0.0000   0.0000   0.0000
     0.0000   0.0000   0.0000   0.0000   0.0000   0.0000   0.0000   0.0000
     0.0000   0.0000   0.0000   0.0000

          k = 0.2308 0.2229 0.0000 ( 24045 PWs)   bands (ev):

   -35.5367 -35.5322 -35.5257 -35.5213 -35.4979 -35.4945 -35.4934 -35.4896
   -35.4709 -35.4663 -35.0967 -35.0847 -35.0809 -35.0435 -35.0420 -28.4714
   -28.4685 -28.4624 -28.4596 -28.4506 -28.4477 -28.4397 -28.4369 -28.4248
   -28.4221 -11.3840 -10.9756 -10.0288  -7.8888  -7.2320  -3.1433  -2.3812
    -1.8449  -1.6714  -1.3465  -0.6192   0.4009   0.5773   1.4042   3.3642
     3.5047   3.9205   5.0487   5.5254   5.9655   7.0138   7.4733   7.7954
     8.4193   8.7570   9.0027   9.7726   9.8579  10.7076  10.7626  10.8737
    11.1245  11.5037  12.0711  12.2580

     occupation numbers 
     1.0000   1.0000   1.0000   1.0000   1.0000   1.0000   1.0000   1.0000
     1.0000   1.0000   1.0000   1.0000   1.0000   1.0000   1.0000   1.0000
     1.0000   1.0000   1.0000   1.0000   1.0000   1.0000   1.0000   1.0000
     1.0000   1.0000   1.0000   1.0000   1.0000   1.0000   1.0000   1.0000
     1.0000   1.0000   1.0000   1.0000   1.0000   1.0000   1.0000   0.0000
     0.0000   0.0000   0.0000   0.0000   0.0000   0.0000   0.0000   0.0000
     0.0000   0.0000   0.0000   0.0000   0.0000   0.0000   0.0000   0.0000
     0.0000   0.0000   0.0000   0.0000

          k = 0.2308 0.3127 0.0000 ( 24027 PWs)   bands (ev):

   -35.5280 -35.5237 -35.5206 -35.5161 -35.4956 -35.4912 -35.4873 -35.4823
   -35.4641 -35.4595 -35.0978 -35.0892 -35.0799 -35.0317 -35.0313 -28.4676
   -28.4648 -28.4577 -28.4549 -28.4441 -28.4413 -28.4381 -28.4354 -28.4271
   -28.4244 -11.0906 -10.7223  -9.9313  -8.0732  -7.6252  -3.3019  -2.8887
[...]
    11.3968  11.7965  11.9671  12.1085

     occupation numbers 
     1.0000   1.0000   1.0000   1.0000   1.0000   1.0000   1.0000   1.0000
     1.0000   1.0000   1.0000   1.0000   1.0000   1.0000   1.0000   1.0000
     1.0000   1.0000   1.0000   1.0000   1.0000   1.0000   1.0000   1.0000
     1.0000   1.0000   1.0000   1.0000   1.0000   1.0000   1.0000   1.0000
     1.0000   1.0000   1.0000   1.0000   1.0000   1.0000   1.0000   0.0000
     0.0000   0.0000   0.0000   0.0000   0.0000   0.0000   0.0000   0.0000
     0.0000   0.0000   0.0000   0.0000   0.0000   0.0000   0.0000   0.0000
     0.0000   0.0000   0.0000   0.0000

          k = 0.4615 0.2665 0.0000 ( 24089 PWs)   bands (ev):

   -35.5561 -35.5434 -35.5216 -35.5153 -35.5048 -35.4966 -35.4918 -35.4704
   -35.4644 -35.4457 -35.0439 -35.0332 -35.0175 -34.9824 -34.9734 -28.4539
   -28.4441 -28.4366 -28.4232 -28.4222 -28.4123 -28.4048 -28.4046 -28.3915
   -28.3732 -10.4443 -10.3308 -10.0369  -8.5974  -8.0077  -3.9573  -2.5685
    -2.2542  -2.2363  -1.5407  -1.0419   0.3193   0.5261   0.8333   3.1263
     3.7943   3.8275   5.5300   5.7285   6.3463   6.5365   7.9900   8.8477
     9.1571   9.4657   9.7424   9.9188  10.4955  10.5468  11.1013  11.7354
    11.8518  12.3132  12.3595  12.6406

     occupation numbers 
     1.0000   1.0000   1.0000   1.0000   1.0000   1.0000   1.0000   1.0000
     1.0000   1.0000   1.0000   1.0000   1.0000   1.0000   1.0000   1.0000
     1.0000   1.0000   1.0000   1.0000   1.0000   1.0000   1.0000   1.0000
     1.0000   1.0000   1.0000   1.0000   1.0000   1.0000   1.0000   1.0000
     1.0000   1.0000   1.0000   1.0000   1.0000   1.0000   1.0000   0.0000
     0.0000   0.0000   0.0000   0.0000   0.0000   0.0000   0.0000   0.0000
     0.0000   0.0000   0.0000   0.0000   0.0000   0.0000   0.0000   0.0000
     0.0000   0.0000   0.0000   0.0000

          k = 0.4615 0.3562 0.0000 ( 24070 PWs)   bands (ev):

   -35.5539 -35.5419 -35.5195 -35.5159 -35.5025 -35.4969 -35.4904 -35.4682
   -35.4650 -35.4460 -35.0407 -35.0336 -35.0210 -34.9778 -34.9713 -28.4536
   -28.4425 -28.4344 -28.4246 -28.4219 -28.4107 -28.4073 -28.4026 -28.3929
   -28.3758 -10.3197 -10.2616 -10.0690  -8.6456  -8.1010  -3.9459  -2.6026
    -2.4802  -2.2555  -1.6164  -1.0963   0.3181   0.4522   1.0076   3.4250
     3.5730   3.8384   5.6398   5.7782   6.5046   6.5315   8.0776   9.0632
     9.2813   9.3689   9.5670  10.1506  10.3059  10.5066  11.0921  11.6540
    11.7100  12.0130  12.3822  12.5055

     occupation numbers 
     1.0000   1.0000   1.0000   1.0000   1.0000   1.0000   1.0000   1.0000
     1.0000   1.0000   1.0000   1.0000   1.0000   1.0000   1.0000   1.0000
     1.0000   1.0000   1.0000   1.0000   1.0000   1.0000   1.0000   1.0000
     1.0000   1.0000   1.0000   1.0000   1.0000   1.0000   1.0000   1.0000
     1.0000   1.0000   1.0000   1.0000   1.0000   1.0000   1.0000   0.0000
     0.0000   0.0000   0.0000   0.0000   0.0000   0.0000   0.0000   0.0000
     0.0000   0.0000   0.0000   0.0000   0.0000   0.0000   0.0000   0.0000
     0.0000   0.0000   0.0000   0.0000

          k = 0.4615 0.4459 0.0000 ( 24068 PWs)   bands (ev):

   -35.5524 -35.5442 -35.5204 -35.5127 -35.5010 -35.4941 -35.4926 -35.4693
   -35.4616 -35.4431 -35.0387 -35.0362 -35.0280 -34.9769 -34.9735 -28.4485
   -28.4396 -28.4269 -28.4236 -28.4169 -28.4092 -28.4079 -28.3951 -28.3918
   -28.3777 -10.3215 -10.2181  -9.9420  -8.6272  -8.2357  -3.8175  -2.8809
    -2.7115  -2.2480  -1.6304  -1.4129   0.2839   0.6099   1.1899   3.4233
     3.8564   3.9429   5.5487   6.0696   6.4943   7.0341   8.2551   8.9587
     9.2515   9.5236   9.7125   9.9708  10.3387  10.5453  10.9120  11.0324
    11.3378  11.6440  11.7556  12.2858

     occupation numbers 
     1.0000   1.0000   1.0000   1.0000   1.0000   1.0000   1.0000   1.0000
     1.0000   1.0000   1.0000   1.0000   1.0000   1.0000   1.0000   1.0000
     1.0000   1.0000   1.0000   1.0000   1.0000   1.0000   1.0000   1.0000
     1.0000   1.0000   1.0000   1.0000   1.0000   1.0000   1.0000   1.0000
     1.0000   1.0000   1.0000   1.0000   1.0000   1.0000   1.0000   0.0000
     0.0000   0.0000   0.0000   0.0000   0.0000   0.0000   0.0000   0.0000
     0.0000   0.0000   0.0000   0.0000   0.0000   0.0000   0.0000   0.0000
     0.0000   0.0000   0.0000   0.0000

          k = 0.4615 0.5356 0.0000 ( 24077 PWs)   bands (ev):

   -35.5489 -35.5375 -35.5193 -35.5125 -35.4976 -35.4946 -35.4859 -35.4681
   -35.4614 -35.4435 -35.0349 -35.0318 -35.0262 -34.9747 -34.9726 -28.4462
   -28.4408 -28.4228 -28.4222 -28.4146 -28.4134 -28.4091 -28.3909 -28.3903
   -28.3820 -10.3489 -10.1895  -9.8092  -8.5569  -8.3812  -3.6018  -3.2896
    -2.6512  -2.2692  -1.9824  -1.3778   0.2569   0.8446   1.0910   3.6248
     3.8470   4.0484   5.7713   6.1694   6.3970   7.8275   8.5718   8.7235
     9.0397   9.2563   9.5504   9.8921  10.3073  10.4743  10.7233  11.0589
    11.2776  11.3474  11.5867  11.8882

     occupation numbers 
     1.0000   1.0000   1.0000   1.0000   1.0000   1.0000   1.0000   1.0000
     1.0000   1.0000   1.0000   1.0000   1.0000   1.0000   1.0000   1.0000
     1.0000   1.0000   1.0000   1.0000   1.0000   1.0000   1.0000   1.0000
     1.0000   1.0000   1.0000   1.0000   1.0000   1.0000   1.0000   1.0000
     1.0000   1.0000   1.0000   1.0000   1.0000   1.0000   1.0000   0.0000
     0.0000   0.0000   0.0000   0.0000   0.0000   0.0000   0.0000   0.0000
     0.0000   0.0000   0.0000   0.0000   0.0000   0.0000   0.0000   0.0000
     0.0000   0.0000   0.0000   0.0000

          k = 0.4615 0.6253 0.0000 ( 24079 PWs)   bands (ev):

   -35.5485 -35.5377 -35.5200 -35.5117 -35.4974 -35.4944 -35.4862 -35.4690
   -35.4603 -35.4433 -35.0353 -35.0318 -35.0258 -34.9747 -34.9727 -28.4465
   -28.4405 -28.4233 -28.4218 -28.4149 -28.4135 -28.4089 -28.3914 -28.3899
   -28.3820 -10.3453 -10.1849  -9.8044  -8.5520  -8.3861  -3.6050  -3.2900
    -2.6547  -2.2753  -1.9851  -1.3745   0.2482   0.8409   1.0812   3.5937
     3.8444   4.0585   5.7496   6.1531   6.4080   7.7841   8.5668   8.7556
     9.0693   9.2498   9.5841   9.8958  10.3384  10.4740  10.7101  11.0832
    11.2732  11.3648  11.5845  11.8606

     occupation numbers 
     1.0000   1.0000   1.0000   1.0000   1.0000   1.0000   1.0000   1.0000
     1.0000   1.0000   1.0000   1.0000   1.0000   1.0000   1.0000   1.0000
     1.0000   1.0000   1.0000   1.0000   1.0000   1.0000   1.0000   1.0000
     1.0000   1.0000   1.0000   1.0000   1.0000   1.0000   1.0000   1.0000
     1.0000   1.0000   1.0000   1.0000   1.0000   1.0000   1.0000   0.0000
     0.0000   0.0000   0.0000   0.0000   0.0000   0.0000   0.0000   0.0000
     0.0000   0.0000   0.0000   0.0000   0.0000   0.0000   0.0000   0.0000
     0.0000   0.0000   0.0000   0.0000

          k = 0.4615 0.7150 0.0000 ( 24045 PWs)   bands (ev):

   -35.5512 -35.5441 -35.5212 -35.5118 -35.5002 -35.4938 -35.4927 -35.4704
   -35.4603 -35.4427 -35.0396 -35.0360 -35.0264 -34.9766 -34.9732 -28.4492
   -28.4394 -28.4270 -28.4242 -28.4175 -28.4094 -28.4076 -28.3952 -28.3924
   -28.3779 -10.3100 -10.2056  -9.9305  -8.6214  -8.2398  -3.8212  -2.8824
    -2.7282  -2.2593  -1.6197  -1.4339   0.2698   0.5971   1.1567   3.3868
     3.8521   3.9094   5.5314   6.0362   6.4917   7.0082   8.2576   8.9666
     9.2602   9.5529   9.7547   9.9832  10.3804  10.5603  10.9467  11.0434
    11.3616  11.6379  11.7539  12.2847

     occupation numbers 
     1.0000   1.0000   1.0000   1.0000   1.0000   1.0000   1.0000   1.0000
     1.0000   1.0000   1.0000   1.0000   1.0000   1.0000   1.0000   1.0000
     1.0000   1.0000   1.0000   1.0000   1.0000   1.0000   1.0000   1.0000
     1.0000   1.0000   1.0000   1.0000   1.0000   1.0000   1.0000   1.0000
     1.0000   1.0000   1.0000   1.0000   1.0000   1.0000   1.0000   0.0000
     0.0000   0.0000   0.0000   0.0000   0.0000   0.0000   0.0000   0.0000
     0.0000   0.0000   0.0000   0.0000   0.0000   0.0000   0.0000   0.0000
     0.0000   0.0000   0.0000   0.0000

          k = 0.4615 0.8047 0.0000 ( 24077 PWs)   bands (ev):

   -35.5522 -35.5413 -35.5206 -35.5150 -35.5014 -35.4967 -35.4900 -35.4695
   -35.4636 -35.4458 -35.0416 -35.0337 -35.0190 -34.9771 -34.9705 -28.4543
   -28.4424 -28.4339 -28.4254 -28.4225 -28.4106 -28.4074 -28.4022 -28.3937
   -28.3760 -10.3001 -10.2449 -10.0577  -8.6387  -8.1018  -3.9487  -2.6236
    -2.4659  -2.2826  -1.6392  -1.1076   0.3089   0.4210   0.9648   3.3776
     3.5403   3.8240   5.6282   5.7310   6.4974   6.5183   8.0901   9.0855
     9.2999   9.3845   9.5870  10.1724  10.3252  10.5070  11.1111  11.6678
    11.7254  12.0398  12.3651  12.5198

     occupation numbers 
     1.0000   1.0000   1.0000   1.0000   1.0000   1.0000   1.0000   1.0000
     1.0000   1.0000   1.0000   1.0000   1.0000   1.0000   1.0000   1.0000
     1.0000   1.0000   1.0000   1.0000   1.0000   1.0000   1.0000   1.0000
     1.0000   1.0000   1.0000   1.0000   1.0000   1.0000   1.0000   1.0000
     1.0000   1.0000   1.0000   1.0000   1.0000   1.0000   1.0000   0.0000
     0.0000   0.0000   0.0000   0.0000   0.0000   0.0000   0.0000   0.0000
     0.0000   0.0000   0.0000   0.0000   0.0000   0.0000   0.0000   0.0000
     0.0000   0.0000   0.0000   0.0000

          k = 0.4615-0.2718 0.0000 ( 24071 PWs)   bands (ev):

   -35.5544 -35.5429 -35.5227 -35.5143 -35.5035 -35.4962 -35.4916 -35.4717
   -35.4628 -35.4453 -35.0448 -35.0335 -35.0156 -34.9817 -34.9724 -28.4545
   -28.4440 -28.4359 -28.4240 -28.4228 -28.4122 -28.4048 -28.4042 -28.3922
   -28.3734 -10.4267 -10.3133 -10.0236  -8.5889  -8.0065  -3.9592  -2.5690
    -2.2939  -2.2245  -1.5902  -1.0422   0.3112   0.4835   0.7957   3.0775
     3.7601   3.8180   5.4794   5.7173   6.3387   6.5303   8.0064   8.8667
     9.1729   9.4888   9.7635   9.9328  10.4981  10.5739  11.1197  11.7580
    11.8609  12.2970  12.3312  12.6443

     occupation numbers 
     1.0000   1.0000   1.0000   1.0000   1.0000   1.0000   1.0000   1.0000
     1.0000   1.0000   1.0000   1.0000   1.0000   1.0000   1.0000   1.0000
     1.0000   1.0000   1.0000   1.0000   1.0000   1.0000   1.0000   1.0000
     1.0000   1.0000   1.0000   1.0000   1.0000   1.0000   1.0000   1.0000
     1.0000   1.0000   1.0000   1.0000   1.0000   1.0000   1.0000   0.0000
     0.0000   0.0000   0.0000   0.0000   0.0000   0.0000   0.0000   0.0000
     0.0000   0.0000   0.0000   0.0000   0.0000   0.0000   0.0000   0.0000
     0.0000   0.0000   0.0000   0.0000

          k = 0.4615-0.1821 0.0000 ( 24035 PWs)   bands (ev):

   -35.5537 -35.5433 -35.5204 -35.5168 -35.5029 -35.4965 -35.4920 -35.4696
   -35.4651 -35.4455 -35.0415 -35.0330 -35.0199 -34.9791 -34.9729 -28.4549
   -28.4432 -28.4343 -28.4263 -28.4232 -28.4115 -28.4083 -28.4025 -28.3946
   -28.3768 -10.5803 -10.3798  -9.9226  -8.4859  -7.9779  -3.8505  -2.5954
    -2.4601  -2.1752  -1.5562  -1.0647   0.2479   0.4980   1.0327   3.4333
     3.4709   3.8976   5.5473   5.7369   6.4141   6.6676   7.9998   8.6047
     8.9978   9.5623   9.8546   9.9413  10.4794  10.7442  11.0706  11.1593
    11.6589  11.8287  12.2256  12.5278

     occupation numbers 
     1.0000   1.0000   1.0000   1.0000   1.0000   1.0000   1.0000   1.0000
     1.0000   1.0000   1.0000   1.0000   1.0000   1.0000   1.0000   1.0000
     1.0000   1.0000   1.0000   1.0000   1.0000   1.0000   1.0000   1.0000
     1.0000   1.0000   1.0000   1.0000   1.0000   1.0000   1.0000   1.0000
     1.0000   1.0000   1.0000   1.0000   1.0000   1.0000   1.0000   0.0000
     0.0000   0.0000   0.0000   0.0000   0.0000   0.0000   0.0000   0.0000
     0.0000   0.0000   0.0000   0.0000   0.0000   0.0000   0.0000   0.0000
     0.0000   0.0000   0.0000   0.0000

          k = 0.4615-0.0924 0.0000 ( 24040 PWs)   bands (ev):

   -35.5534 -35.5465 -35.5241 -35.5141 -35.5023 -35.4956 -35.4950 -35.4733
   -35.4625 -35.4445 -35.0431 -35.0379 -35.0288 -34.9796 -34.9773 -28.4500
   -28.4406 -28.4269 -28.4240 -28.4183 -28.4102 -28.4089 -28.3951 -28.3922
   -28.3786 -10.6859 -10.4257  -9.8548  -8.3553  -8.0036  -3.6358  -2.9067
    -2.3997  -2.2996  -1.6161  -1.1934   0.3158   0.6421   1.2253   3.3006
     3.9067   4.0090   5.3675   6.0166   6.4091   7.1359   8.1481   8.4130
     8.9079   9.1395   9.5230   9.8281  10.3518  10.5590  10.9423  11.1982
    11.5757  11.6577  12.1420  12.1633

     occupation numbers 
     1.0000   1.0000   1.0000   1.0000   1.0000   1.0000   1.0000   1.0000
     1.0000   1.0000   1.0000   1.0000   1.0000   1.0000   1.0000   1.0000
     1.0000   1.0000   1.0000   1.0000   1.0000   1.0000   1.0000   1.0000
     1.0000   1.0000   1.0000   1.0000   1.0000   1.0000   1.0000   1.0000
     1.0000   1.0000   1.0000   1.0000   1.0000   1.0000   1.0000   0.0000
     0.0000   0.0000   0.0000   0.0000   0.0000   0.0000   0.0000   0.0000
     0.0000   0.0000   0.0000   0.0000   0.0000   0.0000   0.0000   0.0000
     0.0000   0.0000   0.0000   0.0000

          k = 0.4615-0.0027 0.0000 ( 24052 PWs)   bands (ev):

   -35.5535 -35.5403 -35.5216 -35.5148 -35.5024 -35.4944 -35.4888 -35.4708
   -35.4633 -35.4432 -35.0416 -35.0361 -35.0283 -34.9765 -34.9748 -28.4499
   -28.4423 -28.4253 -28.4235 -28.4182 -28.4150 -28.4107 -28.3934 -28.3917
   -28.3835 -10.7211 -10.4404  -9.8245  -8.2868  -8.0388  -3.3705  -3.2680
    -2.3669  -2.0704  -1.9805  -1.2017   0.4536   0.8656   1.0492   3.6224
     3.7269   4.0483   5.5515   6.0591   6.3158   7.8439   8.0087   8.3747
     8.4442   9.0133   9.4181   9.4973  10.3303  10.4449  11.1356  11.2246
    11.4681  11.7641  12.0567  12.2001

     occupation numbers 
     1.0000   1.0000   1.0000   1.0000   1.0000   1.0000   1.0000   1.0000
     1.0000   1.0000   1.0000   1.0000   1.0000   1.0000   1.0000   1.0000
     1.0000   1.0000   1.0000   1.0000   1.0000   1.0000   1.0000   1.0000
     1.0000   1.0000   1.0000   1.0000   1.0000   1.0000   1.0000   1.0000
     1.0000   1.0000   1.0000   1.0000   1.0000   1.0000   1.0000   0.0000
     0.0000   0.0000   0.0000   0.0000   0.0000   0.0000   0.0000   0.0000
     0.0000   0.0000   0.0000   0.0000   0.0000   0.0000   0.0000   0.0000
     0.0000   0.0000   0.0000   0.0000

          k = 0.4615 0.0870 0.0000 ( 24029 PWs)   bands (ev):

   -35.5544 -35.5465 -35.5234 -35.5149 -35.5031 -35.4959 -35.4949 -35.4724
   -35.4636 -35.4448 -35.0429 -35.0382 -35.0296 -34.9797 -34.9774 -28.4495
   -28.4409 -28.4273 -28.4233 -28.4179 -28.4100 -28.4091 -28.3954 -28.3915
   -28.3784 -10.6921 -10.4331  -9.8627  -8.3632  -8.0019  -3.6366  -2.9009
    -2.3960  -2.2834  -1.6207  -1.1786   0.3269   0.6508   1.2516   3.3345
     3.9325   4.0013   5.3795   6.0435   6.4003   7.1544   8.1421   8.4047
     8.9054   9.0970   9.5099   9.7936  10.3327  10.5531  10.9239  11.1816
    11.5500  11.6526  12.1241  12.1593

     occupation numbers 
     1.0000   1.0000   1.0000   1.0000   1.0000   1.0000   1.0000   1.0000
     1.0000   1.0000   1.0000   1.0000   1.0000   1.0000   1.0000   1.0000
     1.0000   1.0000   1.0000   1.0000   1.0000   1.0000   1.0000   1.0000
     1.0000   1.0000   1.0000   1.0000   1.0000   1.0000   1.0000   1.0000
     1.0000   1.0000   1.0000   1.0000   1.0000   1.0000   1.0000   0.0000
     0.0000   0.0000   0.0000   0.0000   0.0000   0.0000   0.0000   0.0000
     0.0000   0.0000   0.0000   0.0000   0.0000   0.0000   0.0000   0.0000
     0.0000   0.0000   0.0000   0.0000

          k = 0.4615 0.1768 0.0000 ( 24075 PWs)   bands (ev):

   -35.5554 -35.5439 -35.5199 -35.5172 -35.5041 -35.4967 -35.4923 -35.4692
   -35.4657 -35.4457 -35.0410 -35.0331 -35.0218 -34.9798 -34.9737 -28.4543
   -28.4433 -28.4348 -28.4253 -28.4226 -28.4116 -28.4080 -28.4030 -28.3936
   -28.3766 -10.5927 -10.3938  -9.9358  -8.4952  -7.9784  -3.8496  -2.6018
    -2.4395  -2.1525  -1.5427  -1.0498   0.2663   0.5173   1.0740   3.4710
     3.5123   3.9025   5.5581   5.7760   6.4186   6.6734   7.9859   8.5915
     8.9892   9.5439   9.8279   9.9076  10.4698  10.7030  11.0499  11.1267
    11.6199  11.8243  12.2109  12.5767

     occupation numbers 
     1.0000   1.0000   1.0000   1.0000   1.0000   1.0000   1.0000   1.0000
     1.0000   1.0000   1.0000   1.0000   1.0000   1.0000   1.0000   1.0000
     1.0000   1.0000   1.0000   1.0000   1.0000   1.0000   1.0000   1.0000
     1.0000   1.0000   1.0000   1.0000   1.0000   1.0000   1.0000   1.0000
     1.0000   1.0000   1.0000   1.0000   1.0000   1.0000   1.0000   0.0000
     0.0000   0.0000   0.0000   0.0000   0.0000   0.0000   0.0000   0.0000
     0.0000   0.0000   0.0000   0.0000   0.0000   0.0000   0.0000   0.0000
     0.0000   0.0000   0.0000   0.0000

     highest occupied, lowest unoccupied level (ev):     1.4688    2.7192

     Writing all to output data dir tmp/Sb2Te3-uatsx-c1-1.0.save/ :
     XML data file, pseudopotentials, collected wavefunctions

     init_run     :     10.95s CPU     12.12s WALL (       1 calls)
     electrons    :   1268.54s CPU   1277.70s WALL (       1 calls)

     Called by init_run:
     aceinit0     :     10.44s CPU     11.51s WALL (       1 calls)
     wfcinit      :      0.00s CPU      0.09s WALL (       1 calls)
     wfcinit:wfcr :      6.49s CPU      6.60s WALL (     170 calls)
     potinit      :      0.03s CPU      0.03s WALL (       1 calls)
     hinit0       :      0.44s CPU      0.44s WALL (       1 calls)

     Called by electrons:
     c_bands      :    231.73s CPU    234.58s WALL (       2 calls)
     sum_band     :      1.32s CPU      1.35s WALL (       1 calls)
     v_of_rho     :      0.03s CPU      0.03s WALL (       2 calls)
     v_h          :      0.00s CPU      0.00s WALL (       2 calls)
     v_xc         :      0.03s CPU      0.03s WALL (       2 calls)

     Called by c_bands:
     init_us_2    :      0.06s CPU      0.08s WALL (     255 calls)
     cegterg      :    221.72s CPU    224.31s WALL (     466 calls)

     Called by sum_band:
     sum_band:wei :      0.00s CPU      0.00s WALL (       1 calls)
     sum_band:loo :      1.31s CPU      1.35s WALL (       1 calls)
     sum_band:buf :      0.01s CPU      0.02s WALL (      85 calls)
     sum_band:ini :      0.02s CPU      0.03s WALL (      85 calls)

     Called by *egterg:
     cdiaghg      :     43.82s CPU     44.00s WALL (    7687 calls)
     cegterg:over :     17.39s CPU     17.51s WALL (    7517 calls)
     cegterg:upda :      3.30s CPU      3.33s WALL (    7517 calls)
     cegterg:last :      6.09s CPU      6.13s WALL (    4042 calls)
     h_psi        :    151.45s CPU    153.74s WALL (    8153 calls)
     g_psi        :      0.87s CPU      0.88s WALL (    7517 calls)

     Called by h_psi:
     h_psi:calbec :      9.22s CPU      9.31s WALL (    8153 calls)
     vloc_psi     :    131.80s CPU    133.89s WALL (    8153 calls)
     add_vuspsi   :      2.50s CPU      2.54s WALL (    8153 calls)

     General routines
     calbec       :     14.87s CPU     15.04s WALL (   16391 calls)
     fft          :      0.46s CPU      0.47s WALL (      19 calls)
     ffts         :      0.00s CPU      0.00s WALL (       1 calls)
     fftw         :    126.90s CPU    128.91s WALL (  525822 calls)
     fftc         :    962.56s CPU    968.02s WALL (  612000 calls)
     fftcw        :      4.02s CPU      4.10s WALL (   15300 calls)
     davcio       :      0.06s CPU      0.11s WALL (     510 calls)

     Parallel routines

     EXX routines
     exx_grid     :      0.00s CPU      0.00s WALL (       1 calls)
     exxinit      :     21.53s CPU     21.85s WALL (       1 calls)
     vexx         :   1013.78s CPU   1019.65s WALL (      85 calls)
     matcalc      :      5.71s CPU      5.77s WALL (    8238 calls)
     aceupdate    :      0.03s CPU      0.03s WALL (      85 calls)
     vexxace      :      7.56s CPU      7.65s WALL (    8153 calls)
     aceinit      :   1013.92s CPU   1019.79s WALL (      85 calls)

     PWSCF        :  21m47.22s CPU  22m36.34s WALL


   This run was terminated on:  20: 0:34  14May2025            

=------------------------------------------------------------------------------=
   JOB DONE.
=------------------------------------------------------------------------------=
