
     Program PWSCF v.7.3.1 starts on 14May2025 at 17:17:50 

     This program is part of the open-source Quantum ESPRESSO suite
     for quantum simulation of materials; please cite
         "P. Giannozzi et al., J. Phys.:Condens. Matter 21 395502 (2009);
         "P. Giannozzi et al., J. Phys.:Condens. Matter 29 465901 (2017);
         "P. Giannozzi et al., J. Chem. Phys. 152 154105 (2020);
          URL http://www.quantum-espresso.org", 
     in publications or presentations arising from this work. More details at
     http://www.quantum-espresso.org/quote

     Parallel version (MPI & OpenMP), running on      72 processor cores
     Number of MPI processes:                72
     Threads/MPI process:                     1

     MPI processes distributed on     3 nodes
     106818 MiB available memory on the printing compute node when the environment starts

     Waiting for input...
     Reading input from standard input

     Current dimensions of program PWSCF are:
     Max number of different atomic species (ntypx) = 10
     Max number of k-points (npk) =  40000
     Max angular momentum in pseudopotentials (lmaxx) =  4

     IMPORTANT: XC functional enforced from input :
     Exchange-correlation= B3LYP-V1R
                           (   7  13   9   7   0   0   0)
     EXX-fraction              =        0.20
     Any further DFT definition will be discarded
     Please, verify this is what you really want


     Atomic positions and unit cell read from directory:
     tmp/Sb2Te3-uatsx-c1-0.0.save/

     EXX fraction changed:   0.20

     R & G space division:  proc/nbgrp/npool/nimage =      72
     Subspace diagonalization in iterative solution of the eigenvalue problem:
     a serial algorithm will be used

     EXX: q-point mesh:     1    1    1
     EXX: setup a grid of 85 q-points centered on each k-point
     (k+q)-points:
   0.0000000   0.0000000   0.0000000         1    1
   0.0000000   0.0887897   0.0000000         2    1
   0.0000000   0.1775795   0.0000000         3    1
   0.0000000   0.2663692   0.0000000         4    1
   0.0000000   0.3551590   0.0000000         5    1
   0.0000000   0.4439487   0.0000000         6    1
   0.0000000   0.5327385   0.0000000         7    1
   0.0769231   0.0443949   0.0000000         8    1
   0.0769231   0.1331846   0.0000000         9    1
   0.0769231   0.2219744   0.0000000        10    1
   0.0769231   0.3107641   0.0000000        11    1
   0.0769231   0.3995538   0.0000000        12    1
   0.0769231   0.4883436   0.0000000        13    1
   0.0769231   0.5771333   0.0000000        14    1
   0.1538462   0.0887897   0.0000000        15    1
   0.1538462   0.1775795   0.0000000        16    1
   0.1538462   0.2663692   0.0000000        17    1
   0.1538462   0.3551590   0.0000000        18    1
   0.1538462   0.4439487   0.0000000        19    1
   0.1538462   0.5327385   0.0000000        20    1
   0.1538462  -0.0000000   0.0000000        21    1
   0.2307692   0.1331846   0.0000000        22    1
   0.2307692   0.2219744   0.0000000        23    1
   0.2307692   0.3107641   0.0000000        24    1
   0.2307692   0.3995538   0.0000000        25    1
   0.2307692   0.4883436   0.0000000        26    1
   0.2307692   0.5771333   0.0000000        27    1
   0.2307692  -0.0443949   0.0000000        28    1
   0.3076923   0.1775795   0.0000000        29    1
   0.3076923   0.2663692   0.0000000        30    1
   0.3076923   0.3551590   0.0000000        31    1
   0.3076923   0.4439487   0.0000000        32    1
   0.3076923   0.5327385   0.0000000        33    1
   0.3076923  -0.0887897   0.0000000        34    1
   0.3076923  -0.0000000   0.0000000        35    1
   0.3846154   0.2219744   0.0000000        36    1
   0.3846154   0.3107641   0.0000000        37    1
   0.3846154   0.3995538   0.0000000        38    1
   0.3846154   0.4883436   0.0000000        39    1
   0.3846154   0.5771333   0.0000000        40    1
   0.3846154  -0.1331846   0.0000000        41    1
   0.3846154  -0.0443949   0.0000000        42    1
   0.4615385   0.2663692   0.0000000        43    1
   0.4615385   0.3551590   0.0000000        44    1
   0.4615385   0.4439487   0.0000000        45    1
   0.4615385   0.5327385   0.0000000        46    1
   0.4615385  -0.1775795   0.0000000        47    1
   0.4615385  -0.0887897   0.0000000        48    1
   0.4615385  -0.0000000   0.0000000        49    1
  -0.0769231   0.0443949   0.0000000        50    1
  -0.0769231   0.1331846   0.0000000        51    1
  -0.0769231   0.2219744   0.0000000        52    1
  -0.0769231   0.3107641   0.0000000        53    1
  -0.0769231   0.3995538   0.0000000        54    1
  -0.0769231   0.4883436   0.0000000        55    1
  -0.1538462   0.0887897   0.0000000        56    1
  -0.1538462   0.1775795   0.0000000        57    1
  -0.1538462   0.2663692   0.0000000        58    1
  -0.1538462   0.3551590   0.0000000        59    1
  -0.1538462   0.4439487   0.0000000        60    1
  -0.1538462   0.5327385   0.0000000        61    1
  -0.2307692   0.1331846   0.0000000        62    1
  -0.2307692   0.2219744   0.0000000        63    1
  -0.2307692   0.3107641   0.0000000        64    1
  -0.2307692   0.3995538   0.0000000        65    1
  -0.2307692   0.4883436   0.0000000        66    1
  -0.2307692  -0.0443949   0.0000000        67    1
  -0.3076923   0.1775795   0.0000000        68    1
  -0.3076923   0.2663692   0.0000000        69    1
  -0.3076923   0.3551590   0.0000000        70    1
  -0.3076923   0.4439487   0.0000000        71    1
  -0.3076923   0.5327385   0.0000000        72    1
  -0.3076923  -0.0887897   0.0000000        73    1
  -0.3846154   0.2219744   0.0000000        74    1
  -0.3846154   0.3107641   0.0000000        75    1
  -0.3846154   0.3995538   0.0000000        76    1
  -0.3846154   0.4883436   0.0000000        77    1
  -0.3846154  -0.1331846   0.0000000        78    1
  -0.3846154  -0.0443949   0.0000000        79    1
  -0.4615385   0.2663692   0.0000000        80    1
  -0.4615385   0.3551590   0.0000000        81    1
  -0.4615385   0.4439487   0.0000000        82    1
  -0.4615385   0.5327385   0.0000000        83    1
  -0.4615385  -0.1775795   0.0000000        84    1
  -0.4615385  -0.0887897   0.0000000        85    1

     Parallelization info
     --------------------
     sticks:   dense  smooth     PW     G-vecs:    dense   smooth      PW
     Min          17      17      5                 2625     2625     387
     Max          18      18      6                 2664     2664     413
     Sum        1285    1285    367               190727   190727   28809

     Using Slab Decomposition



     bravais-lattice index     =            0
     lattice parameter (alat)  =       8.1456  a.u.
     unit-cell volume          =    2407.5243 (a.u.)^3
     number of atoms/cell      =            5
     number of atomic types    =            2
     number of electrons       =        78.00
     number of Kohn-Sham states=           60
     kinetic-energy cutoff     =      70.0000  Ry
     charge density cutoff     =     280.0000  Ry
     cutoff for Fock operator  =     280.0000  Ry
     Exchange-correlation= B3LYP-V1R
                           (   7  13   9   7   0   0   0)
     EXX-fraction              =        0.20

     celldm(1)=   8.145633  celldm(2)=   0.000000  celldm(3)=   0.000000
     celldm(4)=   0.000000  celldm(5)=   0.000000  celldm(6)=   0.000000

     crystal axes: (cart. coord. in units of alat)
               a(1) = (   1.000000   0.000000   0.000000 )  
               a(2) = (  -0.500000   0.866351   0.000000 )  
               a(3) = (   0.000000   0.000000   5.141647 )  

     reciprocal axes: (cart. coord. in units 2 pi/alat)
               b(1) = (  1.000000  0.577133 -0.000000 )  
               b(2) = (  0.000000  1.154267  0.000000 )  
               b(3) = (  0.000000 -0.000000  0.194490 )  


     PseudoPot. # 1 for Sb read from file:
     /zfs-home/202401017n/pseudos/Sb_ONCV_PBE-1.2.upf
     MD5 check sum: 0417cd6c0fe8ce4611e2b23135f1abd9
     Pseudo is Norm-conserving, Zval = 15.0
     Generated using ONCVPSP code by D. R. Hamann
     Using radial grid of  602 points,  6 beta functions with: 
                l(1) =   0
                l(2) =   0
                l(3) =   1
                l(4) =   1
                l(5) =   2
                l(6) =   2

     PseudoPot. # 2 for Te read from file:
     /zfs-home/202401017n/pseudos/Te_ONCV_PBE-1.2.upf
     MD5 check sum: dd4de4dac1e38587f63aaf3700bb29d3
     Pseudo is Norm-conserving, Zval = 16.0
     Generated using ONCVPSP code by D. R. Hamann
     Using radial grid of  602 points,  6 beta functions with: 
                l(1) =   0
                l(2) =   0
                l(3) =   1
                l(4) =   1
                l(5) =   2
                l(6) =   2

     atomic species   valence    mass     pseudopotential
     Sb               15.00   121.76000     Sb( 1.00)
     Te               16.00   127.60000     Te( 1.00)

     No symmetry found


                                    s                        frac. trans.

      isym =  1     identity                                     

 cryst.   s( 1) = (     1          0          0      )
                  (     0          1          0      )
                  (     0          0          1      )

 cart.    s( 1) = (  1.0000000  0.0000000  0.0000000 )
                  (  0.0000000  1.0000000  0.0000000 )
                  (  0.0000000  0.0000000  1.0000000 )


   Cartesian axes

     site n.     atom                  positions (alat units)
         1        Sb     tau(   1) = (   0.5750834   0.4224062   3.0359551  )
         2        Te     tau(   2) = (   0.5751339   0.4221290   1.7103276  )
         3        Sb     tau(   3) = (   0.0749290   0.1335764   2.1056524  )
         4        Te     tau(   4) = (   0.0751535   0.1333230   3.4312869  )
         5        Te     tau(   5) = (   0.0751717   0.7108473   2.5707967  )

     -------------------------------------------------
     Parameters for Dispersion (Grimme-D2) Correction:
     -------------------------------------------------
       atom      VdW radius       C_6     

        Sb         3.555       1333.532
        Te         3.575       1101.101

   Crystallographic axes

     site n.     atom                  positions (cryst. coord.)
         1        Sb     tau(   1) = (  0.8188681  0.4875694  0.5904636  )
         2        Te     tau(   2) = (  0.8187586  0.4872494  0.3326420  )
         3        Sb     tau(   3) = (  0.1520204  0.1541827  0.4095288  )
         4        Te     tau(   4) = (  0.1520986  0.1538903  0.6673517  )
         5        Te     tau(   5) = (  0.4854254  0.8205074  0.4999948  )

     number of k points=    85
                       cart. coord. in units 2pi/alat
        k(    1) = (   0.0000000   0.0000000   0.0000000), wk =   0.0118343
        k(    2) = (   0.0000000   0.0887897   0.0000000), wk =   0.0236686
        k(    3) = (   0.0000000   0.1775795   0.0000000), wk =   0.0236686
        k(    4) = (   0.0000000   0.2663692   0.0000000), wk =   0.0236686
        k(    5) = (   0.0000000   0.3551590   0.0000000), wk =   0.0236686
        k(    6) = (   0.0000000   0.4439487   0.0000000), wk =   0.0236686
        k(    7) = (   0.0000000   0.5327385   0.0000000), wk =   0.0236686
        k(    8) = (   0.0769231   0.0443949   0.0000000), wk =   0.0236686
        k(    9) = (   0.0769231   0.1331846   0.0000000), wk =   0.0236686
        k(   10) = (   0.0769231   0.2219744   0.0000000), wk =   0.0236686
        k(   11) = (   0.0769231   0.3107641   0.0000000), wk =   0.0236686
        k(   12) = (   0.0769231   0.3995538   0.0000000), wk =   0.0236686
        k(   13) = (   0.0769231   0.4883436   0.0000000), wk =   0.0236686
        k(   14) = (   0.0769231   0.5771333   0.0000000), wk =   0.0236686
        k(   15) = (   0.1538462   0.0887897   0.0000000), wk =   0.0236686
        k(   16) = (   0.1538462   0.1775795   0.0000000), wk =   0.0236686
        k(   17) = (   0.1538462   0.2663692   0.0000000), wk =   0.0236686
        k(   18) = (   0.1538462   0.3551590   0.0000000), wk =   0.0236686
        k(   19) = (   0.1538462   0.4439487   0.0000000), wk =   0.0236686
        k(   20) = (   0.1538462   0.5327385   0.0000000), wk =   0.0236686
        k(   21) = (   0.1538462  -0.0000000   0.0000000), wk =   0.0236686
        k(   22) = (   0.2307692   0.1331846   0.0000000), wk =   0.0236686
        k(   23) = (   0.2307692   0.2219744   0.0000000), wk =   0.0236686
        k(   24) = (   0.2307692   0.3107641   0.0000000), wk =   0.0236686
        k(   25) = (   0.2307692   0.3995538   0.0000000), wk =   0.0236686
        k(   26) = (   0.2307692   0.4883436   0.0000000), wk =   0.0236686
        k(   27) = (   0.2307692   0.5771333   0.0000000), wk =   0.0236686
        k(   28) = (   0.2307692  -0.0443949   0.0000000), wk =   0.0236686
        k(   29) = (   0.3076923   0.1775795   0.0000000), wk =   0.0236686
        k(   30) = (   0.3076923   0.2663692   0.0000000), wk =   0.0236686
        k(   31) = (   0.3076923   0.3551590   0.0000000), wk =   0.0236686
        k(   32) = (   0.3076923   0.4439487   0.0000000), wk =   0.0236686
        k(   33) = (   0.3076923   0.5327385   0.0000000), wk =   0.0236686
        k(   34) = (   0.3076923  -0.0887897   0.0000000), wk =   0.0236686
        k(   35) = (   0.3076923  -0.0000000   0.0000000), wk =   0.0236686
        k(   36) = (   0.3846154   0.2219744   0.0000000), wk =   0.0236686
        k(   37) = (   0.3846154   0.3107641   0.0000000), wk =   0.0236686
        k(   38) = (   0.3846154   0.3995538   0.0000000), wk =   0.0236686
        k(   39) = (   0.3846154   0.4883436   0.0000000), wk =   0.0236686
        k(   40) = (   0.3846154   0.5771333   0.0000000), wk =   0.0236686
        k(   41) = (   0.3846154  -0.1331846   0.0000000), wk =   0.0236686
        k(   42) = (   0.3846154  -0.0443949   0.0000000), wk =   0.0236686
        k(   43) = (   0.4615385   0.2663692   0.0000000), wk =   0.0236686
        k(   44) = (   0.4615385   0.3551590   0.0000000), wk =   0.0236686
        k(   45) = (   0.4615385   0.4439487   0.0000000), wk =   0.0236686
        k(   46) = (   0.4615385   0.5327385   0.0000000), wk =   0.0236686
        k(   47) = (   0.4615385  -0.1775795   0.0000000), wk =   0.0236686
        k(   48) = (   0.4615385  -0.0887897   0.0000000), wk =   0.0236686
        k(   49) = (   0.4615385  -0.0000000   0.0000000), wk =   0.0236686
        k(   50) = (  -0.0769231   0.0443949   0.0000000), wk =   0.0236686
        k(   51) = (  -0.0769231   0.1331846   0.0000000), wk =   0.0236686
        k(   52) = (  -0.0769231   0.2219744   0.0000000), wk =   0.0236686
        k(   53) = (  -0.0769231   0.3107641   0.0000000), wk =   0.0236686
        k(   54) = (  -0.0769231   0.3995538   0.0000000), wk =   0.0236686
        k(   55) = (  -0.0769231   0.4883436   0.0000000), wk =   0.0236686
        k(   56) = (  -0.1538462   0.0887897   0.0000000), wk =   0.0236686
        k(   57) = (  -0.1538462   0.1775795   0.0000000), wk =   0.0236686
        k(   58) = (  -0.1538462   0.2663692   0.0000000), wk =   0.0236686
        k(   59) = (  -0.1538462   0.3551590   0.0000000), wk =   0.0236686
        k(   60) = (  -0.1538462   0.4439487   0.0000000), wk =   0.0236686
        k(   61) = (  -0.1538462   0.5327385   0.0000000), wk =   0.0236686
        k(   62) = (  -0.2307692   0.1331846   0.0000000), wk =   0.0236686
        k(   63) = (  -0.2307692   0.2219744   0.0000000), wk =   0.0236686
        k(   64) = (  -0.2307692   0.3107641   0.0000000), wk =   0.0236686
        k(   65) = (  -0.2307692   0.3995538   0.0000000), wk =   0.0236686
        k(   66) = (  -0.2307692   0.4883436   0.0000000), wk =   0.0236686
        k(   67) = (  -0.2307692  -0.0443949   0.0000000), wk =   0.0236686
        k(   68) = (  -0.3076923   0.1775795   0.0000000), wk =   0.0236686
        k(   69) = (  -0.3076923   0.2663692   0.0000000), wk =   0.0236686
        k(   70) = (  -0.3076923   0.3551590   0.0000000), wk =   0.0236686
        k(   71) = (  -0.3076923   0.4439487   0.0000000), wk =   0.0236686
        k(   72) = (  -0.3076923   0.5327385   0.0000000), wk =   0.0236686
        k(   73) = (  -0.3076923  -0.0887897   0.0000000), wk =   0.0236686
        k(   74) = (  -0.3846154   0.2219744   0.0000000), wk =   0.0236686
        k(   75) = (  -0.3846154   0.3107641   0.0000000), wk =   0.0236686
        k(   76) = (  -0.3846154   0.3995538   0.0000000), wk =   0.0236686
        k(   77) = (  -0.3846154   0.4883436   0.0000000), wk =   0.0236686
        k(   78) = (  -0.3846154  -0.1331846   0.0000000), wk =   0.0236686
        k(   79) = (  -0.3846154  -0.0443949   0.0000000), wk =   0.0236686
        k(   80) = (  -0.4615385   0.2663692   0.0000000), wk =   0.0236686
        k(   81) = (  -0.4615385   0.3551590   0.0000000), wk =   0.0236686
        k(   82) = (  -0.4615385   0.4439487   0.0000000), wk =   0.0236686
        k(   83) = (  -0.4615385   0.5327385   0.0000000), wk =   0.0236686
        k(   84) = (  -0.4615385  -0.1775795   0.0000000), wk =   0.0236686
        k(   85) = (  -0.4615385  -0.0887897   0.0000000), wk =   0.0236686

                       cryst. coord.
        k(    1) = (   0.0000000   0.0000000   0.0000000), wk =   0.0118343
        k(    2) = (   0.0000000   0.0769231   0.0000000), wk =   0.0236686
        k(    3) = (   0.0000000   0.1538462   0.0000000), wk =   0.0236686
        k(    4) = (   0.0000000   0.2307692   0.0000000), wk =   0.0236686
        k(    5) = (   0.0000000   0.3076923   0.0000000), wk =   0.0236686
        k(    6) = (   0.0000000   0.3846154   0.0000000), wk =   0.0236686
        k(    7) = (   0.0000000   0.4615385   0.0000000), wk =   0.0236686
        k(    8) = (   0.0769231   0.0000000   0.0000000), wk =   0.0236686
        k(    9) = (   0.0769231   0.0769231   0.0000000), wk =   0.0236686
        k(   10) = (   0.0769231   0.1538462   0.0000000), wk =   0.0236686
        k(   11) = (   0.0769231   0.2307692   0.0000000), wk =   0.0236686
        k(   12) = (   0.0769231   0.3076923   0.0000000), wk =   0.0236686
        k(   13) = (   0.0769231   0.3846154   0.0000000), wk =   0.0236686
        k(   14) = (   0.0769231   0.4615385   0.0000000), wk =   0.0236686
        k(   15) = (   0.1538462   0.0000000   0.0000000), wk =   0.0236686
        k(   16) = (   0.1538462   0.0769231   0.0000000), wk =   0.0236686
        k(   17) = (   0.1538462   0.1538462   0.0000000), wk =   0.0236686
        k(   18) = (   0.1538462   0.2307692   0.0000000), wk =   0.0236686
        k(   19) = (   0.1538462   0.3076923   0.0000000), wk =   0.0236686
        k(   20) = (   0.1538462   0.3846154   0.0000000), wk =   0.0236686
        k(   21) = (   0.1538462  -0.0769231   0.0000000), wk =   0.0236686
        k(   22) = (   0.2307692   0.0000000   0.0000000), wk =   0.0236686
        k(   23) = (   0.2307692   0.0769231   0.0000000), wk =   0.0236686
        k(   24) = (   0.2307692   0.1538462   0.0000000), wk =   0.0236686
        k(   25) = (   0.2307692   0.2307692   0.0000000), wk =   0.0236686
        k(   26) = (   0.2307692   0.3076923   0.0000000), wk =   0.0236686
        k(   27) = (   0.2307692   0.3846154   0.0000000), wk =   0.0236686
        k(   28) = (   0.2307692  -0.1538462   0.0000000), wk =   0.0236686
        k(   29) = (   0.3076923   0.0000000   0.0000000), wk =   0.0236686
        k(   30) = (   0.3076923   0.0769231   0.0000000), wk =   0.0236686
        k(   31) = (   0.3076923   0.1538462   0.0000000), wk =   0.0236686
        k(   32) = (   0.3076923   0.2307692   0.0000000), wk =   0.0236686
        k(   33) = (   0.3076923   0.3076923   0.0000000), wk =   0.0236686
        k(   34) = (   0.3076923  -0.2307692   0.0000000), wk =   0.0236686
        k(   35) = (   0.3076923  -0.1538462   0.0000000), wk =   0.0236686
        k(   36) = (   0.3846154   0.0000000   0.0000000), wk =   0.0236686
        k(   37) = (   0.3846154   0.0769231   0.0000000), wk =   0.0236686
        k(   38) = (   0.3846154   0.1538462   0.0000000), wk =   0.0236686
        k(   39) = (   0.3846154   0.2307692   0.0000000), wk =   0.0236686
        k(   40) = (   0.3846154   0.3076923   0.0000000), wk =   0.0236686
        k(   41) = (   0.3846154  -0.3076923   0.0000000), wk =   0.0236686
        k(   42) = (   0.3846154  -0.2307692   0.0000000), wk =   0.0236686
        k(   43) = (   0.4615385   0.0000000   0.0000000), wk =   0.0236686
        k(   44) = (   0.4615385   0.0769231   0.0000000), wk =   0.0236686
        k(   45) = (   0.4615385   0.1538462   0.0000000), wk =   0.0236686
        k(   46) = (   0.4615385   0.2307692   0.0000000), wk =   0.0236686
        k(   47) = (   0.4615385  -0.3846154   0.0000000), wk =   0.0236686
        k(   48) = (   0.4615385  -0.3076923   0.0000000), wk =   0.0236686
        k(   49) = (   0.4615385  -0.2307692   0.0000000), wk =   0.0236686
        k(   50) = (  -0.0769231   0.0769231   0.0000000), wk =   0.0236686
        k(   51) = (  -0.0769231   0.1538462   0.0000000), wk =   0.0236686
        k(   52) = (  -0.0769231   0.2307692   0.0000000), wk =   0.0236686
        k(   53) = (  -0.0769231   0.3076923   0.0000000), wk =   0.0236686
        k(   54) = (  -0.0769231   0.3846154   0.0000000), wk =   0.0236686
        k(   55) = (  -0.0769231   0.4615385   0.0000000), wk =   0.0236686
        k(   56) = (  -0.1538462   0.1538462   0.0000000), wk =   0.0236686
        k(   57) = (  -0.1538462   0.2307692   0.0000000), wk =   0.0236686
        k(   58) = (  -0.1538462   0.3076923   0.0000000), wk =   0.0236686
        k(   59) = (  -0.1538462   0.3846154   0.0000000), wk =   0.0236686
        k(   60) = (  -0.1538462   0.4615385   0.0000000), wk =   0.0236686
        k(   61) = (  -0.1538462   0.5384615   0.0000000), wk =   0.0236686
        k(   62) = (  -0.2307692   0.2307692   0.0000000), wk =   0.0236686
        k(   63) = (  -0.2307692   0.3076923   0.0000000), wk =   0.0236686
        k(   64) = (  -0.2307692   0.3846154   0.0000000), wk =   0.0236686
        k(   65) = (  -0.2307692   0.4615385   0.0000000), wk =   0.0236686
        k(   66) = (  -0.2307692   0.5384615   0.0000000), wk =   0.0236686
        k(   67) = (  -0.2307692   0.0769231   0.0000000), wk =   0.0236686
        k(   68) = (  -0.3076923   0.3076923   0.0000000), wk =   0.0236686
        k(   69) = (  -0.3076923   0.3846154   0.0000000), wk =   0.0236686
        k(   70) = (  -0.3076923   0.4615385   0.0000000), wk =   0.0236686
        k(   71) = (  -0.3076923   0.5384615   0.0000000), wk =   0.0236686
        k(   72) = (  -0.3076923   0.6153846   0.0000000), wk =   0.0236686
        k(   73) = (  -0.3076923   0.0769231   0.0000000), wk =   0.0236686
        k(   74) = (  -0.3846154   0.3846154   0.0000000), wk =   0.0236686
        k(   75) = (  -0.3846154   0.4615385   0.0000000), wk =   0.0236686
        k(   76) = (  -0.3846154   0.5384615   0.0000000), wk =   0.0236686
        k(   77) = (  -0.3846154   0.6153846   0.0000000), wk =   0.0236686
        k(   78) = (  -0.3846154   0.0769231   0.0000000), wk =   0.0236686
        k(   79) = (  -0.3846154   0.1538462   0.0000000), wk =   0.0236686
        k(   80) = (  -0.4615385   0.4615385   0.0000000), wk =   0.0236686
        k(   81) = (  -0.4615385   0.5384615   0.0000000), wk =   0.0236686
        k(   82) = (  -0.4615385   0.6153846   0.0000000), wk =   0.0236686
        k(   83) = (  -0.4615385   0.6923077   0.0000000), wk =   0.0236686
        k(   84) = (  -0.4615385   0.0769231   0.0000000), wk =   0.0236686
        k(   85) = (  -0.4615385   0.1538462   0.0000000), wk =   0.0236686

     Dense  grid:   190727 G-vectors     FFT dimensions: (  45,  45, 225)

     Dynamical RAM for                 wfc:       0.30 MB

     Dynamical RAM for     wfc (w. buffer):       0.30 MB

     Dynamical RAM for                 EXX:     449.21 MB

     Dynamical RAM for           str. fact:       0.08 MB

     Dynamical RAM for           local pot:       0.00 MB

     Dynamical RAM for          nlocal pot:       0.45 MB

     Dynamical RAM for                qrad:       2.83 MB

     Dynamical RAM for          rho,v,vnew:       0.31 MB

     Dynamical RAM for           G-vectors:       0.17 MB

     Dynamical RAM for          h,s,v(r/c):       0.66 MB

     Dynamical RAM for          <psi|beta>:       0.08 MB

     Dynamical RAM for                 psi:       0.60 MB

     Dynamical RAM for                hpsi:       0.60 MB

     Dynamical RAM for      wfcinit/wfcrot:       0.69 MB

     Estimated static dynamical RAM per process >     453.79 MB

     Estimated max dynamical RAM per process >     455.74 MB

     Estimated total dynamical RAM >      32.04 GB
     EXX: initializing ACE and reading from file
     ACE potential read for       60 bands
     ACE potential read for       60 bands
     ACE potential read for       60 bands
     ACE potential read for       60 bands
     ACE potential read for       60 bands
     ACE potential read for       60 bands
     ACE potential read for       60 bands
     ACE potential read for       60 bands
     ACE potential read for       60 bands
     ACE potential read for       60 bands
     ACE potential read for       60 bands
     ACE potential read for       60 bands
     ACE potential read for       60 bands
     ACE potential read for       60 bands
     ACE potential read for       60 bands
     ACE potential read for       60 bands
     ACE potential read for       60 bands
     ACE potential read for       60 bands
     ACE potential read for       60 bands
     ACE potential read for       60 bands
     ACE potential read for       60 bands
     ACE potential read for       60 bands
     ACE potential read for       60 bands
     ACE potential read for       60 bands
     ACE potential read for       60 bands
     ACE potential read for       60 bands
     ACE potential read for       60 bands
     ACE potential read for       60 bands
     ACE potential read for       60 bands
     ACE potential read for       60 bands
     ACE potential read for       60 bands
     ACE potential read for       60 bands
     ACE potential read for       60 bands
     ACE potential read for       60 bands
     ACE potential read for       60 bands
     ACE potential read for       60 bands
     ACE potential read for       60 bands
     ACE potential read for       60 bands
     ACE potential read for       60 bands
     ACE potential read for       60 bands
     ACE potential read for       60 bands
     ACE potential read for       60 bands
     ACE potential read for       60 bands
     ACE potential read for       60 bands
     ACE potential read for       60 bands
     ACE potential read for       60 bands
     ACE potential read for       60 bands
     ACE potential read for       60 bands
     ACE potential read for       60 bands
     ACE potential read for       60 bands
     ACE potential read for       60 bands
     ACE potential read for       60 bands
     ACE potential read for       60 bands
     ACE potential read for       60 bands
     ACE potential read for       60 bands
     ACE potential read for       60 bands
     ACE potential read for       60 bands
     ACE potential read for       60 bands
     ACE potential read for       60 bands
     ACE potential read for       60 bands
     ACE potential read for       60 bands
     ACE potential read for       60 bands
     ACE potential read for       60 bands
     ACE potential read for       60 bands
     ACE potential read for       60 bands
     ACE potential read for       60 bands
     ACE potential read for       60 bands
     ACE potential read for       60 bands
     ACE potential read for       60 bands
     ACE potential read for       60 bands
     ACE potential read for       60 bands
     ACE potential read for       60 bands
     ACE potential read for       60 bands
     ACE potential read for       60 bands
     ACE potential read for       60 bands
     ACE potential read for       60 bands
     ACE potential read for       60 bands
     ACE potential read for       60 bands
     ACE potential read for       60 bands
     ACE potential read for       60 bands
     ACE potential read for       60 bands
     ACE potential read for       60 bands
     ACE potential read for       60 bands
     ACE potential read for       60 bands
     ACE potential read for       60 bands
     Starting ACE correctly read from file

     The potential is recalculated from file :
     tmp/Sb2Te3-uatsx-c1-0.0.save/charge-density

     Starting wfcs are random

     Band Structure Calculation
     Davidson diagonalization with overlap

     Computing kpt #:     1  of    85
     total cpu time spent up to now is       14.1 secs

     Computing kpt #:     2  of    85
     total cpu time spent up to now is       15.4 secs

     Computing kpt #:     3  of    85
     total cpu time spent up to now is       16.6 secs

     Computing kpt #:     4  of    85
     total cpu time spent up to now is       18.0 secs

     Computing kpt #:     5  of    85
     total cpu time spent up to now is       19.6 secs

     Computing kpt #:     6  of    85
     total cpu time spent up to now is       21.1 secs

     Computing kpt #:     7  of    85
     total cpu time spent up to now is       22.3 secs

     Computing kpt #:     8  of    85
     total cpu time spent up to now is       23.6 secs

     Computing kpt #:     9  of    85
     total cpu time spent up to now is       24.8 secs

     Computing kpt #:    10  of    85
     total cpu time spent up to now is       26.2 secs

     Computing kpt #:    11  of    85
     total cpu time spent up to now is       27.5 secs

     Computing kpt #:    12  of    85
     total cpu time spent up to now is       28.8 secs

     Computing kpt #:    13  of    85
     total cpu time spent up to now is       30.2 secs

     Computing kpt #:    14  of    85
     total cpu time spent up to now is       31.6 secs

     Computing kpt #:    15  of    85
     total cpu time spent up to now is       32.8 secs

     Computing kpt #:    16  of    85
     total cpu time spent up to now is       34.2 secs

     Computing kpt #:    17  of    85
     total cpu time spent up to now is       35.4 secs

     Computing kpt #:    18  of    85
     total cpu time spent up to now is       36.8 secs

     Computing kpt #:    19  of    85
     total cpu time spent up to now is       38.1 secs

     Computing kpt #:    20  of    85
     total cpu time spent up to now is       40.0 secs

     Computing kpt #:    21  of    85
     total cpu time spent up to now is       41.3 secs

     Computing kpt #:    22  of    85
     total cpu time spent up to now is       42.7 secs

     Computing kpt #:    23  of    85
     total cpu time spent up to now is       44.0 secs

     Computing kpt #:    24  of    85
     total cpu time spent up to now is       46.5 secs

     Computing kpt #:    25  of    85
     total cpu time spent up to now is       47.8 secs

     Computing kpt #:    26  of    85
     total cpu time spent up to now is       49.2 secs

     Computing kpt #:    27  of    85
     total cpu time spent up to now is       50.5 secs

     Computing kpt #:    28  of    85
     total cpu time spent up to now is       51.9 secs

     Computing kpt #:    29  of    85
     total cpu time spent up to now is       53.2 secs

     Computing kpt #:    30  of    85
     total cpu time spent up to now is       54.6 secs

     Computing kpt #:    31  of    85
     total cpu time spent up to now is       56.0 secs

     Computing kpt #:    32  of    85
     total cpu time spent up to now is       57.3 secs

     Computing kpt #:    33  of    85
     total cpu time spent up to now is       58.7 secs

     Computing kpt #:    34  of    85
     total cpu time spent up to now is       60.1 secs

     Computing kpt #:    35  of    85
     total cpu time spent up to now is       61.3 secs

     Computing kpt #:    36  of    85
     total cpu time spent up to now is       62.6 secs

     Computing kpt #:    37  of    85
     total cpu time spent up to now is       64.0 secs

     Computing kpt #:    38  of    85
     total cpu time spent up to now is       65.8 secs

     Computing kpt #:    39  of    85
     total cpu time spent up to now is       67.2 secs

     Computing kpt #:    40  of    85
     total cpu time spent up to now is       68.5 secs

     Computing kpt #:    41  of    85
     total cpu time spent up to now is       69.8 secs

     Computing kpt #:    42  of    85
     total cpu time spent up to now is       71.7 secs

     Computing kpt #:    43  of    85
     total cpu time spent up to now is       73.0 secs

     Computing kpt #:    44  of    85
     total cpu time spent up to now is       74.3 secs

     Computing kpt #:    45  of    85
     total cpu time spent up to now is       75.7 secs

     Computing kpt #:    46  of    85
     total cpu time spent up to now is       77.0 secs

     Computing kpt #:    47  of    85
     total cpu time spent up to now is       78.4 secs

     Computing kpt #:    48  of    85
     total cpu time spent up to now is       79.7 secs

     Computing kpt #:    49  of    85
     total cpu time spent up to now is       81.1 secs

     Computing kpt #:    50  of    85
     total cpu time spent up to now is       82.4 secs

     Computing kpt #:    51  of    85
     total cpu time spent up to now is       83.6 secs

     Computing kpt #:    52  of    85
     total cpu time spent up to now is       85.0 secs

     Computing kpt #:    53  of    85
     total cpu time spent up to now is       86.3 secs

     Computing kpt #:    54  of    85
     total cpu time spent up to now is       87.7 secs

     Computing kpt #:    55  of    85
     total cpu time spent up to now is       89.1 secs

     Computing kpt #:    56  of    85
     total cpu time spent up to now is       90.4 secs

     Computing kpt #:    57  of    85
     total cpu time spent up to now is       91.8 secs

     Computing kpt #:    58  of    85
     total cpu time spent up to now is       93.1 secs

     Computing kpt #:    59  of    85
     total cpu time spent up to now is       94.5 secs

     Computing kpt #:    60  of    85
     total cpu time spent up to now is       95.8 secs

     Computing kpt #:    61  of    85
     total cpu time spent up to now is       97.2 secs

     Computing kpt #:    62  of    85
     total cpu time spent up to now is       98.6 secs

     Computing kpt #:    63  of    85
     total cpu time spent up to now is      100.0 secs

     Computing kpt #:    64  of    85
     total cpu time spent up to now is      101.4 secs

     Computing kpt #:    65  of    85
     total cpu time spent up to now is      102.8 secs

     Computing kpt #:    66  of    85
     total cpu time spent up to now is      104.2 secs

     Computing kpt #:    67  of    85
     total cpu time spent up to now is      105.6 secs

     Computing kpt #:    68  of    85
     total cpu time spent up to now is      106.8 secs

     Computing kpt #:    69  of    85
     total cpu time spent up to now is      108.1 secs

     Computing kpt #:    70  of    85
     total cpu time spent up to now is      109.4 secs

     Computing kpt #:    71  of    85
     total cpu time spent up to now is      110.7 secs

     Computing kpt #:    72  of    85
     total cpu time spent up to now is      112.1 secs

     Computing kpt #:    73  of    85
     total cpu time spent up to now is      113.4 secs

     Computing kpt #:    74  of    85
     total cpu time spent up to now is      114.7 secs

     Computing kpt #:    75  of    85
     total cpu time spent up to now is      116.0 secs

     Computing kpt #:    76  of    85
     total cpu time spent up to now is      117.5 secs

     Computing kpt #:    77  of    85
     total cpu time spent up to now is      118.9 secs

     Computing kpt #:    78  of    85
     total cpu time spent up to now is      120.3 secs

     Computing kpt #:    79  of    85
     total cpu time spent up to now is      122.4 secs

     Computing kpt #:    80  of    85
     total cpu time spent up to now is      123.6 secs

     Computing kpt #:    81  of    85
     total cpu time spent up to now is      125.0 secs

     Computing kpt #:    82  of    85
     total cpu time spent up to now is      126.4 secs

     Computing kpt #:    83  of    85
     total cpu time spent up to now is      127.8 secs

     Computing kpt #:    84  of    85
     total cpu time spent up to now is      129.2 secs

     Computing kpt #:    85  of    85
     total cpu time spent up to now is      130.5 secs

     ethr =  1.28E-09,  avg # of iterations = 43.2

     total cpu time spent up to now is      131.9 secs

     End of band structure calculation

          k = 0.0000 0.0000 0.0000 ( 23771 PWs)   bands (ev):

   -35.4887 -35.4881 -35.4870 -35.4865 -35.4669 -35.4668 -35.4653 -35.4652
   -35.4446 -35.4430 -35.0198 -35.0197 -34.9970 -34.9868 -34.9868 -28.4026
   -28.4025 -28.4011 -28.4011 -28.3601 -28.3599 -28.3590 -28.3589 -28.3235
   -28.3225 -12.0492 -11.6019 -10.3351  -7.4765  -6.0315  -0.8181  -0.6677
    -0.6665  -0.4033  -0.4012   0.1221   0.6420   0.6436   0.9919   2.8367
     3.2523   3.2543   4.5104   4.5123   4.7110   6.6742   6.9121   7.7097
     8.4034   9.0249   9.1407   9.1450   9.8229   9.8816  10.3495  10.3538
    10.8879  11.0688  11.0717  11.1191

     occupation numbers 
     1.0000   1.0000   1.0000   1.0000   1.0000   1.0000   1.0000   1.0000
     1.0000   1.0000   1.0000   1.0000   1.0000   1.0000   1.0000   1.0000
     1.0000   1.0000   1.0000   1.0000   1.0000   1.0000   1.0000   1.0000
     1.0000   1.0000   1.0000   1.0000   1.0000   1.0000   1.0000   1.0000
     1.0000   1.0000   1.0000   1.0000   1.0000   1.0000   1.0000   0.0000
     0.0000   0.0000   0.0000   0.0000   0.0000   0.0000   0.0000   0.0000
     0.0000   0.0000   0.0000   0.0000   0.0000   0.0000   0.0000   0.0000
     0.0000   0.0000   0.0000   0.0000

          k = 0.0000 0.0888 0.0000 ( 23755 PWs)   bands (ev):

   -35.4911 -35.4891 -35.4866 -35.4854 -35.4689 -35.4674 -35.4603 -35.4587
   -35.4381 -35.4365 -35.0261 -35.0173 -35.0061 -34.9801 -34.9758 -28.3953
   -28.3951 -28.3938 -28.3938 -28.3641 -28.3628 -28.3543 -28.3533 -28.3261
   -28.3250 -11.9847 -11.5373 -10.3028  -7.5014  -6.1390  -1.2172  -0.9407
    -0.8585  -0.6261  -0.4778  -0.0787   0.7026   0.7657   1.3712   2.9591
     3.3409   3.3465   4.4596   4.6057   4.9878   6.7605   6.9695   7.8092
     8.3298   8.7112   9.2297   9.2440   9.7327   9.9255  10.2248  10.3412
    10.8044  11.2753  11.2995  11.6732

     occupation numbers 
     1.0000   1.0000   1.0000   1.0000   1.0000   1.0000   1.0000   1.0000
     1.0000   1.0000   1.0000   1.0000   1.0000   1.0000   1.0000   1.0000
     1.0000   1.0000   1.0000   1.0000   1.0000   1.0000   1.0000   1.0000
     1.0000   1.0000   1.0000   1.0000   1.0000   1.0000   1.0000   1.0000
     1.0000   1.0000   1.0000   1.0000   1.0000   1.0000   1.0000   0.0000
     0.0000   0.0000   0.0000   0.0000   0.0000   0.0000   0.0000   0.0000
     0.0000   0.0000   0.0000   0.0000   0.0000   0.0000   0.0000   0.0000
     0.0000   0.0000   0.0000   0.0000

          k = 0.0000 0.1776 0.0000 ( 23741 PWs)   bands (ev):

   -35.4794 -35.4773 -35.4711 -35.4696 -35.4482 -35.4469 -35.4446 -35.4429
   -35.4200 -35.4183 -35.0202 -35.0078 -35.0018 -34.9741 -34.9702 -28.3906
   -28.3892 -28.3883 -28.3868 -28.3678 -28.3666 -28.3531 -28.3519 -28.3374
   -28.3364 -11.8033 -11.3455 -10.1961  -7.5703  -6.4214  -2.0625  -1.3387
    -1.2312  -1.0600  -0.7026  -0.4724   0.7685   1.0483   1.4007   3.1439
     3.5294   3.6498   4.8043   4.8553   5.3871   6.9780   7.1293   7.8940
     8.0980   8.6396   9.3488   9.5286   9.6187   9.7551  10.5223  10.5280
    10.6192  11.4616  11.7347  11.9497

     occupation numbers 
     1.0000   1.0000   1.0000   1.0000   1.0000   1.0000   1.0000   1.0000
     1.0000   1.0000   1.0000   1.0000   1.0000   1.0000   1.0000   1.0000
     1.0000   1.0000   1.0000   1.0000   1.0000   1.0000   1.0000   1.0000
     1.0000   1.0000   1.0000   1.0000   1.0000   1.0000   1.0000   1.0000
     1.0000   1.0000   1.0000   1.0000   1.0000   1.0000   1.0000   0.0000
     0.0000   0.0000   0.0000   0.0000   0.0000   0.0000   0.0000   0.0000
     0.0000   0.0000   0.0000   0.0000   0.0000   0.0000   0.0000   0.0000
     0.0000   0.0000   0.0000   0.0000

          k = 0.0000 0.2664 0.0000 ( 23781 PWs)   bands (ev):

   -35.4722 -35.4701 -35.4622 -35.4605 -35.4357 -35.4351 -35.4345 -35.4334
   -35.4104 -35.4087 -35.0088 -34.9941 -34.9906 -34.9618 -34.9577 -28.3877
   -28.3861 -28.3818 -28.3803 -28.3676 -28.3664 -28.3528 -28.3516 -28.3365
   -28.3354 -11.5306 -11.1030 -10.0524  -7.6876  -6.8382  -2.7950  -1.8255
    -1.5967  -1.5193  -0.9804  -0.4525   0.4364   0.7492   1.5341   3.1465
     3.7001   4.0206   5.1608   5.1774   5.8455   7.1125   7.2993   7.7368
     8.3491   8.8898   9.3767   9.7008   9.8863  10.0178  10.7372  10.8322
    10.9881  11.5014  11.6303  12.4754

     occupation numbers 
     1.0000   1.0000   1.0000   1.0000   1.0000   1.0000   1.0000   1.0000
     1.0000   1.0000   1.0000   1.0000   1.0000   1.0000   1.0000   1.0000
     1.0000   1.0000   1.0000   1.0000   1.0000   1.0000   1.0000   1.0000
     1.0000   1.0000   1.0000   1.0000   1.0000   1.0000   1.0000   1.0000
     1.0000   1.0000   1.0000   1.0000   1.0000   1.0000   1.0000   0.0000
     0.0000   0.0000   0.0000   0.0000   0.0000   0.0000   0.0000   0.0000
     0.0000   0.0000   0.0000   0.0000   0.0000   0.0000   0.0000   0.0000
     0.0000   0.0000   0.0000   0.0000

          k = 0.0000 0.3552 0.0000 ( 23839 PWs)   bands (ev):

   -35.4650 -35.4629 -35.4543 -35.4526 -35.4266 -35.4249 -35.4246 -35.4234
   -35.4001 -35.3985 -35.0020 -34.9878 -34.9774 -34.9471 -34.9404 -28.3875
   -28.3859 -28.3788 -28.3774 -28.3678 -28.3666 -28.3564 -28.3553 -28.3368
   -28.3357 -11.1762 -10.8015  -9.9131  -7.9262  -7.3080  -3.3557  -2.3268
    -1.8977  -1.6935  -1.2313  -0.6914   0.2683   0.6795   1.2985   3.2195
     3.7918   3.9988   5.3791   5.4759   6.2894   6.8064   7.7212   7.9403
     8.5949   9.0470   9.7220  10.0545  10.2940  10.7548  10.8877  11.1325
    11.4736  11.5118  11.8589  12.1996

     occupation numbers 
     1.0000   1.0000   1.0000   1.0000   1.0000   1.0000   1.0000   1.0000
     1.0000   1.0000   1.0000   1.0000   1.0000   1.0000   1.0000   1.0000
     1.0000   1.0000   1.0000   1.0000   1.0000   1.0000   1.0000   1.0000
     1.0000   1.0000   1.0000   1.0000   1.0000   1.0000   1.0000   1.0000
     1.0000   1.0000   1.0000   1.0000   1.0000   1.0000   1.0000   0.0000
     0.0000   0.0000   0.0000   0.0000   0.0000   0.0000   0.0000   0.0000
     0.0000   0.0000   0.0000   0.0000   0.0000   0.0000   0.0000   0.0000
     0.0000   0.0000   0.0000   0.0000

          k = 0.0000 0.4439 0.0000 ( 23831 PWs)   bands (ev):

   -35.4584 -35.4562 -35.4465 -35.4448 -35.4244 -35.4227 -35.4191 -35.4179
   -35.3980 -35.3964 -35.0004 -34.9879 -34.9722 -34.9389 -34.9304 -28.3860
   -28.3843 -28.3760 -28.3747 -28.3666 -28.3654 -28.3555 -28.3544 -28.3352
   -28.3341 -10.7699 -10.4871  -9.8635  -8.2647  -7.7101  -3.7342  -2.5643
    -2.1086  -1.9174  -1.4142  -0.9362   0.3273   0.6042   1.0131   3.2352
     3.8212   3.8547   5.5349   5.6832   6.3923   6.6627   7.9228   8.3638
     8.8775   9.4159  10.1339  10.2313  10.4472  11.0270  11.1916  11.4607
    11.7310  11.8123  12.0528  12.1506

     occupation numbers 
     1.0000   1.0000   1.0000   1.0000   1.0000   1.0000   1.0000   1.0000
     1.0000   1.0000   1.0000   1.0000   1.0000   1.0000   1.0000   1.0000
     1.0000   1.0000   1.0000   1.0000   1.0000   1.0000   1.0000   1.0000
     1.0000   1.0000   1.0000   1.0000   1.0000   1.0000   1.0000   1.0000
     1.0000   1.0000   1.0000   1.0000   1.0000   1.0000   1.0000   0.0000
     0.0000   0.0000   0.0000   0.0000   0.0000   0.0000   0.0000   0.0000
     0.0000   0.0000   0.0000   0.0000   0.0000   0.0000   0.0000   0.0000
     0.0000   0.0000   0.0000   0.0000

          k = 0.0000 0.5327 0.0000 ( 23850 PWs)   bands (ev):

   -35.4549 -35.4527 -35.4421 -35.4403 -35.4247 -35.4230 -35.4169 -35.4158
   -35.4000 -35.3984 -35.0009 -34.9898 -34.9717 -34.9357 -34.9264 -28.3841
   -28.3824 -28.3739 -28.3726 -28.3652 -28.3639 -28.3531 -28.3520 -28.3326
   -28.3316 -10.3718 -10.2589  -9.9793  -8.5349  -7.9483  -3.9329  -2.5417
    -2.2166  -2.2052  -1.5097  -0.9942   0.3463   0.5579   0.8631   3.1543
     3.8248   3.8379   5.5647   5.7833   6.3835   6.5698   8.0476   8.9512
     9.2547   9.5796   9.8558  10.0285  10.5720  10.6752  11.2229  11.8547
    11.9966  12.4076  12.4630  12.7520

     occupation numbers 
     1.0000   1.0000   1.0000   1.0000   1.0000   1.0000   1.0000   1.0000
     1.0000   1.0000   1.0000   1.0000   1.0000   1.0000   1.0000   1.0000
     1.0000   1.0000   1.0000   1.0000   1.0000   1.0000   1.0000   1.0000
     1.0000   1.0000   1.0000   1.0000   1.0000   1.0000   1.0000   1.0000
     1.0000   1.0000   1.0000   1.0000   1.0000   1.0000   1.0000   0.0000
     0.0000   0.0000   0.0000   0.0000   0.0000   0.0000   0.0000   0.0000
     0.0000   0.0000   0.0000   0.0000   0.0000   0.0000   0.0000   0.0000
     0.0000   0.0000   0.0000   0.0000

          k = 0.0769 0.0444 0.0000 ( 23753 PWs)   bands (ev):

   -35.4909 -35.4894 -35.4868 -35.4852 -35.4689 -35.4673 -35.4603 -35.4587
   -35.4381 -35.4365 -35.0260 -35.0174 -35.0061 -34.9800 -34.9758 -28.3953
   -28.3951 -28.3938 -28.3937 -28.3640 -28.3628 -28.3544 -28.3532 -28.3260
   -28.3250 -11.9847 -11.5373 -10.3027  -7.5013  -6.1389  -1.2171  -0.9385
    -0.8597  -0.6259  -0.4795  -0.0783   0.7014   0.7657   1.3717   2.9576
     3.3404   3.3484   4.4594   4.6043   4.9894   6.7606   6.9695   7.8093
     8.3300   8.7123   9.2302   9.2407   9.7336   9.9263  10.2264  10.3381
    10.8039  11.2731  11.3006  11.6762

     occupation numbers 
     1.0000   1.0000   1.0000   1.0000   1.0000   1.0000   1.0000   1.0000
     1.0000   1.0000   1.0000   1.0000   1.0000   1.0000   1.0000   1.0000
     1.0000   1.0000   1.0000   1.0000   1.0000   1.0000   1.0000   1.0000
     1.0000   1.0000   1.0000   1.0000   1.0000   1.0000   1.0000   1.0000
     1.0000   1.0000   1.0000   1.0000   1.0000   1.0000   1.0000   0.0000
     0.0000   0.0000   0.0000   0.0000   0.0000   0.0000   0.0000   0.0000
     0.0000   0.0000   0.0000   0.0000   0.0000   0.0000   0.0000   0.0000
     0.0000   0.0000   0.0000   0.0000

          k = 0.0769 0.1332 0.0000 ( 23761 PWs)   bands (ev):

   -35.4900 -35.4882 -35.4744 -35.4728 -35.4558 -35.4545 -35.4497 -35.4482
   -35.4269 -35.4253 -35.0216 -35.0155 -35.0093 -34.9711 -34.9706 -28.3923
   -28.3910 -28.3870 -28.3855 -28.3657 -28.3646 -28.3520 -28.3509 -28.3333
   -28.3322 -11.8621 -11.4085 -10.2328  -7.5483  -6.3320  -1.7644  -1.3637
    -1.1159  -0.9742  -0.5804  -0.2544   0.4974   1.2980   1.3542   3.1463
     3.4378   3.5162   4.6162   4.8639   5.2574   6.9129   7.0867   7.9855
     8.1924   8.3725   9.3289   9.5030   9.7271   9.8069  10.1478  10.4097
    11.0072  11.3810  11.6545  11.9642

     occupation numbers 
     1.0000   1.0000   1.0000   1.0000   1.0000   1.0000   1.0000   1.0000
     1.0000   1.0000   1.0000   1.0000   1.0000   1.0000   1.0000   1.0000
     1.0000   1.0000   1.0000   1.0000   1.0000   1.0000   1.0000   1.0000
     1.0000   1.0000   1.0000   1.0000   1.0000   1.0000   1.0000   1.0000
     1.0000   1.0000   1.0000   1.0000   1.0000   1.0000   1.0000   0.0000
     0.0000   0.0000   0.0000   0.0000   0.0000   0.0000   0.0000   0.0000
     0.0000   0.0000   0.0000   0.0000   0.0000   0.0000   0.0000   0.0000
     0.0000   0.0000   0.0000   0.0000

          k = 0.0769 0.2220 0.0000 ( 23778 PWs)   bands (ev):

   -35.4764 -35.4744 -35.4671 -35.4656 -35.4410 -35.4397 -35.4374 -35.4360
   -35.4131 -35.4116 -35.0128 -35.0031 -35.0003 -34.9623 -34.9615 -28.3898
   -28.3886 -28.3812 -28.3799 -28.3639 -28.3628 -28.3533 -28.3522 -28.3404
   -28.3393 -11.6364 -11.1958 -10.1064  -7.6348  -6.6847  -2.4400  -1.9193
    -1.4910  -1.2421  -0.9126  -0.4650   0.4902   1.0332   1.5264   3.2727
     3.4782   3.9701   4.7915   5.3677   5.6167   7.1646   7.2644   7.8299
     8.2607   8.4093   9.3901   9.5534   9.6592  10.1567  10.5118  10.6537
    11.1676  11.3642  11.9607  12.1781

     occupation numbers 
     1.0000   1.0000   1.0000   1.0000   1.0000   1.0000   1.0000   1.0000
     1.0000   1.0000   1.0000   1.0000   1.0000   1.0000   1.0000   1.0000
     1.0000   1.0000   1.0000   1.0000   1.0000   1.0000   1.0000   1.0000
     1.0000   1.0000   1.0000   1.0000   1.0000   1.0000   1.0000   1.0000
     1.0000   1.0000   1.0000   1.0000   1.0000   1.0000   1.0000   0.0000
     0.0000   0.0000   0.0000   0.0000   0.0000   0.0000   0.0000   0.0000
     0.0000   0.0000   0.0000   0.0000   0.0000   0.0000   0.0000   0.0000
     0.0000   0.0000   0.0000   0.0000

          k = 0.0769 0.3108 0.0000 ( 23811 PWs)   bands (ev):

   -35.4673 -35.4652 -35.4565 -35.4548 -35.4310 -35.4295 -35.4279 -35.4265
   -35.4049 -35.4034 -35.0041 -34.9920 -34.9873 -34.9481 -34.9464 -28.3876
   -28.3862 -28.3785 -28.3771 -28.3656 -28.3644 -28.3563 -28.3552 -28.3396
   -28.3385 -11.3229 -10.9224  -9.9592  -7.8085  -7.1373  -3.0681  -2.3215
    -1.7831  -1.6047  -1.2882  -0.5685   0.4660   0.6539   1.4810   3.4266
     3.5672   4.0221   5.1637   5.6036   6.0875   7.0967   7.5440   7.8778
     8.4950   8.8629   9.1058   9.8860   9.9497  10.8058  10.8516  10.9494
    11.2251  11.6196  12.1772  12.3448

     occupation numbers 
     1.0000   1.0000   1.0000   1.0000   1.0000   1.0000   1.0000   1.0000
     1.0000   1.0000   1.0000   1.0000   1.0000   1.0000   1.0000   1.0000
     1.0000   1.0000   1.0000   1.0000   1.0000   1.0000   1.0000   1.0000
     1.0000   1.0000   1.0000   1.0000   1.0000   1.0000   1.0000   1.0000
     1.0000   1.0000   1.0000   1.0000   1.0000   1.0000   1.0000   0.0000
     0.0000   0.0000   0.0000   0.0000   0.0000   0.0000   0.0000   0.0000
     0.0000   0.0000   0.0000   0.0000   0.0000   0.0000   0.0000   0.0000
     0.0000   0.0000   0.0000   0.0000

          k = 0.0769 0.3996 0.0000 ( 23845 PWs)   bands (ev):

   -35.4593 -35.4571 -35.4482 -35.4465 -35.4261 -35.4244 -35.4216 -35.4205
   -35.4007 -35.3992 -34.9999 -34.9892 -34.9788 -34.9386 -34.9343 -28.3858
   -28.3843 -28.3752 -28.3738 -28.3648 -28.3636 -28.3565 -28.3554 -28.3377
   -28.3366 -10.9409 -10.6099  -9.8563  -8.1006  -7.5861  -3.5360  -2.5304
    -2.1578  -1.9029  -1.4076  -0.7973   0.3076   0.5886   1.2921   3.4608
     3.5888   4.0034   5.4187   5.7686   6.3826   6.8387   7.9340   8.1422
     8.7520   9.1819   9.5993  10.2010  10.3100  10.7404  11.0837  11.4537
    11.4976  11.9562  12.1052  12.2253

     occupation numbers 
     1.0000   1.0000   1.0000   1.0000   1.0000   1.0000   1.0000   1.0000
     1.0000   1.0000   1.0000   1.0000   1.0000   1.0000   1.0000   1.0000
     1.0000   1.0000   1.0000   1.0000   1.0000   1.0000   1.0000   1.0000
     1.0000   1.0000   1.0000   1.0000   1.0000   1.0000   1.0000   1.0000
     1.0000   1.0000   1.0000   1.0000   1.0000   1.0000   1.0000   0.0000
     0.0000   0.0000   0.0000   0.0000   0.0000   0.0000   0.0000   0.0000
     0.0000   0.0000   0.0000   0.0000   0.0000   0.0000   0.0000   0.0000
     0.0000   0.0000   0.0000   0.0000

          k = 0.0769 0.4883 0.0000 ( 23825 PWs)   bands (ev):

   -35.4543 -35.4521 -35.4426 -35.4408 -35.4236 -35.4219 -35.4182 -35.4172
   -35.4001 -35.3986 -34.9982 -34.9895 -34.9758 -34.9329 -34.9268 -28.3844
   -28.3828 -28.3730 -28.3716 -28.3635 -28.3624 -28.3553 -28.3543 -28.3360
   -28.3350 -10.5276 -10.3234  -9.8765  -8.4313  -7.9175  -3.8238  -2.5683
    -2.4154  -2.1110  -1.5060  -1.0018   0.2926   0.5511   1.1050   3.4940
     3.5457   3.9189   5.6155   5.8136   6.4585   6.7084   8.0461   8.6942
     9.0790   9.6493   9.9419  10.0213  10.5710  10.8209  11.1456  11.2322
    11.7194  11.9170  12.3283  12.6898

     occupation numbers 
     1.0000   1.0000   1.0000   1.0000   1.0000   1.0000   1.0000   1.0000
     1.0000   1.0000   1.0000   1.0000   1.0000   1.0000   1.0000   1.0000
     1.0000   1.0000   1.0000   1.0000   1.0000   1.0000   1.0000   1.0000
     1.0000   1.0000   1.0000   1.0000   1.0000   1.0000   1.0000   1.0000
     1.0000   1.0000   1.0000   1.0000   1.0000   1.0000   1.0000   0.0000
     0.0000   0.0000   0.0000   0.0000   0.0000   0.0000   0.0000   0.0000
     0.0000   0.0000   0.0000   0.0000   0.0000   0.0000   0.0000   0.0000
     0.0000   0.0000   0.0000   0.0000

          k = 0.0769 0.5771 0.0000 ( 23828 PWs)   bands (ev):

   -35.4527 -35.4505 -35.4405 -35.4387 -35.4225 -35.4208 -35.4176 -35.4165
   -35.4005 -35.3989 -34.9977 -34.9901 -34.9752 -34.9310 -34.9243 -28.3837
   -28.3820 -28.3722 -28.3709 -28.3630 -28.3618 -28.3546 -28.3536 -28.3352
   -28.3342 -10.2323 -10.1947 -10.0181  -8.5849  -8.0442  -3.9222  -2.5804
    -2.4370  -2.2282  -1.5775  -1.0539   0.3444   0.4875   1.0372   3.4551
     3.6011   3.8478   5.6940   5.8159   6.5381   6.5677   8.1326   9.1672
     9.3970   9.4776   9.6753  10.2619  10.4251  10.5833  11.2172  11.7969
    11.8594  12.1662  12.4636  12.6214

     occupation numbers 
     1.0000   1.0000   1.0000   1.0000   1.0000   1.0000   1.0000   1.0000
     1.0000   1.0000   1.0000   1.0000   1.0000   1.0000   1.0000   1.0000
     1.0000   1.0000   1.0000   1.0000   1.0000   1.0000   1.0000   1.0000
     1.0000   1.0000   1.0000   1.0000   1.0000   1.0000   1.0000   1.0000
     1.0000   1.0000   1.0000   1.0000   1.0000   1.0000   1.0000   0.0000
     0.0000   0.0000   0.0000   0.0000   0.0000   0.0000   0.0000   0.0000
     0.0000   0.0000   0.0000   0.0000   0.0000   0.0000   0.0000   0.0000
     0.0000   0.0000   0.0000   0.0000

          k = 0.1538 0.0888 0.0000 ( 23745 PWs)   bands (ev):

   -35.4791 -35.4776 -35.4712 -35.4696 -35.4482 -35.4467 -35.4446 -35.4430
   -35.4199 -35.4184 -35.0201 -35.0079 -35.0017 -34.9741 -34.9702 -28.3906
   -28.3892 -28.3883 -28.3869 -28.3677 -28.3666 -28.3531 -28.3520 -28.3374
   -28.3364 -11.8032 -11.3454 -10.1959  -7.5701  -6.4214  -2.0620  -1.3374
    -1.2328  -1.0587  -0.7046  -0.4731   0.7673   1.0478   1.4011   3.1418
     3.5291   3.6509   4.8031   4.8541   5.3900   6.9781   7.1295   7.8945
     8.0982   8.6398   9.3491   9.5257   9.6191   9.7566  10.5231  10.5256
    10.6184  11.4591  11.7371  11.9521

     occupation numbers 
     1.0000   1.0000   1.0000   1.0000   1.0000   1.0000   1.0000   1.0000
     1.0000   1.0000   1.0000   1.0000   1.0000   1.0000   1.0000   1.0000
     1.0000   1.0000   1.0000   1.0000   1.0000   1.0000   1.0000   1.0000
     1.0000   1.0000   1.0000   1.0000   1.0000   1.0000   1.0000   1.0000
     1.0000   1.0000   1.0000   1.0000   1.0000   1.0000   1.0000   0.0000
     0.0000   0.0000   0.0000   0.0000   0.0000   0.0000   0.0000   0.0000
     0.0000   0.0000   0.0000   0.0000   0.0000   0.0000   0.0000   0.0000
     0.0000   0.0000   0.0000   0.0000

          k = 0.1538 0.1776 0.0000 ( 23774 PWs)   bands (ev):

   -35.4762 -35.4746 -35.4671 -35.4656 -35.4411 -35.4394 -35.4374 -35.4363
   -35.4131 -35.4116 -35.0127 -35.0031 -35.0003 -34.9623 -34.9615 -28.3898
   -28.3886 -28.3812 -28.3799 -28.3639 -28.3628 -28.3533 -28.3522 -28.3404
   -28.3393 -11.6363 -11.1957 -10.1062  -7.6345  -6.6847  -2.4396  -1.9196
    -1.4899  -1.2438  -0.9124  -0.4662   0.4898   1.0333   1.5259   3.2732
     3.4765   3.9704   4.7923   5.3639   5.6203   7.1647   7.2646   7.8304
     8.2608   8.4093   9.3904   9.5540   9.6594  10.1541  10.5117  10.6546
    11.1658  11.3652  11.9613  12.1774

     occupation numbers 
     1.0000   1.0000   1.0000   1.0000   1.0000   1.0000   1.0000   1.0000
     1.0000   1.0000   1.0000   1.0000   1.0000   1.0000   1.0000   1.0000
     1.0000   1.0000   1.0000   1.0000   1.0000   1.0000   1.0000   1.0000
     1.0000   1.0000   1.0000   1.0000   1.0000   1.0000   1.0000   1.0000
     1.0000   1.0000   1.0000   1.0000   1.0000   1.0000   1.0000   0.0000
     0.0000   0.0000   0.0000   0.0000   0.0000   0.0000   0.0000   0.0000
     0.0000   0.0000   0.0000   0.0000   0.0000   0.0000   0.0000   0.0000
     0.0000   0.0000   0.0000   0.0000

          k = 0.1538 0.2664 0.0000 ( 23783 PWs)   bands (ev):

   -35.4690 -35.4672 -35.4622 -35.4607 -35.4329 -35.4312 -35.4256 -35.4245
   -35.3998 -35.3984 -35.0104 -34.9996 -34.9941 -34.9451 -34.9446 -28.3880
   -28.3869 -28.3768 -28.3757 -28.3611 -28.3601 -28.3557 -28.3545 -28.3439
   -28.3428 -11.3706 -10.9572  -9.9779  -7.7704  -7.0795  -2.7348  -2.6293
    -1.7372  -1.5547  -1.2200  -0.7495   0.5013   1.1620   1.2773   3.3501
     3.8279   3.9002   4.9568   5.8304   5.9156   7.4218   7.5051   7.8769
     8.1813   8.6092   9.0518   9.5572   9.9532  10.7085  10.9019  10.9791
    11.3127  11.8003  12.1478  12.2211

     occupation numbers 
     1.0000   1.0000   1.0000   1.0000   1.0000   1.0000   1.0000   1.0000
     1.0000   1.0000   1.0000   1.0000   1.0000   1.0000   1.0000   1.0000
     1.0000   1.0000   1.0000   1.0000   1.0000   1.0000   1.0000   1.0000
     1.0000   1.0000   1.0000   1.0000   1.0000   1.0000   1.0000   1.0000
     1.0000   1.0000   1.0000   1.0000   1.0000   1.0000   1.0000   0.0000
     0.0000   0.0000   0.0000   0.0000   0.0000   0.0000   0.0000   0.0000
     0.0000   0.0000   0.0000   0.0000   0.0000   0.0000   0.0000   0.0000
     0.0000   0.0000   0.0000   0.0000

          k = 0.1538 0.3552 0.0000 ( 23813 PWs)   bands (ev):

   -35.4591 -35.4571 -35.4514 -35.4498 -35.4295 -35.4277 -35.4202 -35.4191
   -35.3979 -35.3967 -35.0049 -34.9967 -34.9869 -34.9362 -34.9357 -28.3834
   -28.3822 -28.3736 -28.3725 -28.3593 -28.3582 -28.3543 -28.3532 -28.3417
   -28.3407 -11.0277 -10.6671  -9.8588  -7.9914  -7.5357  -3.2322  -2.8355
    -2.1140  -1.8411  -1.5333  -0.9380   0.5490   0.7929   1.3047   3.4423
     3.8809   3.9597   5.2749   6.0079   6.2134   7.3785   7.8661   8.1118
     8.4931   8.8723   9.0703   9.7486  10.2191  10.6185  11.1648  11.2815
    11.6506  12.0351  12.3495  12.6052

     occupation numbers 
     1.0000   1.0000   1.0000   1.0000   1.0000   1.0000   1.0000   1.0000
     1.0000   1.0000   1.0000   1.0000   1.0000   1.0000   1.0000   1.0000
     1.0000   1.0000   1.0000   1.0000   1.0000   1.0000   1.0000   1.0000
     1.0000   1.0000   1.0000   1.0000   1.0000   1.0000   1.0000   1.0000
     1.0000   1.0000   1.0000   1.0000   1.0000   1.0000   1.0000   0.0000
     0.0000   0.0000   0.0000   0.0000   0.0000   0.0000   0.0000   0.0000
     0.0000   0.0000   0.0000   0.0000   0.0000   0.0000   0.0000   0.0000
     0.0000   0.0000   0.0000   0.0000

          k = 0.1538 0.4439 0.0000 ( 23820 PWs)   bands (ev):

   -35.4531 -35.4511 -35.4456 -35.4440 -35.4272 -35.4254 -35.4161 -35.4151
   -35.3990 -35.3976 -35.0002 -34.9945 -34.9835 -34.9329 -34.9308 -28.3795
   -28.3781 -28.3701 -28.3688 -28.3565 -28.3554 -28.3529 -28.3518 -28.3379
   -28.3368 -10.6317 -10.3664  -9.8054  -8.2997  -7.9404  -3.6082  -2.8722
    -2.3618  -2.2389  -1.5880  -1.1213   0.3571   0.6857   1.2907   3.3591
     3.9637   4.0332   5.4367   6.0884   6.4493   7.1874   8.2096   8.5035
     8.9831   9.1816   9.6151   9.8925  10.4455  10.6500  11.0108  11.2843
    11.6583  11.7476  12.2542  12.2745

     occupation numbers 
     1.0000   1.0000   1.0000   1.0000   1.0000   1.0000   1.0000   1.0000
     1.0000   1.0000   1.0000   1.0000   1.0000   1.0000   1.0000   1.0000
     1.0000   1.0000   1.0000   1.0000   1.0000   1.0000   1.0000   1.0000
     1.0000   1.0000   1.0000   1.0000   1.0000   1.0000   1.0000   1.0000
     1.0000   1.0000   1.0000   1.0000   1.0000   1.0000   1.0000   0.0000
     0.0000   0.0000   0.0000   0.0000   0.0000   0.0000   0.0000   0.0000
     0.0000   0.0000   0.0000   0.0000   0.0000   0.0000   0.0000   0.0000
     0.0000   0.0000   0.0000   0.0000

          k = 0.1538 0.5327 0.0000 ( 23831 PWs)   bands (ev):

   -35.4510 -35.4490 -35.4432 -35.4415 -35.4239 -35.4221 -35.4139 -35.4128
   -35.3973 -35.3958 -34.9958 -34.9923 -34.9819 -34.9301 -34.9268 -28.3786
   -28.3770 -28.3689 -28.3676 -28.3560 -28.3549 -28.3535 -28.3525 -28.3371
   -28.3361 -10.2459 -10.1458  -9.8870  -8.5680  -8.1817  -3.7937  -2.8507
    -2.6774  -2.2150  -1.5936  -1.3649   0.3117   0.6490   1.2221   3.4520
     3.8688   3.9788   5.6012   6.1136   6.5350   7.0670   8.3097   9.0690
     9.3624   9.6291   9.8216  10.0807  10.4491  10.6445  11.0154  11.1470
    11.4713  11.8230  11.8830  12.3617

     occupation numbers 
     1.0000   1.0000   1.0000   1.0000   1.0000   1.0000   1.0000   1.0000
     1.0000   1.0000   1.0000   1.0000   1.0000   1.0000   1.0000   1.0000
     1.0000   1.0000   1.0000   1.0000   1.0000   1.0000   1.0000   1.0000
     1.0000   1.0000   1.0000   1.0000   1.0000   1.0000   1.0000   1.0000
     1.0000   1.0000   1.0000   1.0000   1.0000   1.0000   1.0000   0.0000
     0.0000   0.0000   0.0000   0.0000   0.0000   0.0000   0.0000   0.0000
     0.0000   0.0000   0.0000   0.0000   0.0000   0.0000   0.0000   0.0000
     0.0000   0.0000   0.0000   0.0000

          k = 0.1538-0.0000 0.0000 ( 23767 PWs)   bands (ev):

   -35.4897 -35.4884 -35.4744 -35.4728 -35.4560 -35.4543 -35.4498 -35.4482
   -35.4269 -35.4253 -35.0216 -35.0154 -35.0093 -34.9710 -34.9705 -28.3924
   -28.3910 -28.3870 -28.3855 -28.3657 -28.3646 -28.3521 -28.3509 -28.3333
   -28.3323 -11.8620 -11.4084 -10.2326  -7.5482  -6.3319  -1.7646  -1.3640
    -1.1157  -0.9726  -0.5817  -0.2542   0.4965   1.2982   1.3529   3.1434
     3.4392   3.5159   4.6139   4.8663   5.2584   6.9130   7.0868   7.9854
     8.1921   8.3728   9.3291   9.5033   9.7248   9.8079  10.1478  10.4103
    11.0050  11.3805  11.6556  11.9638

     occupation numbers 
     1.0000   1.0000   1.0000   1.0000   1.0000   1.0000   1.0000   1.0000
     1.0000   1.0000   1.0000   1.0000   1.0000   1.0000   1.0000   1.0000
     1.0000   1.0000   1.0000   1.0000   1.0000   1.0000   1.0000   1.0000
     1.0000   1.0000   1.0000   1.0000   1.0000   1.0000   1.0000   1.0000
     1.0000   1.0000   1.0000   1.0000   1.0000   1.0000   1.0000   0.0000
     0.0000   0.0000   0.0000   0.0000   0.0000   0.0000   0.0000   0.0000
     0.0000   0.0000   0.0000   0.0000   0.0000   0.0000   0.0000   0.0000
     0.0000   0.0000   0.0000   0.0000

          k = 0.2308 0.1332 0.0000 ( 23783 PWs)   bands (ev):

   -35.4720 -35.4704 -35.4622 -35.4606 -35.4358 -35.4350 -35.4343 -35.4335
   -35.4103 -35.4088 -35.0086 -34.9942 -34.9905 -34.9618 -34.9577 -28.3877
   -28.3861 -28.3817 -28.3804 -28.3675 -28.3664 -28.3529 -28.3516 -28.3365
   -28.3354 -11.5302 -11.1028 -10.0520  -7.6869  -6.8383  -2.7948  -1.8245
    -1.5988  -1.5182  -0.9827  -0.4529   0.4356   0.7477   1.5338   3.1443
     3.6995   4.0214   5.1580   5.1766   5.8488   7.1128   7.2996   7.7372
     8.3495   8.8904   9.3767   9.7010   9.8872  10.0154  10.7371  10.8339
    10.9857  11.5018  11.6282  12.4776

     occupation numbers 
     1.0000   1.0000   1.0000   1.0000   1.0000   1.0000   1.0000   1.0000
     1.0000   1.0000   1.0000   1.0000   1.0000   1.0000   1.0000   1.0000
     1.0000   1.0000   1.0000   1.0000   1.0000   1.0000   1.0000   1.0000
     1.0000   1.0000   1.0000   1.0000   1.0000   1.0000   1.0000   1.0000
     1.0000   1.0000   1.0000   1.0000   1.0000   1.0000   1.0000   0.0000
     0.0000   0.0000   0.0000   0.0000   0.0000   0.0000   0.0000   0.0000
     0.0000   0.0000   0.0000   0.0000   0.0000   0.0000   0.0000   0.0000
     0.0000   0.0000   0.0000   0.0000

          k = 0.2308 0.2220 0.0000 ( 23809 PWs)   bands (ev):

   -35.4671 -35.4655 -35.4565 -35.4549 -35.4310 -35.4295 -35.4279 -35.4265
   -35.4048 -35.4034 -35.0040 -34.9920 -34.9873 -34.9481 -34.9464 -28.3876
   -28.3862 -28.3785 -28.3771 -28.3655 -28.3644 -28.3564 -28.3552 -28.3396
   -28.3385 -11.3226 -10.9222  -9.9588  -7.8079  -7.1376  -3.0680  -2.3212
    -1.7829  -1.6061  -1.2890  -0.5697   0.4657   0.6531   1.4802   3.4249
     3.5663   4.0228   5.1643   5.6003   6.0902   7.0969   7.5443   7.8782
     8.4954   8.8637   9.1062   9.8873   9.9498  10.8038  10.8513  10.9500
    11.2242  11.6190  12.1779  12.3426

     occupation numbers 
     1.0000   1.0000   1.0000   1.0000   1.0000   1.0000   1.0000   1.0000
     1.0000   1.0000   1.0000   1.0000   1.0000   1.0000   1.0000   1.0000
     1.0000   1.0000   1.0000   1.0000   1.0000   1.0000   1.0000   1.0000
     1.0000   1.0000   1.0000   1.0000   1.0000   1.0000   1.0000   1.0000
     1.0000   1.0000   1.0000   1.0000   1.0000   1.0000   1.0000   0.0000
     0.0000   0.0000   0.0000   0.0000   0.0000   0.0000   0.0000   0.0000
     0.0000   0.0000   0.0000   0.0000   0.0000   0.0000   0.0000   0.0000
     0.0000   0.0000   0.0000   0.0000

          k = 0.2308 0.3108 0.0000 ( 23817 PWs)   bands (ev):

   -35.4590 -35.4572 -35.4513 -35.4499 -35.4295 -35.4279 -35.4203 -35.4190
   -35.3980 -35.3966 -35.0049 -34.9966 -34.9869 -34.9361 -34.9357 -28.3834
   -28.3822 -28.3736 -28.3725 -28.3592 -28.3582 -28.3544 -28.3532 -28.3418
   -28.3406 -11.0275 -10.6670  -9.8585  -7.9910  -7.5360  -3.2323  -2.8355
    -2.1142  -1.8413  -1.5335  -0.9388   0.5491   0.7924   1.3041   3.4410
     3.8819   3.9587   5.2748   6.0053   6.2157   7.3779   7.8664   8.1122
     8.4940   8.8724   9.0706   9.7497  10.2192  10.6185  11.1645  11.2824
    11.6516  12.0341  12.3487  12.6053

     occupation numbers 
     1.0000   1.0000   1.0000   1.0000   1.0000   1.0000   1.0000   1.0000
     1.0000   1.0000   1.0000   1.0000   1.0000   1.0000   1.0000   1.0000
     1.0000   1.0000   1.0000   1.0000   1.0000   1.0000   1.0000   1.0000
     1.0000   1.0000   1.0000   1.0000   1.0000   1.0000   1.0000   1.0000
     1.0000   1.0000   1.0000   1.0000   1.0000   1.0000   1.0000   0.0000
     0.0000   0.0000   0.0000   0.0000   0.0000   0.0000   0.0000   0.0000
     0.0000   0.0000   0.0000   0.0000   0.0000   0.0000   0.0000   0.0000
     0.0000   0.0000   0.0000   0.0000

          k = 0.2308 0.3996 0.0000 ( 23815 PWs)   bands (ev):

   -35.4526 -35.4507 -35.4395 -35.4380 -35.4251 -35.4234 -35.4165 -35.4153
   -35.3974 -35.3960 -34.9987 -34.9924 -34.9825 -34.9295 -34.9284 -28.3795
   -28.3783 -28.3715 -28.3705 -28.3552 -28.3542 -28.3523 -28.3512 -28.3429
   -28.3418 -10.6641 -10.3776  -9.7708  -8.2273  -7.9756  -3.3407  -3.2376
    -2.3158  -2.0362  -1.9432  -1.1438   0.4929   0.8891   1.1131   3.6540
     3.7822   4.0712   5.6259   6.1078   6.3625   7.9041   8.0525   8.4515
     8.5344   9.0801   9.5248   9.5599  10.4376  10.5265  11.2343  11.3307
    11.5411  11.8864  12.1635  12.3068

     occupation numbers 
     1.0000   1.0000   1.0000   1.0000   1.0000   1.0000   1.0000   1.0000
     1.0000   1.0000   1.0000   1.0000   1.0000   1.0000   1.0000   1.0000
     1.0000   1.0000   1.0000   1.0000   1.0000   1.0000   1.0000   1.0000
     1.0000   1.0000   1.0000   1.0000   1.0000   1.0000   1.0000   1.0000
     1.0000   1.0000   1.0000   1.0000   1.0000   1.0000   1.0000   0.0000
     0.0000   0.0000   0.0000   0.0000   0.0000   0.0000   0.0000   0.0000
     0.0000   0.0000   0.0000   0.0000   0.0000   0.0000   0.0000   0.0000
     0.0000   0.0000   0.0000   0.0000

          k = 0.2308 0.4883 0.0000 ( 23811 PWs)   bands (ev):

   -35.4477 -35.4457 -35.4366 -35.4351 -35.4224 -35.4208 -35.4141 -35.4129
   -35.3978 -35.3963 -34.9920 -34.9880 -34.9801 -34.9278 -34.9261 -28.3760
   -28.3746 -28.3698 -28.3687 -28.3528 -28.3518 -28.3510 -28.3498 -28.3414
   -28.3403 -10.2801 -10.1188  -9.7543  -8.4989  -8.3283  -3.5758  -3.2605
    -2.6063  -2.2354  -1.9520  -1.3230   0.2886   0.8767   1.1403   3.6520
     3.8731   4.0924   5.8329   6.2124   6.4486   7.8583   8.6418   8.8169
     9.1456   9.3401   9.6459  10.0097  10.4123  10.5696  10.8078  11.1979
    11.4353  11.4930  11.6877  11.9845

     occupation numbers 
     1.0000   1.0000   1.0000   1.0000   1.0000   1.0000   1.0000   1.0000
     1.0000   1.0000   1.0000   1.0000   1.0000   1.0000   1.0000   1.0000
     1.0000   1.0000   1.0000   1.0000   1.0000   1.0000   1.0000   1.0000
     1.0000   1.0000   1.0000   1.0000   1.0000   1.0000   1.0000   1.0000
     1.0000   1.0000   1.0000   1.0000   1.0000   1.0000   1.0000   0.0000
     0.0000   0.0000   0.0000   0.0000   0.0000   0.0000   0.0000   0.0000
     0.0000   0.0000   0.0000   0.0000   0.0000   0.0000   0.0000   0.0000
     0.0000   0.0000   0.0000   0.0000

          k = 0.2308 0.5771 0.0000 ( 23813 PWs)   bands (ev):

   -35.4460 -35.4441 -35.4370 -35.4354 -35.4213 -35.4196 -35.4132 -35.4120
   -35.3966 -35.3951 -34.9879 -34.9861 -34.9804 -34.9273 -34.9252 -28.3751
   -28.3736 -28.3692 -28.3679 -28.3528 -28.3518 -28.3505 -28.3494 -28.3409
   -28.3398 -10.0243 -10.0106  -9.8243  -8.6539  -8.4563  -3.6748  -3.1536
    -2.8840  -2.2627  -1.7618  -1.5412   0.1985   0.9239   1.1159   3.7121
     3.8177   4.1067   6.0106   6.0781   6.5498   7.8064   8.7384   9.3887
     9.5262   9.6363   9.7778  10.2194  10.2240  10.5058  10.6352  10.8744
    11.0635  11.3109  11.4753  11.9471

     occupation numbers 
     1.0000   1.0000   1.0000   1.0000   1.0000   1.0000   1.0000   1.0000
     1.0000   1.0000   1.0000   1.0000   1.0000   1.0000   1.0000   1.0000
     1.0000   1.0000   1.0000   1.0000   1.0000   1.0000   1.0000   1.0000
     1.0000   1.0000   1.0000   1.0000   1.0000   1.0000   1.0000   1.0000
     1.0000   1.0000   1.0000   1.0000   1.0000   1.0000   1.0000   0.0000
     0.0000   0.0000   0.0000   0.0000   0.0000   0.0000   0.0000   0.0000
     0.0000   0.0000   0.0000   0.0000   0.0000   0.0000   0.0000   0.0000
     0.0000   0.0000   0.0000   0.0000

          k = 0.2308-0.0444 0.0000 ( 23772 PWs)   bands (ev):

   -35.4759 -35.4748 -35.4672 -35.4656 -35.4412 -35.4395 -35.4376 -35.4359
   -35.4132 -35.4116 -35.0128 -35.0031 -35.0003 -34.9623 -34.9615 -28.3898
   -28.3886 -28.3812 -28.3799 -28.3638 -28.3628 -28.3534 -28.3522 -28.3404
   -28.3393 -11.6361 -11.1954 -10.1060  -7.6346  -6.6847  -2.4400  -1.9200
    -1.4907  -1.2419  -0.9125  -0.4653   0.4891   1.0317   1.5258   3.2703
     3.4760   3.9721   4.7890   5.3670   5.6197   7.1649   7.2645   7.8295
     8.2609   8.4084   9.3903   9.5537   9.6593  10.1555  10.5124  10.6550
    11.1649  11.3645  11.9612  12.1787

     occupation numbers 
     1.0000   1.0000   1.0000   1.0000   1.0000   1.0000   1.0000   1.0000
     1.0000   1.0000   1.0000   1.0000   1.0000   1.0000   1.0000   1.0000
     1.0000   1.0000   1.0000   1.0000   1.0000   1.0000   1.0000   1.0000
     1.0000   1.0000   1.0000   1.0000   1.0000   1.0000   1.0000   1.0000
     1.0000   1.0000   1.0000   1.0000   1.0000   1.0000   1.0000   0.0000
     0.0000   0.0000   0.0000   0.0000   0.0000   0.0000   0.0000   0.0000
     0.0000   0.0000   0.0000   0.0000   0.0000   0.0000   0.0000   0.0000
     0.0000   0.0000   0.0000   0.0000

          k = 0.3077 0.1776 0.0000 ( 23831 PWs)   bands (ev):

   -35.4647 -35.4632 -35.4543 -35.4527 -35.4266 -35.4250 -35.4247 -35.4231
   -35.4001 -35.3985 -35.0019 -34.9878 -34.9774 -34.9471 -34.9404 -28.3875
   -28.3858 -28.3788 -28.3775 -28.3677 -28.3666 -28.3565 -28.3553 -28.3369
   -28.3357 -11.1757 -10.8011  -9.9123  -7.9252  -7.3085  -3.3560  -2.3258
    -1.9001  -1.6929  -1.2339  -0.6916   0.2677   0.6777   1.2974   3.2170
     3.7908   3.9990   5.3766   5.4750   6.2917   6.8064   7.7218   7.9408
     8.5956   9.0476   9.7223  10.0543  10.2955  10.7533  10.8882  11.1332
    11.4740  11.5095  11.8607  12.1986

     occupation numbers 
     1.0000   1.0000   1.0000   1.0000   1.0000   1.0000   1.0000   1.0000
     1.0000   1.0000   1.0000   1.0000   1.0000   1.0000   1.0000   1.0000
     1.0000   1.0000   1.0000   1.0000   1.0000   1.0000   1.0000   1.0000
     1.0000   1.0000   1.0000   1.0000   1.0000   1.0000   1.0000   1.0000
     1.0000   1.0000   1.0000   1.0000   1.0000   1.0000   1.0000   0.0000
     0.0000   0.0000   0.0000   0.0000   0.0000   0.0000   0.0000   0.0000
     0.0000   0.0000   0.0000   0.0000   0.0000   0.0000   0.0000   0.0000
     0.0000   0.0000   0.0000   0.0000

          k = 0.3077 0.2664 0.0000 ( 23843 PWs)   bands (ev):

   -35.4590 -35.4574 -35.4482 -35.4466 -35.4261 -35.4243 -35.4216 -35.4204
   -35.4006 -35.3992 -34.9998 -34.9892 -34.9788 -34.9386 -34.9343 -28.3858
   -28.3843 -28.3752 -28.3738 -28.3647 -28.3636 -28.3566 -28.3554 -28.3378
   -28.3366 -10.9404 -10.6095  -9.8555  -8.0996  -7.5868  -3.5364  -2.5295
    -2.1586  -1.9045  -1.4084  -0.7984   0.3070   0.5876   1.2907   3.4590
     3.5867   4.0041   5.4188   5.7653   6.3848   6.8386   7.9346   8.1427
     8.7526   9.1824   9.6015  10.2027  10.3103  10.7405  11.0850  11.4539
    11.4986  11.9535  12.1068  12.2271

     occupation numbers 
     1.0000   1.0000   1.0000   1.0000   1.0000   1.0000   1.0000   1.0000
     1.0000   1.0000   1.0000   1.0000   1.0000   1.0000   1.0000   1.0000
     1.0000   1.0000   1.0000   1.0000   1.0000   1.0000   1.0000   1.0000
     1.0000   1.0000   1.0000   1.0000   1.0000   1.0000   1.0000   1.0000
     1.0000   1.0000   1.0000   1.0000   1.0000   1.0000   1.0000   0.0000
     0.0000   0.0000   0.0000   0.0000   0.0000   0.0000   0.0000   0.0000
     0.0000   0.0000   0.0000   0.0000   0.0000   0.0000   0.0000   0.0000
     0.0000   0.0000   0.0000   0.0000

          k = 0.3077 0.3552 0.0000 ( 23831 PWs)   bands (ev):

   -35.4530 -35.4512 -35.4456 -35.4440 -35.4272 -35.4256 -35.4162 -35.4148
   -35.3990 -35.3976 -35.0001 -34.9944 -34.9835 -34.9329 -34.9309 -28.3795
   -28.3781 -28.3701 -28.3689 -28.3565 -28.3554 -28.3530 -28.3518 -28.3379
   -28.3368 -10.6313 -10.3661  -9.8046  -8.2990  -7.9412  -3.6087  -2.8722
    -2.3616  -2.2399  -1.5883  -1.1221   0.3570   0.6848   1.2897   3.3576
     3.9617   4.0339   5.4360   6.0858   6.4514   7.1865   8.2099   8.5040
     8.9830   9.1840   9.6159   9.8944  10.4464  10.6500  11.0122  11.2853
    11.6595  11.7482  12.2557  12.2738

     occupation numbers 
     1.0000   1.0000   1.0000   1.0000   1.0000   1.0000   1.0000   1.0000
     1.0000   1.0000   1.0000   1.0000   1.0000   1.0000   1.0000   1.0000
     1.0000   1.0000   1.0000   1.0000   1.0000   1.0000   1.0000   1.0000
     1.0000   1.0000   1.0000   1.0000   1.0000   1.0000   1.0000   1.0000
     1.0000   1.0000   1.0000   1.0000   1.0000   1.0000   1.0000   0.0000
     0.0000   0.0000   0.0000   0.0000   0.0000   0.0000   0.0000   0.0000
     0.0000   0.0000   0.0000   0.0000   0.0000   0.0000   0.0000   0.0000
     0.0000   0.0000   0.0000   0.0000

          k = 0.3077 0.4439 0.0000 ( 23815 PWs)   bands (ev):

   -35.4476 -35.4458 -35.4367 -35.4351 -35.4224 -35.4209 -35.4141 -35.4127
   -35.3978 -35.3963 -34.9920 -34.9880 -34.9802 -34.9278 -34.9261 -28.3760
   -28.3746 -28.3698 -28.3687 -28.3529 -28.3518 -28.3510 -28.3498 -28.3414
   -28.3403 -10.2799 -10.1186  -9.7537  -8.4985  -8.3291  -3.5764  -3.2602
    -2.6065  -2.2353  -1.9526  -1.3229   0.2884   0.8758   1.1404   3.6507
     3.8725   4.0930   5.8319   6.2098   6.4510   7.8559   8.6414   8.8190
     9.1471   9.3394   9.6479  10.0099  10.4139  10.5695  10.8074  11.1991
    11.4365  11.4924  11.6875  11.9827

     occupation numbers 
     1.0000   1.0000   1.0000   1.0000   1.0000   1.0000   1.0000   1.0000
     1.0000   1.0000   1.0000   1.0000   1.0000   1.0000   1.0000   1.0000
     1.0000   1.0000   1.0000   1.0000   1.0000   1.0000   1.0000   1.0000
     1.0000   1.0000   1.0000   1.0000   1.0000   1.0000   1.0000   1.0000
     1.0000   1.0000   1.0000   1.0000   1.0000   1.0000   1.0000   0.0000
     0.0000   0.0000   0.0000   0.0000   0.0000   0.0000   0.0000   0.0000
     0.0000   0.0000   0.0000   0.0000   0.0000   0.0000   0.0000   0.0000
     0.0000   0.0000   0.0000   0.0000

          k = 0.3077 0.5327 0.0000 ( 23849 PWs)   bands (ev):

   -35.4424 -35.4406 -35.4340 -35.4325 -35.4207 -35.4192 -35.4151 -35.4137
   -35.3993 -35.3978 -34.9846 -34.9833 -34.9798 -34.9263 -34.9254 -28.3724
   -28.3712 -28.3701 -28.3690 -28.3516 -28.3505 -28.3476 -28.3465 -28.3420
   -28.3409  -9.9901  -9.9528  -9.7325  -8.6388  -8.6336  -3.6033  -3.2585
    -2.9117  -2.4547  -1.7908  -1.4951   0.0829   1.0222   1.0897   3.6042
     4.0559   4.1415   5.9336   6.3806   6.4618   8.7777   8.7840   9.2248
     9.3745   9.5762   9.8678  10.0958  10.1756  10.2740  10.4675  10.8328
    11.0605  11.2046  11.3037  11.6554

     occupation numbers 
     1.0000   1.0000   1.0000   1.0000   1.0000   1.0000   1.0000   1.0000
     1.0000   1.0000   1.0000   1.0000   1.0000   1.0000   1.0000   1.0000
     1.0000   1.0000   1.0000   1.0000   1.0000   1.0000   1.0000   1.0000
     1.0000   1.0000   1.0000   1.0000   1.0000   1.0000   1.0000   1.0000
     1.0000   1.0000   1.0000   1.0000   1.0000   1.0000   1.0000   0.0000
     0.0000   0.0000   0.0000   0.0000   0.0000   0.0000   0.0000   0.0000
     0.0000   0.0000   0.0000   0.0000   0.0000   0.0000   0.0000   0.0000
     0.0000   0.0000   0.0000   0.0000

          k = 0.3077-0.0888 0.0000 ( 23805 PWs)   bands (ev):

   -35.4668 -35.4657 -35.4564 -35.4549 -35.4311 -35.4294 -35.4281 -35.4263
   -35.4049 -35.4033 -35.0041 -34.9920 -34.9872 -34.9481 -34.9464 -28.3876
   -28.3862 -28.3784 -28.3771 -28.3655 -28.3644 -28.3564 -28.3552 -28.3396
   -28.3385 -11.3224 -10.9218  -9.9586  -7.8082  -7.1376  -3.0682  -2.3224
    -1.7834  -1.6042  -1.2890  -0.5687   0.4649   0.6526   1.4795   3.4239
     3.5658   4.0228   5.1612   5.6028   6.0898   7.0961   7.5444   7.8780
     8.4950   8.8623   9.1049   9.8858   9.9500  10.8064  10.8517  10.9501
    11.2257  11.6186  12.1783  12.3439

     occupation numbers 
     1.0000   1.0000   1.0000   1.0000   1.0000   1.0000   1.0000   1.0000
     1.0000   1.0000   1.0000   1.0000   1.0000   1.0000   1.0000   1.0000
     1.0000   1.0000   1.0000   1.0000   1.0000   1.0000   1.0000   1.0000
     1.0000   1.0000   1.0000   1.0000   1.0000   1.0000   1.0000   1.0000
     1.0000   1.0000   1.0000   1.0000   1.0000   1.0000   1.0000   0.0000
     0.0000   0.0000   0.0000   0.0000   0.0000   0.0000   0.0000   0.0000
     0.0000   0.0000   0.0000   0.0000   0.0000   0.0000   0.0000   0.0000
     0.0000   0.0000   0.0000   0.0000

          k = 0.3077-0.0000 0.0000 ( 23773 PWs)   bands (ev):

   -35.4687 -35.4674 -35.4623 -35.4606 -35.4328 -35.4314 -35.4260 -35.4240
   -35.4000 -35.3982 -35.0105 -34.9996 -34.9941 -34.9451 -34.9446 -28.3880
   -28.3870 -28.3768 -28.3757 -28.3612 -28.3601 -28.3556 -28.3546 -28.3439
   -28.3428 -11.3702 -10.9568  -9.9776  -7.7703  -7.0796  -2.7354  -2.6299
    -1.7365  -1.5555  -1.2194  -0.7486   0.5002   1.1603   1.2767   3.3473
     3.8268   3.9010   4.9535   5.8305   5.9171   7.4219   7.5046   7.8755
     8.1808   8.6094   9.0512   9.5565   9.9535  10.7090  10.9035  10.9796
    11.3135  11.8002  12.1470  12.2213

     occupation numbers 
     1.0000   1.0000   1.0000   1.0000   1.0000   1.0000   1.0000   1.0000
     1.0000   1.0000   1.0000   1.0000   1.0000   1.0000   1.0000   1.0000
     1.0000   1.0000   1.0000   1.0000   1.0000   1.0000   1.0000   1.0000
     1.0000   1.0000   1.0000   1.0000   1.0000   1.0000   1.0000   1.0000
     1.0000   1.0000   1.0000   1.0000   1.0000   1.0000   1.0000   0.0000
     0.0000   0.0000   0.0000   0.0000   0.0000   0.0000   0.0000   0.0000
     0.0000   0.0000   0.0000   0.0000   0.0000   0.0000   0.0000   0.0000
     0.0000   0.0000   0.0000   0.0000

          k = 0.3846 0.2220 0.0000 ( 23835 PWs)   bands (ev):

   -35.4581 -35.4565 -35.4465 -35.4449 -35.4244 -35.4228 -35.4192 -35.4176
   -35.3980 -35.3964 -35.0003 -34.9879 -34.9723 -34.9388 -34.9303 -28.3860
   -28.3843 -28.3760 -28.3747 -28.3665 -28.3654 -28.3556 -28.3544 -28.3352
   -28.3341 -10.7690 -10.4865  -9.8624  -8.2638  -7.7109  -3.7348  -2.5634
[...]
    11.0710  11.2187  11.3058  11.6623

     occupation numbers 
     1.0000   1.0000   1.0000   1.0000   1.0000   1.0000   1.0000   1.0000
     1.0000   1.0000   1.0000   1.0000   1.0000   1.0000   1.0000   1.0000
     1.0000   1.0000   1.0000   1.0000   1.0000   1.0000   1.0000   1.0000
     1.0000   1.0000   1.0000   1.0000   1.0000   1.0000   1.0000   1.0000
     1.0000   1.0000   1.0000   1.0000   1.0000   1.0000   1.0000   0.0000
     0.0000   0.0000   0.0000   0.0000   0.0000   0.0000   0.0000   0.0000
     0.0000   0.0000   0.0000   0.0000   0.0000   0.0000   0.0000   0.0000
     0.0000   0.0000   0.0000   0.0000

          k =-0.3077-0.0888 0.0000 ( 23805 PWs)   bands (ev):

   -35.4638 -35.4532 -35.4465 -35.4359 -35.4282 -35.4251 -35.4111 -35.4081
   -35.4023 -35.3853 -35.0840 -35.0716 -35.0672 -35.0290 -35.0273 -28.4350
   -28.4261 -28.4240 -28.4151 -28.4133 -28.4040 -28.4023 -28.3931 -28.3869
   -28.3761 -11.3567 -10.9311  -9.9959  -7.8355  -7.1726  -3.1046  -2.3527
    -1.8012  -1.6394  -1.3037  -0.5851   0.4363   0.6164   1.4510   3.3964
     3.5398   4.0013   5.1298   5.5701   6.0610   7.0657   7.5574   7.8832
     8.4946   8.8548   9.0842   9.8783   9.9597  10.7883  10.8420  10.9450
    11.2050  11.6050  12.1780  12.3227

     occupation numbers 
     1.0000   1.0000   1.0000   1.0000   1.0000   1.0000   1.0000   1.0000
     1.0000   1.0000   1.0000   1.0000   1.0000   1.0000   1.0000   1.0000
     1.0000   1.0000   1.0000   1.0000   1.0000   1.0000   1.0000   1.0000
     1.0000   1.0000   1.0000   1.0000   1.0000   1.0000   1.0000   1.0000
     1.0000   1.0000   1.0000   1.0000   1.0000   1.0000   1.0000   0.0000
     0.0000   0.0000   0.0000   0.0000   0.0000   0.0000   0.0000   0.0000
     0.0000   0.0000   0.0000   0.0000   0.0000   0.0000   0.0000   0.0000
     0.0000   0.0000   0.0000   0.0000

          k =-0.3846 0.2220 0.0000 ( 23835 PWs)   bands (ev):

   -35.4551 -35.4432 -35.4372 -35.4258 -35.4216 -35.4163 -35.4043 -35.3996
   -35.3954 -35.3783 -35.0804 -35.0676 -35.0521 -35.0198 -35.0112 -28.4333
   -28.4237 -28.4224 -28.4143 -28.4126 -28.4033 -28.4031 -28.3923 -28.3825
   -28.3717 -10.8004 -10.4924  -9.9028  -8.2954  -7.7450  -3.7737  -2.5852
    -2.1489  -1.9451  -1.4303  -0.9522   0.3014   0.5652   0.9844   3.2077
     3.7946   3.8334   5.4992   5.6525   6.3635   6.6252   7.9224   8.3794
     8.8826   9.4275  10.1353  10.2410  10.4561  11.0321  11.1727  11.4736
    11.6968  11.8139  12.0355  12.1550

     occupation numbers 
     1.0000   1.0000   1.0000   1.0000   1.0000   1.0000   1.0000   1.0000
     1.0000   1.0000   1.0000   1.0000   1.0000   1.0000   1.0000   1.0000
     1.0000   1.0000   1.0000   1.0000   1.0000   1.0000   1.0000   1.0000
     1.0000   1.0000   1.0000   1.0000   1.0000   1.0000   1.0000   1.0000
     1.0000   1.0000   1.0000   1.0000   1.0000   1.0000   1.0000   0.0000
     0.0000   0.0000   0.0000   0.0000   0.0000   0.0000   0.0000   0.0000
     0.0000   0.0000   0.0000   0.0000   0.0000   0.0000   0.0000   0.0000
     0.0000   0.0000   0.0000   0.0000

          k =-0.3846 0.3108 0.0000 ( 23823 PWs)   bands (ev):

   -35.4509 -35.4392 -35.4331 -35.4217 -35.4206 -35.4156 -35.4036 -35.3987
   -35.3976 -35.3804 -35.0782 -35.0692 -35.0556 -35.0138 -35.0077 -28.4317
   -28.4208 -28.4205 -28.4112 -28.4096 -28.4030 -28.4002 -28.3922 -28.3833
   -28.3726 -10.5552 -10.3268  -9.9187  -8.4635  -7.9532  -3.8635  -2.5922
    -2.4492  -2.1420  -1.5206  -1.0192   0.2630   0.5171   1.0756   3.4696
     3.5168   3.8973   5.5854   5.7787   6.4306   6.6695   8.0408   8.7091
     9.0879   9.6604   9.9538  10.0303  10.5725  10.8215  11.1471  11.2332
    11.7192  11.9152  12.3331  12.6785

     occupation numbers 
     1.0000   1.0000   1.0000   1.0000   1.0000   1.0000   1.0000   1.0000
     1.0000   1.0000   1.0000   1.0000   1.0000   1.0000   1.0000   1.0000
     1.0000   1.0000   1.0000   1.0000   1.0000   1.0000   1.0000   1.0000
     1.0000   1.0000   1.0000   1.0000   1.0000   1.0000   1.0000   1.0000
     1.0000   1.0000   1.0000   1.0000   1.0000   1.0000   1.0000   0.0000
     0.0000   0.0000   0.0000   0.0000   0.0000   0.0000   0.0000   0.0000
     0.0000   0.0000   0.0000   0.0000   0.0000   0.0000   0.0000   0.0000
     0.0000   0.0000   0.0000   0.0000

          k =-0.3846 0.3996 0.0000 ( 23825 PWs)   bands (ev):

   -35.4476 -35.4398 -35.4300 -35.4224 -35.4210 -35.4112 -35.4037 -35.3947
   -35.3944 -35.3777 -35.0758 -35.0719 -35.0617 -35.0110 -35.0077 -28.4259
   -28.4164 -28.4150 -28.4054 -28.4038 -28.4013 -28.3928 -28.3904 -28.3845
   -28.3737 -10.2664 -10.1465  -9.9364  -8.6022  -8.2188  -3.8332  -2.8858
    -2.7079  -2.2370  -1.6092  -1.3830   0.2840   0.6159   1.1915   3.4246
     3.8470   3.9560   5.5693   6.0804   6.5088   7.0248   8.3010   9.0821
     9.3752   9.6407   9.8300  10.0898  10.4463  10.6464  11.0134  11.1548
    11.4672  11.8044  11.8764  12.3640

     occupation numbers 
     1.0000   1.0000   1.0000   1.0000   1.0000   1.0000   1.0000   1.0000
     1.0000   1.0000   1.0000   1.0000   1.0000   1.0000   1.0000   1.0000
     1.0000   1.0000   1.0000   1.0000   1.0000   1.0000   1.0000   1.0000
     1.0000   1.0000   1.0000   1.0000   1.0000   1.0000   1.0000   1.0000
     1.0000   1.0000   1.0000   1.0000   1.0000   1.0000   1.0000   0.0000
     0.0000   0.0000   0.0000   0.0000   0.0000   0.0000   0.0000   0.0000
     0.0000   0.0000   0.0000   0.0000   0.0000   0.0000   0.0000   0.0000
     0.0000   0.0000   0.0000   0.0000

          k =-0.3846 0.4883 0.0000 ( 23815 PWs)   bands (ev):

   -35.4427 -35.4336 -35.4251 -35.4185 -35.4164 -35.4104 -35.4012 -35.3940
   -35.3936 -35.3770 -35.0679 -35.0657 -35.0603 -35.0082 -35.0062 -28.4225
   -28.4166 -28.4115 -28.4057 -28.4007 -28.3983 -28.3898 -28.3882 -28.3872
   -28.3774 -10.0287 -10.0088  -9.8899  -8.6903  -8.4947  -3.7124  -3.1910
    -2.9184  -2.2819  -1.7783  -1.5554   0.1696   0.8923   1.0856   3.6885
     3.7913   4.0872   5.9769   6.0476   6.5210   7.7657   8.7321   9.3974
     9.5303   9.6479   9.7862  10.2001  10.2159  10.5060  10.6472  10.8602
    11.0671  11.3204  11.4803  11.9503

     occupation numbers 
     1.0000   1.0000   1.0000   1.0000   1.0000   1.0000   1.0000   1.0000
     1.0000   1.0000   1.0000   1.0000   1.0000   1.0000   1.0000   1.0000
     1.0000   1.0000   1.0000   1.0000   1.0000   1.0000   1.0000   1.0000
     1.0000   1.0000   1.0000   1.0000   1.0000   1.0000   1.0000   1.0000
     1.0000   1.0000   1.0000   1.0000   1.0000   1.0000   1.0000   0.0000
     0.0000   0.0000   0.0000   0.0000   0.0000   0.0000   0.0000   0.0000
     0.0000   0.0000   0.0000   0.0000   0.0000   0.0000   0.0000   0.0000
     0.0000   0.0000   0.0000   0.0000

          k =-0.3846-0.1332 0.0000 ( 23841 PWs)   bands (ev):

   -35.4558 -35.4449 -35.4384 -35.4276 -35.4234 -35.4188 -35.4059 -35.4021
   -35.3980 -35.3811 -35.0798 -35.0688 -35.0587 -35.0195 -35.0152 -28.4332
   -28.4228 -28.4221 -28.4125 -28.4118 -28.4042 -28.4015 -28.3932 -28.3850
   -28.3742 -10.9729 -10.6166  -9.8942  -8.1294  -7.6216  -3.5751  -2.5588
    -2.1854  -1.9332  -1.4225  -0.8145   0.2774   0.5537   1.2623   3.4318
     3.5626   3.9812   5.3855   5.7352   6.3573   6.7990   7.9389   8.1557
     8.7534   9.1904   9.5757  10.2003  10.3193  10.7289  11.0875  11.4503
    11.5036  11.9298  12.1146  12.2268

     occupation numbers 
     1.0000   1.0000   1.0000   1.0000   1.0000   1.0000   1.0000   1.0000
     1.0000   1.0000   1.0000   1.0000   1.0000   1.0000   1.0000   1.0000
     1.0000   1.0000   1.0000   1.0000   1.0000   1.0000   1.0000   1.0000
     1.0000   1.0000   1.0000   1.0000   1.0000   1.0000   1.0000   1.0000
     1.0000   1.0000   1.0000   1.0000   1.0000   1.0000   1.0000   0.0000
     0.0000   0.0000   0.0000   0.0000   0.0000   0.0000   0.0000   0.0000
     0.0000   0.0000   0.0000   0.0000   0.0000   0.0000   0.0000   0.0000
     0.0000   0.0000   0.0000   0.0000

          k =-0.3846-0.0444 0.0000 ( 23816 PWs)   bands (ev):

   -35.4557 -35.4480 -35.4382 -35.4309 -35.4267 -35.4175 -35.4095 -35.4007
   -35.3954 -35.3785 -35.0849 -35.0763 -35.0668 -35.0170 -35.0166 -28.4309
   -28.4213 -28.4198 -28.4102 -28.4071 -28.4021 -28.3962 -28.3911 -28.3891
   -28.3782 -11.0609 -10.6742  -9.8957  -8.0197  -7.5724  -3.2702  -2.8724
    -2.1304  -1.8694  -1.5541  -0.9535   0.5205   0.7586   1.2725   3.4146
     3.8580   3.9345   5.2408   5.9757   6.1863   7.3464   7.8708   8.1156
     8.4708   8.8645   9.0799   9.7384  10.2304  10.6075  11.1667  11.2830
    11.6524  12.0286  12.3329  12.6043

     occupation numbers 
     1.0000   1.0000   1.0000   1.0000   1.0000   1.0000   1.0000   1.0000
     1.0000   1.0000   1.0000   1.0000   1.0000   1.0000   1.0000   1.0000
     1.0000   1.0000   1.0000   1.0000   1.0000   1.0000   1.0000   1.0000
     1.0000   1.0000   1.0000   1.0000   1.0000   1.0000   1.0000   1.0000
     1.0000   1.0000   1.0000   1.0000   1.0000   1.0000   1.0000   0.0000
     0.0000   0.0000   0.0000   0.0000   0.0000   0.0000   0.0000   0.0000
     0.0000   0.0000   0.0000   0.0000   0.0000   0.0000   0.0000   0.0000
     0.0000   0.0000   0.0000   0.0000

          k =-0.4615 0.2664 0.0000 ( 23850 PWs)   bands (ev):

   -35.4516 -35.4387 -35.4337 -35.4219 -35.4212 -35.4141 -35.4046 -35.3974
   -35.3974 -35.3803 -35.0809 -35.0695 -35.0516 -35.0166 -35.0072 -28.4314
   -28.4216 -28.4204 -28.4128 -28.4106 -28.4018 -28.4006 -28.3898 -28.3799
   -28.3691 -10.3925 -10.2609 -10.0285  -8.5676  -7.9839  -3.9731  -2.5603
    -2.2572  -2.2367  -1.5260  -1.0089   0.3201   0.5189   0.8345   3.1280
     3.7982   3.8168   5.5285   5.7529   6.3457   6.5422   8.0375   8.9658
     9.2677   9.5944   9.8681  10.0441  10.5735  10.6908  11.2349  11.8552
    11.9940  12.3916  12.4525  12.7480

     occupation numbers 
     1.0000   1.0000   1.0000   1.0000   1.0000   1.0000   1.0000   1.0000
     1.0000   1.0000   1.0000   1.0000   1.0000   1.0000   1.0000   1.0000
     1.0000   1.0000   1.0000   1.0000   1.0000   1.0000   1.0000   1.0000
     1.0000   1.0000   1.0000   1.0000   1.0000   1.0000   1.0000   1.0000
     1.0000   1.0000   1.0000   1.0000   1.0000   1.0000   1.0000   0.0000
     0.0000   0.0000   0.0000   0.0000   0.0000   0.0000   0.0000   0.0000
     0.0000   0.0000   0.0000   0.0000   0.0000   0.0000   0.0000   0.0000
     0.0000   0.0000   0.0000   0.0000

          k =-0.4615 0.3552 0.0000 ( 23826 PWs)   bands (ev):

   -35.4493 -35.4371 -35.4315 -35.4196 -35.4196 -35.4148 -35.4024 -35.3981
   -35.3979 -35.3808 -35.0777 -35.0698 -35.0551 -35.0119 -35.0052 -28.4310
   -28.4201 -28.4198 -28.4107 -28.4088 -28.4023 -28.3997 -28.3914 -28.3825
   -28.3718 -10.2375 -10.1942 -10.0845  -8.6183  -8.0804  -3.9624  -2.6035
    -2.4729  -2.2590  -1.5921  -1.0709   0.3179   0.4507   1.0077   3.4299
     3.5731   3.8260   5.6636   5.7812   6.5139   6.5256   8.1207   9.1796
     9.4137   9.4947   9.6869  10.2772  10.4379  10.5838  11.2270  11.8055
    11.8445  12.1392  12.4434  12.6324

     occupation numbers 
     1.0000   1.0000   1.0000   1.0000   1.0000   1.0000   1.0000   1.0000
     1.0000   1.0000   1.0000   1.0000   1.0000   1.0000   1.0000   1.0000
     1.0000   1.0000   1.0000   1.0000   1.0000   1.0000   1.0000   1.0000
     1.0000   1.0000   1.0000   1.0000   1.0000   1.0000   1.0000   1.0000
     1.0000   1.0000   1.0000   1.0000   1.0000   1.0000   1.0000   0.0000
     0.0000   0.0000   0.0000   0.0000   0.0000   0.0000   0.0000   0.0000
     0.0000   0.0000   0.0000   0.0000   0.0000   0.0000   0.0000   0.0000
     0.0000   0.0000   0.0000   0.0000

          k =-0.4615 0.4439 0.0000 ( 23833 PWs)   bands (ev):

   -35.4476 -35.4398 -35.4299 -35.4224 -35.4211 -35.4111 -35.4037 -35.3947
   -35.3945 -35.3777 -35.0758 -35.0719 -35.0618 -35.0110 -35.0077 -28.4259
   -28.4164 -28.4150 -28.4054 -28.4038 -28.4013 -28.3928 -28.3904 -28.3845
   -28.3737 -10.2660 -10.1464  -9.9366  -8.6023  -8.2189  -3.8334  -2.8870
    -2.7068  -2.2370  -1.6095  -1.3826   0.2841   0.6157   1.1913   3.4247
     3.8465   3.9558   5.5686   6.0807   6.5085   7.0245   8.3007   9.0828
     9.3761   9.6394   9.8276  10.0898  10.4443  10.6458  11.0116  11.1548
    11.4653  11.8083  11.8781  12.3639

     occupation numbers 
     1.0000   1.0000   1.0000   1.0000   1.0000   1.0000   1.0000   1.0000
     1.0000   1.0000   1.0000   1.0000   1.0000   1.0000   1.0000   1.0000
     1.0000   1.0000   1.0000   1.0000   1.0000   1.0000   1.0000   1.0000
     1.0000   1.0000   1.0000   1.0000   1.0000   1.0000   1.0000   1.0000
     1.0000   1.0000   1.0000   1.0000   1.0000   1.0000   1.0000   0.0000
     0.0000   0.0000   0.0000   0.0000   0.0000   0.0000   0.0000   0.0000
     0.0000   0.0000   0.0000   0.0000   0.0000   0.0000   0.0000   0.0000
     0.0000   0.0000   0.0000   0.0000

          k =-0.4615 0.5327 0.0000 ( 23819 PWs)   bands (ev):

   -35.4443 -35.4333 -35.4267 -35.4197 -35.4161 -35.4113 -35.4024 -35.3952
   -35.3945 -35.3782 -35.0720 -35.0676 -35.0601 -35.0087 -35.0071 -28.4234
   -28.4173 -28.4125 -28.4064 -28.4008 -28.3987 -28.3899 -28.3887 -28.3877
   -28.3779 -10.3058 -10.1198  -9.7978  -8.5335  -8.3663  -3.6137  -3.2975
    -2.6431  -2.2514  -1.9693  -1.3365   0.2595   0.8450   1.1090   3.6278
     3.8497   4.0693   5.7992   6.1814   6.4199   7.8189   8.6407   8.8008
     9.1449   9.3431   9.6439  10.0238  10.4170  10.5790  10.8023  11.2100
    11.4427  11.4719  11.6995  11.9897

     occupation numbers 
     1.0000   1.0000   1.0000   1.0000   1.0000   1.0000   1.0000   1.0000
     1.0000   1.0000   1.0000   1.0000   1.0000   1.0000   1.0000   1.0000
     1.0000   1.0000   1.0000   1.0000   1.0000   1.0000   1.0000   1.0000
     1.0000   1.0000   1.0000   1.0000   1.0000   1.0000   1.0000   1.0000
     1.0000   1.0000   1.0000   1.0000   1.0000   1.0000   1.0000   0.0000
     0.0000   0.0000   0.0000   0.0000   0.0000   0.0000   0.0000   0.0000
     0.0000   0.0000   0.0000   0.0000   0.0000   0.0000   0.0000   0.0000
     0.0000   0.0000   0.0000   0.0000

          k =-0.4615-0.1776 0.0000 ( 23827 PWs)   bands (ev):

   -35.4507 -35.4391 -35.4334 -35.4219 -35.4209 -35.4154 -35.4034 -35.3986
   -35.3975 -35.3805 -35.0780 -35.0691 -35.0557 -35.0138 -35.0077 -28.4317
   -28.4208 -28.4205 -28.4112 -28.4096 -28.4030 -28.4003 -28.3921 -28.3833
   -28.3725 -10.5551 -10.3271  -9.9186  -8.4628  -7.9532  -3.8641  -2.5918
    -2.4505  -2.1409  -1.5211  -1.0186   0.2631   0.5169   1.0754   3.4689
     3.5169   3.8965   5.5837   5.7795   6.4308   6.6694   8.0408   8.7094
     9.0885   9.6603   9.9529  10.0287  10.5724  10.8190  11.1463  11.2314
    11.7172  11.9145  12.3331  12.6805

     occupation numbers 
     1.0000   1.0000   1.0000   1.0000   1.0000   1.0000   1.0000   1.0000
     1.0000   1.0000   1.0000   1.0000   1.0000   1.0000   1.0000   1.0000
     1.0000   1.0000   1.0000   1.0000   1.0000   1.0000   1.0000   1.0000
     1.0000   1.0000   1.0000   1.0000   1.0000   1.0000   1.0000   1.0000
     1.0000   1.0000   1.0000   1.0000   1.0000   1.0000   1.0000   0.0000
     0.0000   0.0000   0.0000   0.0000   0.0000   0.0000   0.0000   0.0000
     0.0000   0.0000   0.0000   0.0000   0.0000   0.0000   0.0000   0.0000
     0.0000   0.0000   0.0000   0.0000

          k =-0.4615-0.0888 0.0000 ( 23823 PWs)   bands (ev):

   -35.4497 -35.4422 -35.4322 -35.4250 -35.4244 -35.4134 -35.4072 -35.3965
   -35.3964 -35.3795 -35.0801 -35.0741 -35.0634 -35.0138 -35.0118 -28.4269
   -28.4177 -28.4159 -28.4067 -28.4043 -28.4007 -28.3934 -28.3897 -28.3852
   -28.3743 -10.6621 -10.3708  -9.8445  -8.3308  -7.9771  -3.6476  -2.9098
    -2.3838  -2.2648  -1.6060  -1.1370   0.3275   0.6531   1.2593   3.3325
     3.9396   4.0103   5.4026   6.0553   6.4230   7.1466   8.2090   8.5165
     8.9886   9.1586   9.6230   9.8886  10.4521  10.6526  11.0071  11.2935
    11.6667  11.7509  12.2539  12.2744

     occupation numbers 
     1.0000   1.0000   1.0000   1.0000   1.0000   1.0000   1.0000   1.0000
     1.0000   1.0000   1.0000   1.0000   1.0000   1.0000   1.0000   1.0000
     1.0000   1.0000   1.0000   1.0000   1.0000   1.0000   1.0000   1.0000
     1.0000   1.0000   1.0000   1.0000   1.0000   1.0000   1.0000   1.0000
     1.0000   1.0000   1.0000   1.0000   1.0000   1.0000   1.0000   0.0000
     0.0000   0.0000   0.0000   0.0000   0.0000   0.0000   0.0000   0.0000
     0.0000   0.0000   0.0000   0.0000   0.0000   0.0000   0.0000   0.0000
     0.0000   0.0000   0.0000   0.0000

     highest occupied, lowest unoccupied level (ev):     1.5057    2.8015

     Writing all to output data dir tmp/Sb2Te3-uatsx-c1-0.0.save/ :
     XML data file, pseudopotentials, collected wavefunctions

     init_run     :     10.92s CPU     12.58s WALL (       1 calls)
     electrons    :   1264.00s CPU   1273.31s WALL (       1 calls)

     Called by init_run:
     aceinit0     :     10.43s CPU     12.01s WALL (       1 calls)
     wfcinit      :      0.00s CPU      0.06s WALL (       1 calls)
     wfcinit:wfcr :      6.49s CPU      6.59s WALL (     170 calls)
     potinit      :      0.03s CPU      0.03s WALL (       1 calls)
     hinit0       :      0.42s CPU      0.43s WALL (       1 calls)

     Called by electrons:
     c_bands      :    230.25s CPU    233.24s WALL (       2 calls)
     sum_band     :      1.34s CPU      1.39s WALL (       1 calls)
     v_of_rho     :      0.03s CPU      0.03s WALL (       2 calls)
     v_h          :      0.00s CPU      0.00s WALL (       2 calls)
     v_xc         :      0.03s CPU      0.03s WALL (       2 calls)

     Called by c_bands:
     init_us_2    :      0.06s CPU      0.07s WALL (     255 calls)
     cegterg      :    218.69s CPU    221.44s WALL (     453 calls)

     Called by sum_band:
     sum_band:wei :      0.00s CPU      0.00s WALL (       1 calls)
     sum_band:loo :      1.34s CPU      1.38s WALL (       1 calls)
     sum_band:buf :      0.01s CPU      0.02s WALL (      85 calls)
     sum_band:ini :      0.02s CPU      0.03s WALL (      85 calls)

     Called by *egterg:
     cdiaghg      :     42.96s CPU     43.14s WALL (    7432 calls)
     cegterg:over :     17.23s CPU     17.39s WALL (    7262 calls)
     cegterg:upda :      2.99s CPU      3.02s WALL (    7262 calls)
     cegterg:last :      5.59s CPU      5.63s WALL (    4003 calls)
     h_psi        :    149.62s CPU    152.01s WALL (    7885 calls)
     g_psi        :      0.79s CPU      0.80s WALL (    7262 calls)

     Called by h_psi:
     h_psi:calbec :      8.93s CPU      9.01s WALL (    7885 calls)
     vloc_psi     :    130.70s CPU    132.90s WALL (    7885 calls)
     add_vuspsi   :      2.28s CPU      2.31s WALL (    7885 calls)

     General routines
     calbec       :     14.54s CPU     14.71s WALL (   15855 calls)
     fft          :      0.45s CPU      0.45s WALL (      19 calls)
     ffts         :      0.00s CPU      0.00s WALL (       1 calls)
     fftw         :    125.95s CPU    128.06s WALL (  521256 calls)
     fftc         :    959.09s CPU    964.54s WALL (  612000 calls)
     fftcw        :      4.46s CPU      4.52s WALL (   15300 calls)
     davcio       :      0.06s CPU      0.11s WALL (     510 calls)

     Parallel routines

     EXX routines
     exx_grid     :      0.00s CPU      0.00s WALL (       1 calls)
     exxinit      :     21.83s CPU     22.19s WALL (       1 calls)
     vexx         :   1010.40s CPU   1016.24s WALL (      85 calls)
     matcalc      :      5.67s CPU      5.74s WALL (    7970 calls)
     aceupdate    :      0.03s CPU      0.03s WALL (      85 calls)
     vexxace      :      7.37s CPU      7.46s WALL (    7885 calls)
     aceinit      :   1010.54s CPU   1016.38s WALL (      85 calls)

     PWSCF        :  21m42.59s CPU  22m28.15s WALL


   This run was terminated on:  17:40:18  14May2025            

=------------------------------------------------------------------------------=
   JOB DONE.
=------------------------------------------------------------------------------=
