
     Program PWSCF v.7.3.1 starts on 15May2025 at  1:48:27 

     This program is part of the open-source Quantum ESPRESSO suite
     for quantum simulation of materials; please cite
         "P. Giannozzi et al., J. Phys.:Condens. Matter 21 395502 (2009);
         "P. Giannozzi et al., J. Phys.:Condens. Matter 29 465901 (2017);
         "P. Giannozzi et al., J. Chem. Phys. 152 154105 (2020);
          URL http://www.quantum-espresso.org", 
     in publications or presentations arising from this work. More details at
     http://www.quantum-espresso.org/quote

     Parallel version (MPI & OpenMP), running on      72 processor cores
     Number of MPI processes:                72
     Threads/MPI process:                     1

     MPI processes distributed on     3 nodes
     88692 MiB available memory on the printing compute node when the environment starts

     Waiting for input...
     Reading input from standard input

     Current dimensions of program PWSCF are:
     Max number of different atomic species (ntypx) = 10
     Max number of k-points (npk) =  40000
     Max angular momentum in pseudopotentials (lmaxx) =  4

     IMPORTANT: XC functional enforced from input :
     Exchange-correlation= B3LYP-V1R
                           (   7  13   9   7   0   0   0)
     EXX-fraction              =        0.20
     Any further DFT definition will be discarded
     Please, verify this is what you really want


     Atomic positions and unit cell read from directory:
     tmp/Sb2Te3-uatsx-c1-4.0.save/

     EXX fraction changed:   0.20

     R & G space division:  proc/nbgrp/npool/nimage =      72
     Subspace diagonalization in iterative solution of the eigenvalue problem:
     a serial algorithm will be used

     EXX: q-point mesh:     1    1    1
     EXX: setup a grid of 85 q-points centered on each k-point
     (k+q)-points:
   0.0000000   0.0000000   0.0000000         1    1
   0.0000000   0.0923769   0.0000000         2    1
   0.0000000   0.1847539   0.0000000         3    1
   0.0000000   0.2771308   0.0000000         4    1
   0.0000000   0.3695077   0.0000000         5    1
   0.0000000   0.4618847   0.0000000         6    1
   0.0000000   0.5542616   0.0000000         7    1
   0.0769231   0.0444120   0.0000000         8    1
   0.0769231   0.1367889   0.0000000         9    1
   0.0769231   0.2291659   0.0000000        10    1
   0.0769231   0.3215428   0.0000000        11    1
   0.0769231   0.4139197   0.0000000        12    1
   0.0769231   0.5062967   0.0000000        13    1
   0.0769231   0.5986736   0.0000000        14    1
   0.0769231  -0.5098496   0.0000000        15    1
   0.0769231  -0.4174727   0.0000000        16    1
   0.0769231  -0.3250958   0.0000000        17    1
   0.0769231  -0.2327188   0.0000000        18    1
   0.0769231  -0.1403419   0.0000000        19    1
   0.0769231  -0.0479649   0.0000000        20    1
   0.1538462   0.0888240   0.0000000        21    1
   0.1538462   0.1812009   0.0000000        22    1
   0.1538462   0.2735779   0.0000000        23    1
   0.1538462   0.3659548   0.0000000        24    1
   0.1538462   0.4583317   0.0000000        25    1
   0.1538462   0.5507087   0.0000000        26    1
   0.1538462   0.6430856   0.0000000        27    1
   0.1538462  -0.4654376   0.0000000        28    1
   0.1538462  -0.3730607   0.0000000        29    1
   0.1538462  -0.2806838   0.0000000        30    1
   0.1538462  -0.1883068   0.0000000        31    1
   0.1538462  -0.0959299   0.0000000        32    1
   0.1538462  -0.0035530   0.0000000        33    1
   0.2307692   0.1332360   0.0000000        34    1
   0.2307692   0.2256129   0.0000000        35    1
   0.2307692   0.3179898   0.0000000        36    1
   0.2307692   0.4103668   0.0000000        37    1
   0.2307692   0.5027437   0.0000000        38    1
   0.2307692   0.5951206   0.0000000        39    1
   0.2307692   0.6874976   0.0000000        40    1
   0.2307692  -0.4210257   0.0000000        41    1
   0.2307692  -0.3286487   0.0000000        42    1
   0.2307692  -0.2362718   0.0000000        43    1
   0.2307692  -0.1438948   0.0000000        44    1
   0.2307692  -0.0515179   0.0000000        45    1
   0.2307692   0.0408590   0.0000000        46    1
   0.3076923   0.1776480   0.0000000        47    1
   0.3076923   0.2700249   0.0000000        48    1
   0.3076923   0.3624018   0.0000000        49    1
   0.3076923   0.4547788   0.0000000        50    1
   0.3076923   0.5471557   0.0000000        51    1
   0.3076923   0.6395326   0.0000000        52    1
   0.3076923   0.7319096   0.0000000        53    1
   0.3076923  -0.3766137   0.0000000        54    1
   0.3076923  -0.2842367   0.0000000        55    1
   0.3076923  -0.1918598   0.0000000        56    1
   0.3076923  -0.0994829   0.0000000        57    1
   0.3076923  -0.0071059   0.0000000        58    1
   0.3076923   0.0852710   0.0000000        59    1
   0.3846154   0.2220599   0.0000000        60    1
   0.3846154   0.3144369   0.0000000        61    1
   0.3846154   0.4068138   0.0000000        62    1
   0.3846154   0.4991908   0.0000000        63    1
   0.3846154   0.5915677   0.0000000        64    1
   0.3846154   0.6839446   0.0000000        65    1
   0.3846154   0.7763216   0.0000000        66    1
   0.3846154  -0.3322017   0.0000000        67    1
   0.3846154  -0.2398247   0.0000000        68    1
   0.3846154  -0.1474478   0.0000000        69    1
   0.3846154  -0.0550709   0.0000000        70    1
   0.3846154   0.0373061   0.0000000        71    1
   0.3846154   0.1296830   0.0000000        72    1
   0.4615385   0.2664719   0.0000000        73    1
   0.4615385   0.3588489   0.0000000        74    1
   0.4615385   0.4512258   0.0000000        75    1
   0.4615385   0.5436027   0.0000000        76    1
   0.4615385   0.6359797   0.0000000        77    1
   0.4615385   0.7283566   0.0000000        78    1
   0.4615385   0.8207336   0.0000000        79    1
   0.4615385  -0.2877897   0.0000000        80    1
   0.4615385  -0.1954128   0.0000000        81    1
   0.4615385  -0.1030358   0.0000000        82    1
   0.4615385  -0.0106589   0.0000000        83    1
   0.4615385   0.0817181   0.0000000        84    1
   0.4615385   0.1740950   0.0000000        85    1

     Parallelization info
     --------------------
     sticks:   dense  smooth     PW     G-vecs:    dense   smooth      PW
     Min          18      18      5                 2740     2740     427
     Max          19      19      6                 2767     2767     452
     Sum        1331    1331    391               198065   198065   31435

     Using Slab Decomposition



     bravais-lattice index     =            0
     lattice parameter (alat)  =       8.4715  a.u.
     unit-cell volume          =    2502.8602 (a.u.)^3
     number of atoms/cell      =            5
     number of atomic types    =            2
     number of electrons       =        78.00
     number of Kohn-Sham states=           60
     kinetic-energy cutoff     =      70.0000  Ry
     charge density cutoff     =     280.0000  Ry
     cutoff for Fock operator  =     280.0000  Ry
     Exchange-correlation= B3LYP-V1R
                           (   7  13   9   7   0   0   0)
     EXX-fraction              =        0.20

     celldm(1)=   8.471459  celldm(2)=   0.000000  celldm(3)=   0.000000
     celldm(4)=   0.000000  celldm(5)=   0.000000  celldm(6)=   0.000000

     crystal axes: (cart. coord. in units of alat)
               a(1) = (   1.000000   0.000000   0.000000 )  
               a(2) = (  -0.480769   0.832709   0.000000 )  
               a(3) = (   0.000000   0.000000   4.943891 )  

     reciprocal axes: (cart. coord. in units 2 pi/alat)
               b(1) = (  1.000000  0.577356 -0.000000 )  
               b(2) = (  0.000000  1.200900  0.000000 )  
               b(3) = (  0.000000 -0.000000  0.202270 )  


     PseudoPot. # 1 for Sb read from file:
     /zfs-home/202401017n/pseudos/Sb_ONCV_PBE-1.2.upf
     MD5 check sum: 0417cd6c0fe8ce4611e2b23135f1abd9
     Pseudo is Norm-conserving, Zval = 15.0
     Generated using ONCVPSP code by D. R. Hamann
     Using radial grid of  602 points,  6 beta functions with: 
                l(1) =   0
                l(2) =   0
                l(3) =   1
                l(4) =   1
                l(5) =   2
                l(6) =   2

     PseudoPot. # 2 for Te read from file:
     /zfs-home/202401017n/pseudos/Te_ONCV_PBE-1.2.upf
     MD5 check sum: dd4de4dac1e38587f63aaf3700bb29d3
     Pseudo is Norm-conserving, Zval = 16.0
     Generated using ONCVPSP code by D. R. Hamann
     Using radial grid of  602 points,  6 beta functions with: 
                l(1) =   0
                l(2) =   0
                l(3) =   1
                l(4) =   1
                l(5) =   2
                l(6) =   2

     atomic species   valence    mass     pseudopotential
     Sb               15.00   121.76000     Sb( 1.00)
     Te               16.00   127.60000     Te( 1.00)

     No symmetry found


                                    s                        frac. trans.

      isym =  1     identity                                     

 cryst.   s( 1) = (     1          0          0      )
                  (     0          1          0      )
                  (     0          0          1      )

 cart.    s( 1) = (  1.0000000  0.0000000  0.0000000 )
                  (  0.0000000  1.0000000  0.0000000 )
                  (  0.0000000  0.0000000  1.0000000 )


   Cartesian axes

     site n.     atom                  positions (alat units)
         1        Sb     tau(   1) = (   0.5904646   0.4157527   2.9115514  )
         2        Te     tau(   2) = (   0.5755298   0.3904446   1.6605492  )
         3        Sb     tau(   3) = (   0.0721083   0.1184920   2.0322939  )
         4        Te     tau(   4) = (   0.0869606   0.1439524   3.2833161  )
         5        Te     tau(   5) = (   0.0908738   0.6835524   2.4719228  )

     -------------------------------------------------
     Parameters for Dispersion (Grimme-D2) Correction:
     -------------------------------------------------
       atom      VdW radius       C_6     

        Sb         3.555       1333.532
        Te         3.575       1101.101

   Crystallographic axes

     site n.     atom                  positions (cryst. coord.)
         1        Sb     tau(   1) = (  0.8305018  0.4992775  0.5889190  )
         2        Te     tau(   2) = (  0.8009552  0.4688850  0.3358790  )
         3        Sb     tau(   3) = (  0.1405204  0.1422971  0.4110717  )
         4        Te     tau(   4) = (  0.1700723  0.1728725  0.6641158  )
         5        Te     tau(   5) = (  0.4855268  0.8208782  0.4999954  )

     number of k points=    85
                       cart. coord. in units 2pi/alat
        k(    1) = (   0.0000000   0.0000000   0.0000000), wk =   0.0118343
        k(    2) = (   0.0000000   0.0923769   0.0000000), wk =   0.0236686
        k(    3) = (   0.0000000   0.1847539   0.0000000), wk =   0.0236686
        k(    4) = (   0.0000000   0.2771308   0.0000000), wk =   0.0236686
        k(    5) = (   0.0000000   0.3695077   0.0000000), wk =   0.0236686
        k(    6) = (   0.0000000   0.4618847   0.0000000), wk =   0.0236686
        k(    7) = (   0.0000000   0.5542616   0.0000000), wk =   0.0236686
        k(    8) = (   0.0769231   0.0444120   0.0000000), wk =   0.0236686
        k(    9) = (   0.0769231   0.1367889   0.0000000), wk =   0.0236686
        k(   10) = (   0.0769231   0.2291659   0.0000000), wk =   0.0236686
        k(   11) = (   0.0769231   0.3215428   0.0000000), wk =   0.0236686
        k(   12) = (   0.0769231   0.4139197   0.0000000), wk =   0.0236686
        k(   13) = (   0.0769231   0.5062967   0.0000000), wk =   0.0236686
        k(   14) = (   0.0769231   0.5986736   0.0000000), wk =   0.0236686
        k(   15) = (   0.0769231  -0.5098496   0.0000000), wk =   0.0236686
        k(   16) = (   0.0769231  -0.4174727   0.0000000), wk =   0.0236686
        k(   17) = (   0.0769231  -0.3250958   0.0000000), wk =   0.0236686
        k(   18) = (   0.0769231  -0.2327188   0.0000000), wk =   0.0236686
        k(   19) = (   0.0769231  -0.1403419   0.0000000), wk =   0.0236686
        k(   20) = (   0.0769231  -0.0479649   0.0000000), wk =   0.0236686
        k(   21) = (   0.1538462   0.0888240   0.0000000), wk =   0.0236686
        k(   22) = (   0.1538462   0.1812009   0.0000000), wk =   0.0236686
        k(   23) = (   0.1538462   0.2735779   0.0000000), wk =   0.0236686
        k(   24) = (   0.1538462   0.3659548   0.0000000), wk =   0.0236686
        k(   25) = (   0.1538462   0.4583317   0.0000000), wk =   0.0236686
        k(   26) = (   0.1538462   0.5507087   0.0000000), wk =   0.0236686
        k(   27) = (   0.1538462   0.6430856   0.0000000), wk =   0.0236686
        k(   28) = (   0.1538462  -0.4654376   0.0000000), wk =   0.0236686
        k(   29) = (   0.1538462  -0.3730607   0.0000000), wk =   0.0236686
        k(   30) = (   0.1538462  -0.2806838   0.0000000), wk =   0.0236686
        k(   31) = (   0.1538462  -0.1883068   0.0000000), wk =   0.0236686
        k(   32) = (   0.1538462  -0.0959299   0.0000000), wk =   0.0236686
        k(   33) = (   0.1538462  -0.0035530   0.0000000), wk =   0.0236686
        k(   34) = (   0.2307692   0.1332360   0.0000000), wk =   0.0236686
        k(   35) = (   0.2307692   0.2256129   0.0000000), wk =   0.0236686
        k(   36) = (   0.2307692   0.3179898   0.0000000), wk =   0.0236686
        k(   37) = (   0.2307692   0.4103668   0.0000000), wk =   0.0236686
        k(   38) = (   0.2307692   0.5027437   0.0000000), wk =   0.0236686
        k(   39) = (   0.2307692   0.5951206   0.0000000), wk =   0.0236686
        k(   40) = (   0.2307692   0.6874976   0.0000000), wk =   0.0236686
        k(   41) = (   0.2307692  -0.4210257   0.0000000), wk =   0.0236686
        k(   42) = (   0.2307692  -0.3286487   0.0000000), wk =   0.0236686
        k(   43) = (   0.2307692  -0.2362718   0.0000000), wk =   0.0236686
        k(   44) = (   0.2307692  -0.1438948   0.0000000), wk =   0.0236686
        k(   45) = (   0.2307692  -0.0515179   0.0000000), wk =   0.0236686
        k(   46) = (   0.2307692   0.0408590   0.0000000), wk =   0.0236686
        k(   47) = (   0.3076923   0.1776480   0.0000000), wk =   0.0236686
        k(   48) = (   0.3076923   0.2700249   0.0000000), wk =   0.0236686
        k(   49) = (   0.3076923   0.3624018   0.0000000), wk =   0.0236686
        k(   50) = (   0.3076923   0.4547788   0.0000000), wk =   0.0236686
        k(   51) = (   0.3076923   0.5471557   0.0000000), wk =   0.0236686
        k(   52) = (   0.3076923   0.6395326   0.0000000), wk =   0.0236686
        k(   53) = (   0.3076923   0.7319096   0.0000000), wk =   0.0236686
        k(   54) = (   0.3076923  -0.3766137   0.0000000), wk =   0.0236686
        k(   55) = (   0.3076923  -0.2842367   0.0000000), wk =   0.0236686
        k(   56) = (   0.3076923  -0.1918598   0.0000000), wk =   0.0236686
        k(   57) = (   0.3076923  -0.0994829   0.0000000), wk =   0.0236686
        k(   58) = (   0.3076923  -0.0071059   0.0000000), wk =   0.0236686
        k(   59) = (   0.3076923   0.0852710   0.0000000), wk =   0.0236686
        k(   60) = (   0.3846154   0.2220599   0.0000000), wk =   0.0236686
        k(   61) = (   0.3846154   0.3144369   0.0000000), wk =   0.0236686
        k(   62) = (   0.3846154   0.4068138   0.0000000), wk =   0.0236686
        k(   63) = (   0.3846154   0.4991908   0.0000000), wk =   0.0236686
        k(   64) = (   0.3846154   0.5915677   0.0000000), wk =   0.0236686
        k(   65) = (   0.3846154   0.6839446   0.0000000), wk =   0.0236686
        k(   66) = (   0.3846154   0.7763216   0.0000000), wk =   0.0236686
        k(   67) = (   0.3846154  -0.3322017   0.0000000), wk =   0.0236686
        k(   68) = (   0.3846154  -0.2398247   0.0000000), wk =   0.0236686
        k(   69) = (   0.3846154  -0.1474478   0.0000000), wk =   0.0236686
        k(   70) = (   0.3846154  -0.0550709   0.0000000), wk =   0.0236686
        k(   71) = (   0.3846154   0.0373061   0.0000000), wk =   0.0236686
        k(   72) = (   0.3846154   0.1296830   0.0000000), wk =   0.0236686
        k(   73) = (   0.4615385   0.2664719   0.0000000), wk =   0.0236686
        k(   74) = (   0.4615385   0.3588489   0.0000000), wk =   0.0236686
        k(   75) = (   0.4615385   0.4512258   0.0000000), wk =   0.0236686
        k(   76) = (   0.4615385   0.5436027   0.0000000), wk =   0.0236686
        k(   77) = (   0.4615385   0.6359797   0.0000000), wk =   0.0236686
        k(   78) = (   0.4615385   0.7283566   0.0000000), wk =   0.0236686
        k(   79) = (   0.4615385   0.8207336   0.0000000), wk =   0.0236686
        k(   80) = (   0.4615385  -0.2877897   0.0000000), wk =   0.0236686
        k(   81) = (   0.4615385  -0.1954128   0.0000000), wk =   0.0236686
        k(   82) = (   0.4615385  -0.1030358   0.0000000), wk =   0.0236686
        k(   83) = (   0.4615385  -0.0106589   0.0000000), wk =   0.0236686
        k(   84) = (   0.4615385   0.0817181   0.0000000), wk =   0.0236686
        k(   85) = (   0.4615385   0.1740950   0.0000000), wk =   0.0236686

                       cryst. coord.
        k(    1) = (   0.0000000   0.0000000   0.0000000), wk =   0.0118343
        k(    2) = (   0.0000000   0.0769231   0.0000000), wk =   0.0236686
        k(    3) = (   0.0000000   0.1538462   0.0000000), wk =   0.0236686
        k(    4) = (   0.0000000   0.2307692   0.0000000), wk =   0.0236686
        k(    5) = (   0.0000000   0.3076923   0.0000000), wk =   0.0236686
        k(    6) = (   0.0000000   0.3846154   0.0000000), wk =   0.0236686
        k(    7) = (   0.0000000   0.4615385   0.0000000), wk =   0.0236686
        k(    8) = (   0.0769231   0.0000000   0.0000000), wk =   0.0236686
        k(    9) = (   0.0769231   0.0769231   0.0000000), wk =   0.0236686
        k(   10) = (   0.0769231   0.1538462   0.0000000), wk =   0.0236686
        k(   11) = (   0.0769231   0.2307692   0.0000000), wk =   0.0236686
        k(   12) = (   0.0769231   0.3076923   0.0000000), wk =   0.0236686
        k(   13) = (   0.0769231   0.3846154   0.0000000), wk =   0.0236686
        k(   14) = (   0.0769231   0.4615385   0.0000000), wk =   0.0236686
        k(   15) = (   0.0769231  -0.4615385   0.0000000), wk =   0.0236686
        k(   16) = (   0.0769231  -0.3846154   0.0000000), wk =   0.0236686
        k(   17) = (   0.0769231  -0.3076923   0.0000000), wk =   0.0236686
        k(   18) = (   0.0769231  -0.2307692   0.0000000), wk =   0.0236686
        k(   19) = (   0.0769231  -0.1538462   0.0000000), wk =   0.0236686
        k(   20) = (   0.0769231  -0.0769231   0.0000000), wk =   0.0236686
        k(   21) = (   0.1538462   0.0000000   0.0000000), wk =   0.0236686
        k(   22) = (   0.1538462   0.0769231   0.0000000), wk =   0.0236686
        k(   23) = (   0.1538462   0.1538462   0.0000000), wk =   0.0236686
        k(   24) = (   0.1538462   0.2307692   0.0000000), wk =   0.0236686
        k(   25) = (   0.1538462   0.3076923   0.0000000), wk =   0.0236686
        k(   26) = (   0.1538462   0.3846154   0.0000000), wk =   0.0236686
        k(   27) = (   0.1538462   0.4615385   0.0000000), wk =   0.0236686
        k(   28) = (   0.1538462  -0.4615385   0.0000000), wk =   0.0236686
        k(   29) = (   0.1538462  -0.3846154   0.0000000), wk =   0.0236686
        k(   30) = (   0.1538462  -0.3076923   0.0000000), wk =   0.0236686
        k(   31) = (   0.1538462  -0.2307692   0.0000000), wk =   0.0236686
        k(   32) = (   0.1538462  -0.1538462   0.0000000), wk =   0.0236686
        k(   33) = (   0.1538462  -0.0769231   0.0000000), wk =   0.0236686
        k(   34) = (   0.2307692   0.0000000   0.0000000), wk =   0.0236686
        k(   35) = (   0.2307692   0.0769231   0.0000000), wk =   0.0236686
        k(   36) = (   0.2307692   0.1538462   0.0000000), wk =   0.0236686
        k(   37) = (   0.2307692   0.2307692   0.0000000), wk =   0.0236686
        k(   38) = (   0.2307692   0.3076923   0.0000000), wk =   0.0236686
        k(   39) = (   0.2307692   0.3846154   0.0000000), wk =   0.0236686
        k(   40) = (   0.2307692   0.4615385   0.0000000), wk =   0.0236686
        k(   41) = (   0.2307692  -0.4615385   0.0000000), wk =   0.0236686
        k(   42) = (   0.2307692  -0.3846154   0.0000000), wk =   0.0236686
        k(   43) = (   0.2307692  -0.3076923   0.0000000), wk =   0.0236686
        k(   44) = (   0.2307692  -0.2307692   0.0000000), wk =   0.0236686
        k(   45) = (   0.2307692  -0.1538462   0.0000000), wk =   0.0236686
        k(   46) = (   0.2307692  -0.0769231   0.0000000), wk =   0.0236686
        k(   47) = (   0.3076923   0.0000000   0.0000000), wk =   0.0236686
        k(   48) = (   0.3076923   0.0769231   0.0000000), wk =   0.0236686
        k(   49) = (   0.3076923   0.1538462   0.0000000), wk =   0.0236686
        k(   50) = (   0.3076923   0.2307692   0.0000000), wk =   0.0236686
        k(   51) = (   0.3076923   0.3076923   0.0000000), wk =   0.0236686
        k(   52) = (   0.3076923   0.3846154   0.0000000), wk =   0.0236686
        k(   53) = (   0.3076923   0.4615385   0.0000000), wk =   0.0236686
        k(   54) = (   0.3076923  -0.4615385   0.0000000), wk =   0.0236686
        k(   55) = (   0.3076923  -0.3846154   0.0000000), wk =   0.0236686
        k(   56) = (   0.3076923  -0.3076923   0.0000000), wk =   0.0236686
        k(   57) = (   0.3076923  -0.2307692   0.0000000), wk =   0.0236686
        k(   58) = (   0.3076923  -0.1538462   0.0000000), wk =   0.0236686
        k(   59) = (   0.3076923  -0.0769231   0.0000000), wk =   0.0236686
        k(   60) = (   0.3846154   0.0000000   0.0000000), wk =   0.0236686
        k(   61) = (   0.3846154   0.0769231   0.0000000), wk =   0.0236686
        k(   62) = (   0.3846154   0.1538462   0.0000000), wk =   0.0236686
        k(   63) = (   0.3846154   0.2307692   0.0000000), wk =   0.0236686
        k(   64) = (   0.3846154   0.3076923   0.0000000), wk =   0.0236686
        k(   65) = (   0.3846154   0.3846154   0.0000000), wk =   0.0236686
        k(   66) = (   0.3846154   0.4615385   0.0000000), wk =   0.0236686
        k(   67) = (   0.3846154  -0.4615385   0.0000000), wk =   0.0236686
        k(   68) = (   0.3846154  -0.3846154   0.0000000), wk =   0.0236686
        k(   69) = (   0.3846154  -0.3076923   0.0000000), wk =   0.0236686
        k(   70) = (   0.3846154  -0.2307692   0.0000000), wk =   0.0236686
        k(   71) = (   0.3846154  -0.1538462   0.0000000), wk =   0.0236686
        k(   72) = (   0.3846154  -0.0769231   0.0000000), wk =   0.0236686
        k(   73) = (   0.4615385   0.0000000   0.0000000), wk =   0.0236686
        k(   74) = (   0.4615385   0.0769231   0.0000000), wk =   0.0236686
        k(   75) = (   0.4615385   0.1538462   0.0000000), wk =   0.0236686
        k(   76) = (   0.4615385   0.2307692   0.0000000), wk =   0.0236686
        k(   77) = (   0.4615385   0.3076923   0.0000000), wk =   0.0236686
        k(   78) = (   0.4615385   0.3846154   0.0000000), wk =   0.0236686
        k(   79) = (   0.4615385   0.4615385   0.0000000), wk =   0.0236686
        k(   80) = (   0.4615385  -0.4615385   0.0000000), wk =   0.0236686
        k(   81) = (   0.4615385  -0.3846154   0.0000000), wk =   0.0236686
        k(   82) = (   0.4615385  -0.3076923   0.0000000), wk =   0.0236686
        k(   83) = (   0.4615385  -0.2307692   0.0000000), wk =   0.0236686
        k(   84) = (   0.4615385  -0.1538462   0.0000000), wk =   0.0236686
        k(   85) = (   0.4615385  -0.0769231   0.0000000), wk =   0.0236686

     Dense  grid:   198065 G-vectors     FFT dimensions: (  45,  45, 225)

     Dynamical RAM for                 wfc:       0.31 MB

     Dynamical RAM for     wfc (w. buffer):       0.31 MB

     Dynamical RAM for                 EXX:     466.96 MB

     Dynamical RAM for           str. fact:       0.08 MB

     Dynamical RAM for           local pot:       0.00 MB

     Dynamical RAM for          nlocal pot:       0.47 MB

     Dynamical RAM for                qrad:       2.85 MB

     Dynamical RAM for          rho,v,vnew:       0.31 MB

     Dynamical RAM for           G-vectors:       0.18 MB

     Dynamical RAM for          h,s,v(r/c):       0.66 MB

     Dynamical RAM for          <psi|beta>:       0.08 MB

     Dynamical RAM for                 psi:       0.63 MB

     Dynamical RAM for                hpsi:       0.63 MB

     Dynamical RAM for      wfcinit/wfcrot:       0.71 MB

     Estimated static dynamical RAM per process >     471.60 MB

     Estimated max dynamical RAM per process >     473.60 MB

     Estimated total dynamical RAM >      33.30 GB
     EXX: initializing ACE and reading from file
     ACE potential read for       60 bands
     ACE potential read for       60 bands
     ACE potential read for       60 bands
     ACE potential read for       60 bands
     ACE potential read for       60 bands
     ACE potential read for       60 bands
     ACE potential read for       60 bands
     ACE potential read for       60 bands
     ACE potential read for       60 bands
     ACE potential read for       60 bands
     ACE potential read for       60 bands
     ACE potential read for       60 bands
     ACE potential read for       60 bands
     ACE potential read for       60 bands
     ACE potential read for       60 bands
     ACE potential read for       60 bands
     ACE potential read for       60 bands
     ACE potential read for       60 bands
     ACE potential read for       60 bands
     ACE potential read for       60 bands
     ACE potential read for       60 bands
     ACE potential read for       60 bands
     ACE potential read for       60 bands
     ACE potential read for       60 bands
     ACE potential read for       60 bands
     ACE potential read for       60 bands
     ACE potential read for       60 bands
     ACE potential read for       60 bands
     ACE potential read for       60 bands
     ACE potential read for       60 bands
     ACE potential read for       60 bands
     ACE potential read for       60 bands
     ACE potential read for       60 bands
     ACE potential read for       60 bands
     ACE potential read for       60 bands
     ACE potential read for       60 bands
     ACE potential read for       60 bands
     ACE potential read for       60 bands
     ACE potential read for       60 bands
     ACE potential read for       60 bands
     ACE potential read for       60 bands
     ACE potential read for       60 bands
     ACE potential read for       60 bands
     ACE potential read for       60 bands
     ACE potential read for       60 bands
     ACE potential read for       60 bands
     ACE potential read for       60 bands
     ACE potential read for       60 bands
     ACE potential read for       60 bands
     ACE potential read for       60 bands
     ACE potential read for       60 bands
     ACE potential read for       60 bands
     ACE potential read for       60 bands
     ACE potential read for       60 bands
     ACE potential read for       60 bands
     ACE potential read for       60 bands
     ACE potential read for       60 bands
     ACE potential read for       60 bands
     ACE potential read for       60 bands
     ACE potential read for       60 bands
     ACE potential read for       60 bands
     ACE potential read for       60 bands
     ACE potential read for       60 bands
     ACE potential read for       60 bands
     ACE potential read for       60 bands
     ACE potential read for       60 bands
     ACE potential read for       60 bands
     ACE potential read for       60 bands
     ACE potential read for       60 bands
     ACE potential read for       60 bands
     ACE potential read for       60 bands
     ACE potential read for       60 bands
     ACE potential read for       60 bands
     ACE potential read for       60 bands
     ACE potential read for       60 bands
     ACE potential read for       60 bands
     ACE potential read for       60 bands
     ACE potential read for       60 bands
     ACE potential read for       60 bands
     ACE potential read for       60 bands
     ACE potential read for       60 bands
     ACE potential read for       60 bands
     ACE potential read for       60 bands
     ACE potential read for       60 bands
     ACE potential read for       60 bands
     Starting ACE correctly read from file

     The potential is recalculated from file :
     tmp/Sb2Te3-uatsx-c1-4.0.save/charge-density

     Starting wfcs are random

     Band Structure Calculation
     Davidson diagonalization with overlap

     Computing kpt #:     1  of    85
     total cpu time spent up to now is       13.3 secs

     Computing kpt #:     2  of    85
     total cpu time spent up to now is       14.7 secs

     Computing kpt #:     3  of    85
     total cpu time spent up to now is       15.9 secs

     Computing kpt #:     4  of    85
     total cpu time spent up to now is       17.3 secs

     Computing kpt #:     5  of    85
     total cpu time spent up to now is       18.5 secs

     Computing kpt #:     6  of    85
     total cpu time spent up to now is       20.0 secs

     Computing kpt #:     7  of    85
     total cpu time spent up to now is       21.4 secs

     Computing kpt #:     8  of    85
     total cpu time spent up to now is       23.0 secs

     Computing kpt #:     9  of    85
     total cpu time spent up to now is       24.4 secs

     Computing kpt #:    10  of    85
     total cpu time spent up to now is       25.8 secs

     Computing kpt #:    11  of    85
     total cpu time spent up to now is       27.1 secs

     Computing kpt #:    12  of    85
     total cpu time spent up to now is       28.5 secs

     Computing kpt #:    13  of    85
     total cpu time spent up to now is       29.9 secs

     Computing kpt #:    14  of    85
     total cpu time spent up to now is       31.3 secs

     Computing kpt #:    15  of    85
     total cpu time spent up to now is       32.8 secs

     Computing kpt #:    16  of    85
     total cpu time spent up to now is       34.2 secs

     Computing kpt #:    17  of    85
     total cpu time spent up to now is       35.6 secs

     Computing kpt #:    18  of    85
     total cpu time spent up to now is       37.0 secs

     Computing kpt #:    19  of    85
     total cpu time spent up to now is       38.3 secs

     Computing kpt #:    20  of    85
     total cpu time spent up to now is       39.6 secs

     Computing kpt #:    21  of    85
     total cpu time spent up to now is       40.9 secs

     Computing kpt #:    22  of    85
     total cpu time spent up to now is       42.3 secs

     Computing kpt #:    23  of    85
     total cpu time spent up to now is       43.8 secs

     Computing kpt #:    24  of    85
     total cpu time spent up to now is       45.7 secs

     Computing kpt #:    25  of    85
     total cpu time spent up to now is       47.1 secs

     Computing kpt #:    26  of    85
     total cpu time spent up to now is       48.6 secs

     Computing kpt #:    27  of    85
     total cpu time spent up to now is       50.0 secs

     Computing kpt #:    28  of    85
     total cpu time spent up to now is       51.3 secs

     Computing kpt #:    29  of    85
     total cpu time spent up to now is       52.7 secs

     Computing kpt #:    30  of    85
     total cpu time spent up to now is       54.0 secs

     Computing kpt #:    31  of    85
     total cpu time spent up to now is       55.4 secs

     Computing kpt #:    32  of    85
     total cpu time spent up to now is       56.8 secs

     Computing kpt #:    33  of    85
     total cpu time spent up to now is       58.1 secs

     Computing kpt #:    34  of    85
     total cpu time spent up to now is       59.5 secs

     Computing kpt #:    35  of    85
     total cpu time spent up to now is       60.8 secs

     Computing kpt #:    36  of    85
     total cpu time spent up to now is       62.2 secs

     Computing kpt #:    37  of    85
     total cpu time spent up to now is       63.9 secs

     Computing kpt #:    38  of    85
     total cpu time spent up to now is       65.2 secs

     Computing kpt #:    39  of    85
     total cpu time spent up to now is       66.6 secs

     Computing kpt #:    40  of    85
     total cpu time spent up to now is       67.9 secs

     Computing kpt #:    41  of    85
     total cpu time spent up to now is       69.3 secs

     Computing kpt #:    42  of    85
     total cpu time spent up to now is       70.8 secs

     Computing kpt #:    43  of    85
     total cpu time spent up to now is       72.2 secs

     Computing kpt #:    44  of    85
     total cpu time spent up to now is       73.4 secs

     Computing kpt #:    45  of    85
     total cpu time spent up to now is       74.8 secs

     Computing kpt #:    46  of    85
     total cpu time spent up to now is       76.2 secs

     Computing kpt #:    47  of    85
     total cpu time spent up to now is       77.6 secs

     Computing kpt #:    48  of    85
     total cpu time spent up to now is       78.9 secs

     Computing kpt #:    49  of    85
     total cpu time spent up to now is       80.1 secs

     Computing kpt #:    50  of    85
     total cpu time spent up to now is       81.4 secs

     Computing kpt #:    51  of    85
     total cpu time spent up to now is       82.7 secs

     Computing kpt #:    52  of    85
     total cpu time spent up to now is       84.3 secs

     Computing kpt #:    53  of    85
     total cpu time spent up to now is       85.6 secs

     Computing kpt #:    54  of    85
     total cpu time spent up to now is       86.9 secs

     Computing kpt #:    55  of    85
     total cpu time spent up to now is       88.1 secs

     Computing kpt #:    56  of    85
     total cpu time spent up to now is       89.4 secs

     Computing kpt #:    57  of    85
     total cpu time spent up to now is       90.8 secs

     Computing kpt #:    58  of    85
     total cpu time spent up to now is       92.0 secs

     Computing kpt #:    59  of    85
     total cpu time spent up to now is       93.4 secs

     Computing kpt #:    60  of    85
     total cpu time spent up to now is       94.9 secs

     Computing kpt #:    61  of    85
     total cpu time spent up to now is       96.5 secs

     Computing kpt #:    62  of    85
     total cpu time spent up to now is       98.0 secs

     Computing kpt #:    63  of    85
     total cpu time spent up to now is       99.3 secs

     Computing kpt #:    64  of    85
     total cpu time spent up to now is      101.0 secs

     Computing kpt #:    65  of    85
     total cpu time spent up to now is      102.4 secs

     Computing kpt #:    66  of    85
     total cpu time spent up to now is      103.8 secs

     Computing kpt #:    67  of    85
     total cpu time spent up to now is      105.2 secs

     Computing kpt #:    68  of    85
     total cpu time spent up to now is      106.7 secs

     Computing kpt #:    69  of    85
     total cpu time spent up to now is      108.1 secs

     Computing kpt #:    70  of    85
     total cpu time spent up to now is      110.3 secs

     Computing kpt #:    71  of    85
     total cpu time spent up to now is      111.6 secs

     Computing kpt #:    72  of    85
     total cpu time spent up to now is      113.1 secs

     Computing kpt #:    73  of    85
     total cpu time spent up to now is      114.5 secs

     Computing kpt #:    74  of    85
     total cpu time spent up to now is      116.0 secs

     Computing kpt #:    75  of    85
     total cpu time spent up to now is      117.4 secs

     Computing kpt #:    76  of    85
     total cpu time spent up to now is      118.8 secs

     Computing kpt #:    77  of    85
     total cpu time spent up to now is      120.2 secs

     Computing kpt #:    78  of    85
     total cpu time spent up to now is      121.8 secs

     Computing kpt #:    79  of    85
     total cpu time spent up to now is      123.3 secs

     Computing kpt #:    80  of    85
     total cpu time spent up to now is      124.6 secs

     Computing kpt #:    81  of    85
     total cpu time spent up to now is      126.1 secs

     Computing kpt #:    82  of    85
     total cpu time spent up to now is      127.5 secs

     Computing kpt #:    83  of    85
     total cpu time spent up to now is      129.0 secs

     Computing kpt #:    84  of    85
     total cpu time spent up to now is      130.3 secs

     Computing kpt #:    85  of    85
     total cpu time spent up to now is      131.8 secs

     ethr =  1.28E-09,  avg # of iterations = 45.7

     total cpu time spent up to now is      133.1 secs

     End of band structure calculation

          k = 0.0000 0.0000 0.0000 ( 24691 PWs)   bands (ev):

   -35.7651 -35.7615 -35.7567 -35.7533 -35.7375 -35.7339 -35.7270 -35.7234
   -35.7070 -35.7034 -35.3471 -35.3420 -35.3247 -35.3189 -35.3128 -28.7238
   -28.7222 -28.7123 -28.7107 -28.6850 -28.6794 -28.6737 -28.6681 -28.6481
   -28.6370 -12.2283 -11.7543 -10.5189  -7.6884  -6.3405  -1.2804  -0.9904
    -0.9342  -0.7908  -0.7068  -0.1711   0.0951   0.2537   0.5105   2.2532
     2.8191   2.9567   3.9991   4.1592   4.3133   6.4457   6.6776   7.4817
     8.1744   8.4373   8.7465   8.9601   9.4232   9.5059   9.6890  10.2333
    10.5319  10.6330  10.7995  10.8795

     occupation numbers 
     1.0000   1.0000   1.0000   1.0000   1.0000   1.0000   1.0000   1.0000
     1.0000   1.0000   1.0000   1.0000   1.0000   1.0000   1.0000   1.0000
     1.0000   1.0000   1.0000   1.0000   1.0000   1.0000   1.0000   1.0000
     1.0000   1.0000   1.0000   1.0000   1.0000   1.0000   1.0000   1.0000
     1.0000   1.0000   1.0000   1.0000   1.0000   1.0000   1.0000   0.0000
     0.0000   0.0000   0.0000   0.0000   0.0000   0.0000   0.0000   0.0000
     0.0000   0.0000   0.0000   0.0000   0.0000   0.0000   0.0000   0.0000
     0.0000   0.0000   0.0000   0.0000

          k = 0.0000 0.0924 0.0000 ( 24705 PWs)   bands (ev):

   -35.7637 -35.7601 -35.7588 -35.7554 -35.7327 -35.7291 -35.7281 -35.7245
   -35.7016 -35.6980 -35.3526 -35.3411 -35.3255 -35.3107 -35.3017 -28.7176
   -28.7156 -28.7061 -28.7041 -28.6851 -28.6806 -28.6738 -28.6692 -28.6523
   -28.6412 -12.1650 -11.6939 -10.4858  -7.7186  -6.4509  -1.5023  -1.4201
    -1.0860  -0.9835  -0.7748  -0.4068   0.1861   0.3441   0.8880   2.3656
     2.8953   3.0380   3.9749   4.2504   4.5815   6.5289   6.7272   7.5735
     8.0709   8.4241   8.5825   8.9116   9.4391   9.6310   9.7179  10.0371
    10.4988  10.8029  11.0220  11.3991

     occupation numbers 
     1.0000   1.0000   1.0000   1.0000   1.0000   1.0000   1.0000   1.0000
     1.0000   1.0000   1.0000   1.0000   1.0000   1.0000   1.0000   1.0000
     1.0000   1.0000   1.0000   1.0000   1.0000   1.0000   1.0000   1.0000
     1.0000   1.0000   1.0000   1.0000   1.0000   1.0000   1.0000   1.0000
     1.0000   1.0000   1.0000   1.0000   1.0000   1.0000   1.0000   0.0000
     0.0000   0.0000   0.0000   0.0000   0.0000   0.0000   0.0000   0.0000
     0.0000   0.0000   0.0000   0.0000   0.0000   0.0000   0.0000   0.0000
     0.0000   0.0000   0.0000   0.0000

          k = 0.0000 0.1848 0.0000 ( 24729 PWs)   bands (ev):

   -35.7517 -35.7486 -35.7481 -35.7453 -35.7164 -35.7129 -35.7081 -35.7045
   -35.6835 -35.6800 -35.3490 -35.3363 -35.3219 -35.3075 -35.2987 -28.7126
   -28.7070 -28.7013 -28.6956 -28.6867 -28.6784 -28.6753 -28.6671 -28.6625
   -28.6514 -11.9864 -11.5021 -10.3898  -7.8034  -6.7378  -2.2886  -1.7903
    -1.5281  -1.2530  -1.2072  -0.6474   0.2660   0.5696   0.9992   2.5350
     3.0831   3.3626   4.1915   4.5210   5.0326   6.7411   6.8742   7.6351
     7.8408   8.2841   8.8528   8.9925   9.3910   9.6133   9.8980  10.2485
    10.2805  10.9976  11.4910  11.6371

     occupation numbers 
     1.0000   1.0000   1.0000   1.0000   1.0000   1.0000   1.0000   1.0000
     1.0000   1.0000   1.0000   1.0000   1.0000   1.0000   1.0000   1.0000
     1.0000   1.0000   1.0000   1.0000   1.0000   1.0000   1.0000   1.0000
     1.0000   1.0000   1.0000   1.0000   1.0000   1.0000   1.0000   1.0000
     1.0000   1.0000   1.0000   1.0000   1.0000   1.0000   1.0000   0.0000
     0.0000   0.0000   0.0000   0.0000   0.0000   0.0000   0.0000   0.0000
     0.0000   0.0000   0.0000   0.0000   0.0000   0.0000   0.0000   0.0000
     0.0000   0.0000   0.0000   0.0000

          k = 0.0000 0.2771 0.0000 ( 24766 PWs)   bands (ev):

   -35.7444 -35.7411 -35.7410 -35.7376 -35.7061 -35.7026 -35.6967 -35.6931
   -35.6733 -35.6698 -35.3382 -35.3238 -35.3097 -35.2962 -35.2876 -28.7097
   -28.7000 -28.6983 -28.6886 -28.6860 -28.6777 -28.6745 -28.6664 -28.6621
   -28.6510 -11.7153 -11.2626 -10.2570  -7.9371  -7.1533  -2.9930  -2.1542
    -2.0555  -1.5825  -1.4930  -0.6729   0.0518   0.2522   1.1042   2.6246
     3.2520   3.7095   4.5330   4.8302   5.5132   6.8518   7.0560   7.4761
     8.0987   8.5018   9.1140   9.3528   9.3834   9.5563  10.3536  10.4432
    10.6289  11.1347  11.3027  12.1301

     occupation numbers 
     1.0000   1.0000   1.0000   1.0000   1.0000   1.0000   1.0000   1.0000
     1.0000   1.0000   1.0000   1.0000   1.0000   1.0000   1.0000   1.0000
     1.0000   1.0000   1.0000   1.0000   1.0000   1.0000   1.0000   1.0000
     1.0000   1.0000   1.0000   1.0000   1.0000   1.0000   1.0000   1.0000
     1.0000   1.0000   1.0000   1.0000   1.0000   1.0000   1.0000   0.0000
     0.0000   0.0000   0.0000   0.0000   0.0000   0.0000   0.0000   0.0000
     0.0000   0.0000   0.0000   0.0000   0.0000   0.0000   0.0000   0.0000
     0.0000   0.0000   0.0000   0.0000

          k = 0.0000 0.3695 0.0000 ( 24803 PWs)   bands (ev):

   -35.7374 -35.7340 -35.7330 -35.7296 -35.6972 -35.6937 -35.6862 -35.6826
   -35.6627 -35.6591 -35.3318 -35.3174 -35.2965 -35.2817 -35.2708 -28.7098
   -28.6984 -28.6966 -28.6864 -28.6851 -28.6809 -28.6749 -28.6695 -28.6631
   -28.6519 -11.3634 -10.9649 -10.1289  -8.1844  -7.6197  -3.5482  -2.4803
    -2.4538  -1.7813  -1.7380  -0.9648  -0.0216   0.1860   0.8615   2.6934
     3.3622   3.7558   4.7728   5.1228   5.9739   6.5480   7.4856   7.6970
     8.4017   8.7944   9.1992   9.6534   9.9239  10.1320  10.7160  10.7969
    10.9286  11.1946  11.5979  11.6715

     occupation numbers 
     1.0000   1.0000   1.0000   1.0000   1.0000   1.0000   1.0000   1.0000
     1.0000   1.0000   1.0000   1.0000   1.0000   1.0000   1.0000   1.0000
     1.0000   1.0000   1.0000   1.0000   1.0000   1.0000   1.0000   1.0000
     1.0000   1.0000   1.0000   1.0000   1.0000   1.0000   1.0000   1.0000
     1.0000   1.0000   1.0000   1.0000   1.0000   1.0000   1.0000   0.0000
     0.0000   0.0000   0.0000   0.0000   0.0000   0.0000   0.0000   0.0000
     0.0000   0.0000   0.0000   0.0000   0.0000   0.0000   0.0000   0.0000
     0.0000   0.0000   0.0000   0.0000

          k = 0.0000 0.4619 0.0000 ( 24805 PWs)   bands (ev):

   -35.7305 -35.7271 -35.7257 -35.7222 -35.6952 -35.6918 -35.6807 -35.6771
   -35.6601 -35.6566 -35.3301 -35.3167 -35.2913 -35.2736 -35.2615 -28.7084
   -28.6970 -28.6938 -28.6852 -28.6823 -28.6794 -28.6738 -28.6681 -28.6616
   -28.6505 -10.9604 -10.6548 -10.0877  -8.5221  -8.0195  -3.9278  -2.6899
    -2.6582  -2.0156  -1.9276  -1.1757   0.0512   0.1177   0.5681   2.6837
     3.4027   3.6746   4.9466   5.3330   6.1281   6.3950   7.7691   8.1222
     8.6781   9.1369   9.7058   9.9192  10.1012  10.6189  10.8348  11.1386
    11.2027  11.4583  11.5516  11.8223

     occupation numbers 
     1.0000   1.0000   1.0000   1.0000   1.0000   1.0000   1.0000   1.0000
     1.0000   1.0000   1.0000   1.0000   1.0000   1.0000   1.0000   1.0000
     1.0000   1.0000   1.0000   1.0000   1.0000   1.0000   1.0000   1.0000
     1.0000   1.0000   1.0000   1.0000   1.0000   1.0000   1.0000   1.0000
     1.0000   1.0000   1.0000   1.0000   1.0000   1.0000   1.0000   0.0000
     0.0000   0.0000   0.0000   0.0000   0.0000   0.0000   0.0000   0.0000
     0.0000   0.0000   0.0000   0.0000   0.0000   0.0000   0.0000   0.0000
     0.0000   0.0000   0.0000   0.0000

          k = 0.0000 0.5543 0.0000 ( 24786 PWs)   bands (ev):

   -35.7266 -35.7232 -35.7218 -35.7184 -35.6959 -35.6924 -35.6781 -35.6745
   -35.6618 -35.6583 -35.3303 -35.3179 -35.2905 -35.2704 -35.2580 -28.7064
   -28.6950 -28.6920 -28.6836 -28.6805 -28.6768 -28.6722 -28.6655 -28.6591
   -28.6480 -10.5589 -10.4290 -10.2113  -8.7911  -8.2568  -4.1235  -2.7755
    -2.6992  -2.2476  -2.0251  -1.2279   0.0507   0.1170   0.3978   2.6138
     3.4110   3.6743   4.9788   5.4368   6.1293   6.3254   7.9394   8.7124
     9.0063   9.3335   9.5769   9.7375  10.2819  10.4234  10.9098  11.4011
    11.5961  11.8411  11.9897  12.2457

     occupation numbers 
     1.0000   1.0000   1.0000   1.0000   1.0000   1.0000   1.0000   1.0000
     1.0000   1.0000   1.0000   1.0000   1.0000   1.0000   1.0000   1.0000
     1.0000   1.0000   1.0000   1.0000   1.0000   1.0000   1.0000   1.0000
     1.0000   1.0000   1.0000   1.0000   1.0000   1.0000   1.0000   1.0000
     1.0000   1.0000   1.0000   1.0000   1.0000   1.0000   1.0000   0.0000
     0.0000   0.0000   0.0000   0.0000   0.0000   0.0000   0.0000   0.0000
     0.0000   0.0000   0.0000   0.0000   0.0000   0.0000   0.0000   0.0000
     0.0000   0.0000   0.0000   0.0000

          k = 0.0769 0.0444 0.0000 ( 24716 PWs)   bands (ev):

   -35.7668 -35.7632 -35.7574 -35.7540 -35.7364 -35.7329 -35.7225 -35.7189
   -35.7018 -35.6982 -35.3459 -35.3412 -35.3270 -35.3120 -35.3084 -28.7184
   -28.7164 -28.7070 -28.7049 -28.6910 -28.6797 -28.6769 -28.6656 -28.6542
   -28.6431 -12.1698 -11.6993 -10.4897  -7.7241  -6.4666  -1.6136  -1.4085
    -1.1407  -0.8083  -0.7241  -0.4327   0.3060   0.3557   0.8372   2.5501
     2.7271   3.0292   4.1256   4.2182   4.4626   6.5228   6.7203   7.5711
     8.0324   8.2378   8.8587   9.0156   9.3443   9.5378   9.7215  10.1648
    10.5570  10.8583  11.0002  11.1720

     occupation numbers 
     1.0000   1.0000   1.0000   1.0000   1.0000   1.0000   1.0000   1.0000
     1.0000   1.0000   1.0000   1.0000   1.0000   1.0000   1.0000   1.0000
     1.0000   1.0000   1.0000   1.0000   1.0000   1.0000   1.0000   1.0000
     1.0000   1.0000   1.0000   1.0000   1.0000   1.0000   1.0000   1.0000
     1.0000   1.0000   1.0000   1.0000   1.0000   1.0000   1.0000   0.0000
     0.0000   0.0000   0.0000   0.0000   0.0000   0.0000   0.0000   0.0000
     0.0000   0.0000   0.0000   0.0000   0.0000   0.0000   0.0000   0.0000
     0.0000   0.0000   0.0000   0.0000

          k = 0.0769 0.1368 0.0000 ( 24736 PWs)   bands (ev):

   -35.7656 -35.7620 -35.7495 -35.7461 -35.7246 -35.7211 -35.7135 -35.7099
   -35.6913 -35.6878 -35.3484 -35.3387 -35.3325 -35.3032 -35.3014 -28.7138
   -28.7078 -28.7024 -28.6964 -28.6896 -28.6782 -28.6756 -28.6643 -28.6585
   -28.6474 -12.0511 -11.5741 -10.4293  -7.7849  -6.6662  -2.1010  -1.7057
    -1.5012  -1.2089  -0.7564  -0.6021   0.1089   0.7999   0.9496   2.7328
     2.8335   3.2374   4.2410   4.3676   4.8280   6.6700   6.8218   7.7352
     7.8609   8.0270   8.9632   9.0493   9.3282   9.6093   9.7339  10.1433
    10.5944  11.0152  11.2717  11.5673

     occupation numbers 
     1.0000   1.0000   1.0000   1.0000   1.0000   1.0000   1.0000   1.0000
     1.0000   1.0000   1.0000   1.0000   1.0000   1.0000   1.0000   1.0000
     1.0000   1.0000   1.0000   1.0000   1.0000   1.0000   1.0000   1.0000
     1.0000   1.0000   1.0000   1.0000   1.0000   1.0000   1.0000   1.0000
     1.0000   1.0000   1.0000   1.0000   1.0000   1.0000   1.0000   0.0000
     0.0000   0.0000   0.0000   0.0000   0.0000   0.0000   0.0000   0.0000
     0.0000   0.0000   0.0000   0.0000   0.0000   0.0000   0.0000   0.0000
     0.0000   0.0000   0.0000   0.0000

          k = 0.0769 0.2292 0.0000 ( 24764 PWs)   bands (ev):

   -35.7501 -35.7466 -35.7441 -35.7407 -35.7085 -35.7050 -35.7027 -35.6990
   -35.6775 -35.6740 -35.3409 -35.3274 -35.3234 -35.2970 -35.2949 -28.7112
   -28.7010 -28.6998 -28.6895 -28.6847 -28.6777 -28.6733 -28.6663 -28.6658
   -28.6548 -11.8290 -11.3637 -10.3144  -7.8883  -7.0183  -2.6476  -2.3119
    -1.7358  -1.6207  -1.1259  -0.7791   0.1313   0.5856   1.1104   2.8762
     2.9746   3.5942   4.4662   4.7572   5.2907   6.9203   6.9815   7.5599
     7.9483   8.0826   9.1191   9.2780   9.3245   9.4788  10.1094  10.4213
    10.6562  11.0661  11.5743  11.8026

     occupation numbers 
     1.0000   1.0000   1.0000   1.0000   1.0000   1.0000   1.0000   1.0000
     1.0000   1.0000   1.0000   1.0000   1.0000   1.0000   1.0000   1.0000
     1.0000   1.0000   1.0000   1.0000   1.0000   1.0000   1.0000   1.0000
     1.0000   1.0000   1.0000   1.0000   1.0000   1.0000   1.0000   1.0000
     1.0000   1.0000   1.0000   1.0000   1.0000   1.0000   1.0000   0.0000
     0.0000   0.0000   0.0000   0.0000   0.0000   0.0000   0.0000   0.0000
     0.0000   0.0000   0.0000   0.0000   0.0000   0.0000   0.0000   0.0000
     0.0000   0.0000   0.0000   0.0000

          k = 0.0769 0.3215 0.0000 ( 24782 PWs)   bands (ev):

   -35.7405 -35.7370 -35.7345 -35.7311 -35.7002 -35.6967 -35.6914 -35.6877
   -35.6684 -35.6648 -35.3316 -35.3181 -35.3085 -35.2845 -35.2804 -28.7096
   -28.6983 -28.6968 -28.6854 -28.6845 -28.6811 -28.6731 -28.6697 -28.6656
   -28.6545 -11.5188 -11.0950 -10.1787  -8.0724  -7.4639  -3.2561  -2.6357
    -2.0635  -1.9938  -1.4749  -0.9165   0.1504   0.2397   1.0405   2.9439
     3.1305   3.7546   4.7971   5.0509   5.7698   6.8243   7.2894   7.6123
     8.2233   8.5470   8.8646   9.5261   9.6089  10.0753  10.4683  10.7566
    10.8513  11.0860  11.8056  11.8397

     occupation numbers 
     1.0000   1.0000   1.0000   1.0000   1.0000   1.0000   1.0000   1.0000
     1.0000   1.0000   1.0000   1.0000   1.0000   1.0000   1.0000   1.0000
     1.0000   1.0000   1.0000   1.0000   1.0000   1.0000   1.0000   1.0000
     1.0000   1.0000   1.0000   1.0000   1.0000   1.0000   1.0000   1.0000
     1.0000   1.0000   1.0000   1.0000   1.0000   1.0000   1.0000   0.0000
     0.0000   0.0000   0.0000   0.0000   0.0000   0.0000   0.0000   0.0000
     0.0000   0.0000   0.0000   0.0000   0.0000   0.0000   0.0000   0.0000
     0.0000   0.0000   0.0000   0.0000

          k = 0.0769 0.4139 0.0000 ( 24803 PWs)   bands (ev):

   -35.7317 -35.7283 -35.7268 -35.7234 -35.6952 -35.6918 -35.6853 -35.6816
   -35.6639 -35.6604 -35.3280 -35.3156 -35.2987 -35.2745 -35.2674 -28.7083
   -28.6970 -28.6933 -28.6841 -28.6818 -28.6808 -28.6727 -28.6694 -28.6642
   -28.6531 -11.1408 -10.7875 -10.0838  -8.3630  -7.9065  -3.7285  -2.7561
    -2.4974  -2.2619  -1.6022  -1.1483  -0.0319   0.2339   0.8255   2.9780
     3.1339   3.8031   5.0218   5.2583   6.1061   6.5626   7.7172   7.8952
     8.5641   8.8887   9.2364   9.8458   9.9958  10.3868  10.8503  10.9447
    11.2045  11.3457  11.7163  11.8650

     occupation numbers 
     1.0000   1.0000   1.0000   1.0000   1.0000   1.0000   1.0000   1.0000
     1.0000   1.0000   1.0000   1.0000   1.0000   1.0000   1.0000   1.0000
     1.0000   1.0000   1.0000   1.0000   1.0000   1.0000   1.0000   1.0000
     1.0000   1.0000   1.0000   1.0000   1.0000   1.0000   1.0000   1.0000
     1.0000   1.0000   1.0000   1.0000   1.0000   1.0000   1.0000   0.0000
     0.0000   0.0000   0.0000   0.0000   0.0000   0.0000   0.0000   0.0000
     0.0000   0.0000   0.0000   0.0000   0.0000   0.0000   0.0000   0.0000
     0.0000   0.0000   0.0000   0.0000

          k = 0.0769 0.5063 0.0000 ( 24792 PWs)   bands (ev):

   -35.7263 -35.7229 -35.7215 -35.7180 -35.6935 -35.6901 -35.6815 -35.6778
   -35.6630 -35.6594 -35.3269 -35.3157 -35.2945 -35.2684 -35.2597 -28.7071
   -28.6957 -28.6912 -28.6835 -28.6798 -28.6790 -28.6721 -28.6677 -28.6626
   -28.6515 -10.7300 -10.5034 -10.1060  -8.6903  -8.2340  -4.0175  -2.8323
    -2.6834  -2.4500  -1.7593  -1.3169  -0.0341   0.2032   0.6125   2.9556
     3.1437   3.7353   5.1858   5.3421   6.1919   6.4396   7.9051   8.4348
     8.8316   9.3910   9.6670   9.7236  10.2493  10.5067  10.8630  10.9645
    11.4794  11.5424  11.8706  12.0317

     occupation numbers 
     1.0000   1.0000   1.0000   1.0000   1.0000   1.0000   1.0000   1.0000
     1.0000   1.0000   1.0000   1.0000   1.0000   1.0000   1.0000   1.0000
     1.0000   1.0000   1.0000   1.0000   1.0000   1.0000   1.0000   1.0000
     1.0000   1.0000   1.0000   1.0000   1.0000   1.0000   1.0000   1.0000
     1.0000   1.0000   1.0000   1.0000   1.0000   1.0000   1.0000   0.0000
     0.0000   0.0000   0.0000   0.0000   0.0000   0.0000   0.0000   0.0000
     0.0000   0.0000   0.0000   0.0000   0.0000   0.0000   0.0000   0.0000
     0.0000   0.0000   0.0000   0.0000

          k = 0.0769 0.5987 0.0000 ( 24771 PWs)   bands (ev):

   -35.7249 -35.7215 -35.7195 -35.7161 -35.6939 -35.6904 -35.6796 -35.6760
   -35.6632 -35.6596 -35.3273 -35.3164 -35.2935 -35.2663 -35.2573 -28.7065
   -28.6951 -28.6906 -28.6834 -28.6791 -28.6776 -28.6720 -28.6663 -28.6616
   -28.6505 -10.4080 -10.3711 -10.2708  -8.8463  -8.3587  -4.1165  -2.9271
    -2.6068  -2.5522  -1.8750  -1.3477   0.0485   0.1110   0.5348   2.9045
     3.1940   3.6714   5.2312   5.3606   6.2748   6.2901   8.0049   8.9493
     9.1156   9.1837   9.4199  10.0086  10.1290  10.3035  10.8945  11.2386
    11.5030  11.6897  11.9399  12.1358

     occupation numbers 
     1.0000   1.0000   1.0000   1.0000   1.0000   1.0000   1.0000   1.0000
     1.0000   1.0000   1.0000   1.0000   1.0000   1.0000   1.0000   1.0000
     1.0000   1.0000   1.0000   1.0000   1.0000   1.0000   1.0000   1.0000
     1.0000   1.0000   1.0000   1.0000   1.0000   1.0000   1.0000   1.0000
     1.0000   1.0000   1.0000   1.0000   1.0000   1.0000   1.0000   0.0000
     0.0000   0.0000   0.0000   0.0000   0.0000   0.0000   0.0000   0.0000
     0.0000   0.0000   0.0000   0.0000   0.0000   0.0000   0.0000   0.0000
     0.0000   0.0000   0.0000   0.0000

          k = 0.0769-0.5098 0.0000 ( 24772 PWs)   bands (ev):

   -35.7264 -35.7231 -35.7218 -35.7184 -35.6955 -35.6920 -35.6801 -35.6765
   -35.6630 -35.6594 -35.3287 -35.3166 -35.2942 -35.2680 -35.2596 -28.7072
   -28.6958 -28.6912 -28.6845 -28.6797 -28.6778 -28.6732 -28.6664 -28.6620
   -28.6509 -10.7163 -10.4939 -10.1102  -8.6959  -8.2304  -4.0235  -2.8478
    -2.6928  -2.4185  -1.7887  -1.2900  -0.0136   0.1534   0.6159   2.9294
     3.1551   3.6993   5.1879   5.3030   6.1745   6.4090   7.8932   8.4527
     8.8546   9.3814   9.5660   9.6231  10.2235  10.3570  10.7705  10.9328
    11.3142  11.5628  11.9612  12.1371

     occupation numbers 
     1.0000   1.0000   1.0000   1.0000   1.0000   1.0000   1.0000   1.0000
     1.0000   1.0000   1.0000   1.0000   1.0000   1.0000   1.0000   1.0000
     1.0000   1.0000   1.0000   1.0000   1.0000   1.0000   1.0000   1.0000
     1.0000   1.0000   1.0000   1.0000   1.0000   1.0000   1.0000   1.0000
     1.0000   1.0000   1.0000   1.0000   1.0000   1.0000   1.0000   0.0000
     0.0000   0.0000   0.0000   0.0000   0.0000   0.0000   0.0000   0.0000
     0.0000   0.0000   0.0000   0.0000   0.0000   0.0000   0.0000   0.0000
     0.0000   0.0000   0.0000   0.0000

          k = 0.0769-0.4175 0.0000 ( 24767 PWs)   bands (ev):

   -35.7321 -35.7288 -35.7264 -35.7229 -35.6977 -35.6942 -35.6841 -35.6805
   -35.6638 -35.6603 -35.3307 -35.3169 -35.2973 -35.2736 -35.2664 -28.7088
   -28.6974 -28.6933 -28.6862 -28.6818 -28.6791 -28.6748 -28.6677 -28.6637
   -28.6526 -11.1275 -10.7747 -10.0803  -8.3675  -7.8975  -3.7404  -2.7810
    -2.4981  -2.2250  -1.6457  -1.1027  -0.0109   0.1617   0.8061   2.9596
     3.1274   3.7197   4.9774   5.2588   6.0572   6.5252   7.7116   7.9036
     8.5462   8.8336   9.0353   9.7887   9.9746  10.3614  10.8879  11.0717
    11.1775  11.5229  11.7910  11.8719

     occupation numbers 
     1.0000   1.0000   1.0000   1.0000   1.0000   1.0000   1.0000   1.0000
     1.0000   1.0000   1.0000   1.0000   1.0000   1.0000   1.0000   1.0000
     1.0000   1.0000   1.0000   1.0000   1.0000   1.0000   1.0000   1.0000
     1.0000   1.0000   1.0000   1.0000   1.0000   1.0000   1.0000   1.0000
     1.0000   1.0000   1.0000   1.0000   1.0000   1.0000   1.0000   0.0000
     0.0000   0.0000   0.0000   0.0000   0.0000   0.0000   0.0000   0.0000
     0.0000   0.0000   0.0000   0.0000   0.0000   0.0000   0.0000   0.0000
     0.0000   0.0000   0.0000   0.0000

          k = 0.0769-0.3251 0.0000 ( 24783 PWs)   bands (ev):

   -35.7399 -35.7365 -35.7338 -35.7303 -35.7016 -35.6981 -35.6914 -35.6877
   -35.6685 -35.6649 -35.3340 -35.3185 -35.3054 -35.2833 -35.2780 -28.7108
   -28.6995 -28.6971 -28.6869 -28.6857 -28.6800 -28.6755 -28.6685 -28.6655
   -28.6544 -11.5071 -11.0829 -10.1698  -8.0703  -7.4495  -3.2746  -2.6354
    -2.0855  -1.9610  -1.5006  -0.8567   0.0876   0.2021   0.9944   2.8906
     3.1015   3.6985   4.6898   5.1077   5.7385   6.7850   7.2933   7.5992
     8.1633   8.4661   8.8243   9.4862   9.6035  10.3269  10.5469  10.7775
    10.8557  11.1411  11.8474  11.9198

     occupation numbers 
     1.0000   1.0000   1.0000   1.0000   1.0000   1.0000   1.0000   1.0000
     1.0000   1.0000   1.0000   1.0000   1.0000   1.0000   1.0000   1.0000
     1.0000   1.0000   1.0000   1.0000   1.0000   1.0000   1.0000   1.0000
     1.0000   1.0000   1.0000   1.0000   1.0000   1.0000   1.0000   1.0000
     1.0000   1.0000   1.0000   1.0000   1.0000   1.0000   1.0000   0.0000
     0.0000   0.0000   0.0000   0.0000   0.0000   0.0000   0.0000   0.0000
     0.0000   0.0000   0.0000   0.0000   0.0000   0.0000   0.0000   0.0000
     0.0000   0.0000   0.0000   0.0000

          k = 0.0769-0.2327 0.0000 ( 24736 PWs)   bands (ev):

   -35.7481 -35.7447 -35.7442 -35.7407 -35.7109 -35.7073 -35.7012 -35.6976
   -35.6777 -35.6741 -35.3409 -35.3260 -35.3198 -35.2967 -35.2930 -28.7131
   -28.7019 -28.7005 -28.6892 -28.6846 -28.6788 -28.6732 -28.6674 -28.6656
   -28.6545 -11.8197 -11.3545 -10.3042  -7.8803  -6.9992  -2.6601  -2.2910
    -1.7159  -1.6410  -1.1504  -0.7286   0.0649   0.4945   1.0766   2.6954
     2.9843   3.6397   4.3351   4.8716   5.2746   6.9289   6.9691   7.5156
     7.9360   8.0407   9.1491   9.2233   9.3690   9.6112  10.1756  10.4339
    10.5906  11.1266  11.5013  11.8610

     occupation numbers 
     1.0000   1.0000   1.0000   1.0000   1.0000   1.0000   1.0000   1.0000
     1.0000   1.0000   1.0000   1.0000   1.0000   1.0000   1.0000   1.0000
     1.0000   1.0000   1.0000   1.0000   1.0000   1.0000   1.0000   1.0000
     1.0000   1.0000   1.0000   1.0000   1.0000   1.0000   1.0000   1.0000
     1.0000   1.0000   1.0000   1.0000   1.0000   1.0000   1.0000   0.0000
     0.0000   0.0000   0.0000   0.0000   0.0000   0.0000   0.0000   0.0000
     0.0000   0.0000   0.0000   0.0000   0.0000   0.0000   0.0000   0.0000
     0.0000   0.0000   0.0000   0.0000

          k = 0.0769-0.1403 0.0000 ( 24679 PWs)   bands (ev):

   -35.7628 -35.7593 -35.7469 -35.7434 -35.7238 -35.7203 -35.7151 -35.7115
   -35.6920 -35.6884 -35.3473 -35.3333 -35.3287 -35.3000 -35.2973 -28.7164
   -28.7083 -28.7050 -28.6968 -28.6888 -28.6791 -28.6774 -28.6678 -28.6590
   -28.6478 -12.0445 -11.5694 -10.4168  -7.7770  -6.6470  -2.0570  -1.6966
    -1.4319  -1.2923  -0.7810  -0.6143   0.0228   0.7836   0.8891   2.5482
     2.9584   3.1544   4.1978   4.4966   4.8336   6.6767   6.8261   7.7162
     7.8617   8.0527   8.9801   9.0413   9.3044   9.6385   9.7653  10.1434
    10.4845  10.9683  11.2765  11.6449

     occupation numbers 
     1.0000   1.0000   1.0000   1.0000   1.0000   1.0000   1.0000   1.0000
     1.0000   1.0000   1.0000   1.0000   1.0000   1.0000   1.0000   1.0000
     1.0000   1.0000   1.0000   1.0000   1.0000   1.0000   1.0000   1.0000
     1.0000   1.0000   1.0000   1.0000   1.0000   1.0000   1.0000   1.0000
     1.0000   1.0000   1.0000   1.0000   1.0000   1.0000   1.0000   0.0000
     0.0000   0.0000   0.0000   0.0000   0.0000   0.0000   0.0000   0.0000
     0.0000   0.0000   0.0000   0.0000   0.0000   0.0000   0.0000   0.0000
     0.0000   0.0000   0.0000   0.0000

          k = 0.0769-0.0480 0.0000 ( 24707 PWs)   bands (ev):

   -35.7654 -35.7618 -35.7572 -35.7538 -35.7352 -35.7317 -35.7248 -35.7211
   -35.7019 -35.6983 -35.3506 -35.3374 -35.3295 -35.3095 -35.3048 -28.7185
   -28.7158 -28.7070 -28.7043 -28.6886 -28.6784 -28.6772 -28.6672 -28.6531
   -28.6420 -12.1673 -11.6966 -10.4870  -7.7209  -6.4576  -1.5602  -1.3453
    -1.2007  -0.9073  -0.7257  -0.4076   0.2086   0.3732   0.8658   2.4325
     2.8285   3.0374   4.0740   4.1992   4.5375   6.5258   6.7240   7.5707
     8.0423   8.3267   8.7788   8.9196   9.3769   9.6023   9.7748  10.0265
    10.5341  10.8045  11.0415  11.2929

     occupation numbers 
     1.0000   1.0000   1.0000   1.0000   1.0000   1.0000   1.0000   1.0000
     1.0000   1.0000   1.0000   1.0000   1.0000   1.0000   1.0000   1.0000
     1.0000   1.0000   1.0000   1.0000   1.0000   1.0000   1.0000   1.0000
     1.0000   1.0000   1.0000   1.0000   1.0000   1.0000   1.0000   1.0000
     1.0000   1.0000   1.0000   1.0000   1.0000   1.0000   1.0000   0.0000
     0.0000   0.0000   0.0000   0.0000   0.0000   0.0000   0.0000   0.0000
     0.0000   0.0000   0.0000   0.0000   0.0000   0.0000   0.0000   0.0000
     0.0000   0.0000   0.0000   0.0000

          k = 0.1538 0.0888 0.0000 ( 24710 PWs)   bands (ev):

   -35.7602 -35.7566 -35.7491 -35.7457 -35.7186 -35.7152 -35.7069 -35.7033
   -35.6849 -35.6813 -35.3449 -35.3385 -35.3297 -35.3098 -35.3058 -28.7099
   -28.7085 -28.6985 -28.6971 -28.6922 -28.6808 -28.6721 -28.6612 -28.6606
   -28.6500 -12.0037 -11.5215 -10.4104  -7.8240  -6.7801  -2.4333  -1.6939
    -1.4804  -1.3848  -0.9637  -0.6085   0.4403   0.6762   0.9830   2.7583
     3.2008   3.2282   4.2994   4.4849   4.8510   6.7250   6.8400   7.5634
     7.8127   8.2506   8.9535   9.2179   9.3289   9.4069  10.0603  10.2815
    10.3913  11.1707  11.2601  11.4502

     occupation numbers 
     1.0000   1.0000   1.0000   1.0000   1.0000   1.0000   1.0000   1.0000
     1.0000   1.0000   1.0000   1.0000   1.0000   1.0000   1.0000   1.0000
     1.0000   1.0000   1.0000   1.0000   1.0000   1.0000   1.0000   1.0000
     1.0000   1.0000   1.0000   1.0000   1.0000   1.0000   1.0000   1.0000
     1.0000   1.0000   1.0000   1.0000   1.0000   1.0000   1.0000   0.0000
     0.0000   0.0000   0.0000   0.0000   0.0000   0.0000   0.0000   0.0000
     0.0000   0.0000   0.0000   0.0000   0.0000   0.0000   0.0000   0.0000
     0.0000   0.0000   0.0000   0.0000

          k = 0.1538 0.1812 0.0000 ( 24753 PWs)   bands (ev):

   -35.7561 -35.7525 -35.7453 -35.7419 -35.7123 -35.7089 -35.7004 -35.6968
   -35.6785 -35.6748 -35.3414 -35.3317 -35.3286 -35.2993 -35.2972 -28.7099
   -28.7013 -28.6985 -28.6898 -28.6879 -28.6765 -28.6718 -28.6648 -28.6604
   -28.6537 -11.8428 -11.3786 -10.3321  -7.9057  -7.0437  -2.7730  -2.1693
    -1.8198  -1.4499  -1.2039  -0.6474   0.1890   0.6296   1.1627   2.8304
     3.2574   3.5103   4.3484   5.0186   5.0582   6.8950   6.9613   7.4790
     7.9894   8.0582   9.0347   9.1813   9.3414   9.8219  10.0693  10.3590
    10.8297  10.9756  11.4963  11.8653

     occupation numbers 
     1.0000   1.0000   1.0000   1.0000   1.0000   1.0000   1.0000   1.0000
     1.0000   1.0000   1.0000   1.0000   1.0000   1.0000   1.0000   1.0000
     1.0000   1.0000   1.0000   1.0000   1.0000   1.0000   1.0000   1.0000
     1.0000   1.0000   1.0000   1.0000   1.0000   1.0000   1.0000   1.0000
     1.0000   1.0000   1.0000   1.0000   1.0000   1.0000   1.0000   0.0000
     0.0000   0.0000   0.0000   0.0000   0.0000   0.0000   0.0000   0.0000
     0.0000   0.0000   0.0000   0.0000   0.0000   0.0000   0.0000   0.0000
     0.0000   0.0000   0.0000   0.0000

          k = 0.1538 0.2736 0.0000 ( 24738 PWs)   bands (ev):

   -35.7469 -35.7434 -35.7402 -35.7368 -35.7011 -35.6977 -35.6904 -35.6867
   -35.6650 -35.6614 -35.3390 -35.3269 -35.3209 -35.2838 -35.2830 -28.7089
   -28.6977 -28.6960 -28.6848 -28.6840 -28.6756 -28.6726 -28.6688 -28.6641
   -28.6577 -11.5822 -11.1459 -10.2153  -8.0543  -7.4279  -2.9992  -2.8757
    -2.0632  -1.7591  -1.4647  -1.0052   0.2395   0.7217   0.9551   2.9172
     3.4912   3.6083   4.5263   5.3216   5.5652   7.1451   7.1784   7.5309
     7.8751   8.3149   8.7723   9.2500   9.5895  10.2826  10.4741  10.6960
    10.8220  11.3348  11.7021  11.7945

     occupation numbers 
     1.0000   1.0000   1.0000   1.0000   1.0000   1.0000   1.0000   1.0000
     1.0000   1.0000   1.0000   1.0000   1.0000   1.0000   1.0000   1.0000
     1.0000   1.0000   1.0000   1.0000   1.0000   1.0000   1.0000   1.0000
     1.0000   1.0000   1.0000   1.0000   1.0000   1.0000   1.0000   1.0000
     1.0000   1.0000   1.0000   1.0000   1.0000   1.0000   1.0000   0.0000
     0.0000   0.0000   0.0000   0.0000   0.0000   0.0000   0.0000   0.0000
     0.0000   0.0000   0.0000   0.0000   0.0000   0.0000   0.0000   0.0000
     0.0000   0.0000   0.0000   0.0000

          k = 0.1538 0.3660 0.0000 ( 24767 PWs)   bands (ev):

   -35.7356 -35.7321 -35.7307 -35.7273 -35.6987 -35.6953 -35.6838 -35.6802
   -35.6623 -35.6587 -35.3331 -35.3223 -35.3119 -35.2753 -35.2738 -28.7052
   -28.6940 -28.6923 -28.6813 -28.6810 -28.6761 -28.6697 -28.6671 -28.6647
   -28.6559 -11.2452 -10.8637 -10.1052  -8.2743  -7.8712  -3.4305  -3.1052
    -2.3971  -2.1249  -1.7024  -1.2207   0.2744   0.4469   0.8911   2.9914
     3.5313   3.7021   4.8747   5.5063   5.9232   7.0243   7.5793   7.8326
     8.1719   8.6400   8.7618   9.4641   9.8515  10.2807  10.8062  10.9739
    11.3508  11.5322  11.6374  12.1577

     occupation numbers 
     1.0000   1.0000   1.0000   1.0000   1.0000   1.0000   1.0000   1.0000
     1.0000   1.0000   1.0000   1.0000   1.0000   1.0000   1.0000   1.0000
     1.0000   1.0000   1.0000   1.0000   1.0000   1.0000   1.0000   1.0000
     1.0000   1.0000   1.0000   1.0000   1.0000   1.0000   1.0000   1.0000
     1.0000   1.0000   1.0000   1.0000   1.0000   1.0000   1.0000   0.0000
     0.0000   0.0000   0.0000   0.0000   0.0000   0.0000   0.0000   0.0000
     0.0000   0.0000   0.0000   0.0000   0.0000   0.0000   0.0000   0.0000
     0.0000   0.0000   0.0000   0.0000

          k = 0.1538 0.4583 0.0000 ( 24785 PWs)   bands (ev):

   -35.7289 -35.7256 -35.7255 -35.7223 -35.6964 -35.6930 -35.6797 -35.6760
   -35.6625 -35.6589 -35.3291 -35.3197 -35.3063 -35.2711 -35.2678 -28.7024
   -28.6910 -28.6887 -28.6794 -28.6774 -28.6746 -28.6679 -28.6640 -28.6631
   -28.6528 -10.8545 -10.5684 -10.0538  -8.5701  -8.2705  -3.8092  -3.1349
    -2.6253  -2.5018  -1.7815  -1.3947   0.0641   0.3599   0.8573   2.9493
     3.5150   3.8276   5.0454   5.5886   6.1793   6.8172   7.9770   8.2223
     8.7303   8.8810   9.2941   9.6421  10.1148  10.2896  10.7572  10.9759
    11.3845  11.4740  11.7688  11.9488

     occupation numbers 
     1.0000   1.0000   1.0000   1.0000   1.0000   1.0000   1.0000   1.0000
     1.0000   1.0000   1.0000   1.0000   1.0000   1.0000   1.0000   1.0000
     1.0000   1.0000   1.0000   1.0000   1.0000   1.0000   1.0000   1.0000
     1.0000   1.0000   1.0000   1.0000   1.0000   1.0000   1.0000   1.0000
     1.0000   1.0000   1.0000   1.0000   1.0000   1.0000   1.0000   0.0000
     0.0000   0.0000   0.0000   0.0000   0.0000   0.0000   0.0000   0.0000
     0.0000   0.0000   0.0000   0.0000   0.0000   0.0000   0.0000   0.0000
     0.0000   0.0000   0.0000   0.0000

          k = 0.1538 0.5507 0.0000 ( 24801 PWs)   bands (ev):

   -35.7261 -35.7235 -35.7227 -35.7201 -35.6936 -35.6902 -35.6774 -35.6737
   -35.6606 -35.6570 -35.3268 -35.3180 -35.3024 -35.2674 -35.2629 -28.7021
   -28.6907 -28.6875 -28.6805 -28.6761 -28.6742 -28.6690 -28.6636 -28.6627
   -28.6525 -10.4653 -10.3450 -10.1330  -8.8370  -8.5086  -3.9998  -3.0989
    -2.9706  -2.4547  -1.7629  -1.6572   0.0330   0.3010   0.7771   3.0201
     3.4854   3.6993   5.2172   5.5942   6.2588   6.6801   8.1046   8.7689
     9.0682   9.3842   9.5695   9.7707  10.1737  10.3308  10.7135  10.8202
    11.0274  11.2788  11.4665  11.9607

     occupation numbers 
     1.0000   1.0000   1.0000   1.0000   1.0000   1.0000   1.0000   1.0000
     1.0000   1.0000   1.0000   1.0000   1.0000   1.0000   1.0000   1.0000
     1.0000   1.0000   1.0000   1.0000   1.0000   1.0000   1.0000   1.0000
     1.0000   1.0000   1.0000   1.0000   1.0000   1.0000   1.0000   1.0000
     1.0000   1.0000   1.0000   1.0000   1.0000   1.0000   1.0000   0.0000
     0.0000   0.0000   0.0000   0.0000   0.0000   0.0000   0.0000   0.0000
     0.0000   0.0000   0.0000   0.0000   0.0000   0.0000   0.0000   0.0000
     0.0000   0.0000   0.0000   0.0000

          k = 0.1538 0.6431 0.0000 ( 24783 PWs)   bands (ev):

   -35.7258 -35.7237 -35.7224 -35.7203 -35.6946 -35.6911 -35.6769 -35.6733
   -35.6607 -35.6572 -35.3284 -35.3188 -35.3015 -35.2671 -35.2626 -28.7024
   -28.6910 -28.6877 -28.6810 -28.6764 -28.6736 -28.6695 -28.6633 -28.6621
   -28.6522 -10.4412 -10.3339 -10.1455  -8.8444  -8.5064  -4.0052  -3.1428
    -2.9303  -2.4483  -1.8363  -1.5883   0.0489   0.2594   0.7766   3.0281
     3.4671   3.6619   5.2083   5.5701   6.2300   6.6597   8.0848   8.8151
     9.1244   9.3027   9.3783   9.7566  10.0479  10.3157  10.6163  10.8421
    11.0196  11.4874  11.5364  11.9282

     occupation numbers 
     1.0000   1.0000   1.0000   1.0000   1.0000   1.0000   1.0000   1.0000
     1.0000   1.0000   1.0000   1.0000   1.0000   1.0000   1.0000   1.0000
     1.0000   1.0000   1.0000   1.0000   1.0000   1.0000   1.0000   1.0000
     1.0000   1.0000   1.0000   1.0000   1.0000   1.0000   1.0000   1.0000
     1.0000   1.0000   1.0000   1.0000   1.0000   1.0000   1.0000   0.0000
     0.0000   0.0000   0.0000   0.0000   0.0000   0.0000   0.0000   0.0000
     0.0000   0.0000   0.0000   0.0000   0.0000   0.0000   0.0000   0.0000
     0.0000   0.0000   0.0000   0.0000

          k = 0.1538-0.4654 0.0000 ( 24791 PWs)   bands (ev):

   -35.7281 -35.7260 -35.7247 -35.7225 -35.6986 -35.6952 -35.6790 -35.6754
   -35.6627 -35.6591 -35.3331 -35.3217 -35.3036 -35.2704 -35.2666 -28.7033
   -28.6920 -28.6890 -28.6814 -28.6778 -28.6731 -28.6698 -28.6636 -28.6616
   -28.6524 -10.8265 -10.5441 -10.0514  -8.5824  -8.2609  -3.8271  -3.1641
    -2.5970  -2.5101  -1.8343  -1.3263   0.0591   0.2898   0.8363   2.9527
     3.4627   3.7283   5.0087   5.5452   6.0977   6.7623   7.9468   8.2305
     8.6164   8.7512   9.3089   9.5289  10.0950  10.2647  10.7039  10.9733
    11.4055  11.4480  11.7902  11.9401

     occupation numbers 
     1.0000   1.0000   1.0000   1.0000   1.0000   1.0000   1.0000   1.0000
     1.0000   1.0000   1.0000   1.0000   1.0000   1.0000   1.0000   1.0000
     1.0000   1.0000   1.0000   1.0000   1.0000   1.0000   1.0000   1.0000
     1.0000   1.0000   1.0000   1.0000   1.0000   1.0000   1.0000   1.0000
     1.0000   1.0000   1.0000   1.0000   1.0000   1.0000   1.0000   0.0000
     0.0000   0.0000   0.0000   0.0000   0.0000   0.0000   0.0000   0.0000
     0.0000   0.0000   0.0000   0.0000   0.0000   0.0000   0.0000   0.0000
     0.0000   0.0000   0.0000   0.0000

          k = 0.1538-0.3731 0.0000 ( 24795 PWs)   bands (ev):

   -35.7339 -35.7314 -35.7305 -35.7279 -35.7012 -35.6978 -35.6831 -35.6795
   -35.6620 -35.6584 -35.3372 -35.3241 -35.3075 -35.2748 -35.2712 -28.7071
   -28.6958 -28.6923 -28.6844 -28.6810 -28.6746 -28.6729 -28.6672 -28.6631
   -28.6560 -11.2197 -10.8375 -10.0913  -8.2746  -7.8533  -3.4622  -3.1109
    -2.3988  -2.1428  -1.7341  -1.1392   0.2135   0.3778   0.8323   2.9422
     3.4607   3.6019   4.7725   5.5020   5.8311   6.9526   7.5250   7.8084
     8.0814   8.5980   8.7713   9.3993   9.8845  10.2917  10.8864  10.9936
    11.3973  11.5477  11.9069  12.2134

     occupation numbers 
     1.0000   1.0000   1.0000   1.0000   1.0000   1.0000   1.0000   1.0000
     1.0000   1.0000   1.0000   1.0000   1.0000   1.0000   1.0000   1.0000
     1.0000   1.0000   1.0000   1.0000   1.0000   1.0000   1.0000   1.0000
     1.0000   1.0000   1.0000   1.0000   1.0000   1.0000   1.0000   1.0000
     1.0000   1.0000   1.0000   1.0000   1.0000   1.0000   1.0000   0.0000
     0.0000   0.0000   0.0000   0.0000   0.0000   0.0000   0.0000   0.0000
     0.0000   0.0000   0.0000   0.0000   0.0000   0.0000   0.0000   0.0000
     0.0000   0.0000   0.0000   0.0000

          k = 0.1538-0.2807 0.0000 ( 24784 PWs)   bands (ev):

   -35.7448 -35.7414 -35.7400 -35.7366 -35.7041 -35.7006 -35.6885 -35.6849
   -35.6642 -35.6606 -35.3411 -35.3268 -35.3148 -35.2833 -35.2795 -28.7113
   -28.7000 -28.6957 -28.6862 -28.6844 -28.6759 -28.6748 -28.6693 -28.6644
   -28.6582 -11.5609 -11.1232 -10.1958  -8.0411  -7.4002  -2.9793  -2.9161
    -2.0617  -1.8194  -1.4400  -0.9687   0.1531   0.6364   0.8617   2.7536
     3.4316   3.5956   4.3938   5.3593   5.5264   7.1247   7.1425   7.4542
     7.8586   8.3214   8.7804   9.2019   9.6235  10.4032  10.6283  10.7301
    10.9422  11.3133  11.6534  11.8297

     occupation numbers 
     1.0000   1.0000   1.0000   1.0000   1.0000   1.0000   1.0000   1.0000
     1.0000   1.0000   1.0000   1.0000   1.0000   1.0000   1.0000   1.0000
     1.0000   1.0000   1.0000   1.0000   1.0000   1.0000   1.0000   1.0000
     1.0000   1.0000   1.0000   1.0000   1.0000   1.0000   1.0000   1.0000
     1.0000   1.0000   1.0000   1.0000   1.0000   1.0000   1.0000   0.0000
     0.0000   0.0000   0.0000   0.0000   0.0000   0.0000   0.0000   0.0000
     0.0000   0.0000   0.0000   0.0000   0.0000   0.0000   0.0000   0.0000
     0.0000   0.0000   0.0000   0.0000

          k = 0.1538-0.1883 0.0000 ( 24741 PWs)   bands (ev):

   -35.7521 -35.7486 -35.7437 -35.7402 -35.7129 -35.7095 -35.7001 -35.6964
   -35.6783 -35.6747 -35.3418 -35.3260 -35.3239 -35.2973 -35.2944 -28.7125
   -28.7014 -28.7004 -28.6892 -28.6865 -28.6754 -28.6750 -28.6653 -28.6639
   -28.6541 -11.8264 -11.3616 -10.3124  -7.8879  -7.0104  -2.7229  -2.2138
    -1.7674  -1.5419  -1.2026  -0.6598   0.0893   0.5242   1.0937   2.6674
     3.1103   3.5942   4.2910   4.9916   5.1630   6.9153   6.9573   7.4706
     7.9774   8.0272   9.0966   9.1893   9.3770   9.7814  10.1751  10.3883
    10.6804  11.0420  11.4996  11.8777

     occupation numbers 
     1.0000   1.0000   1.0000   1.0000   1.0000   1.0000   1.0000   1.0000
     1.0000   1.0000   1.0000   1.0000   1.0000   1.0000   1.0000   1.0000
     1.0000   1.0000   1.0000   1.0000   1.0000   1.0000   1.0000   1.0000
     1.0000   1.0000   1.0000   1.0000   1.0000   1.0000   1.0000   1.0000
     1.0000   1.0000   1.0000   1.0000   1.0000   1.0000   1.0000   0.0000
     0.0000   0.0000   0.0000   0.0000   0.0000   0.0000   0.0000   0.0000
     0.0000   0.0000   0.0000   0.0000   0.0000   0.0000   0.0000   0.0000
     0.0000   0.0000   0.0000   0.0000

          k = 0.1538-0.0959 0.0000 ( 24705 PWs)   bands (ev):

   -35.7564 -35.7528 -35.7479 -35.7444 -35.7178 -35.7143 -35.7077 -35.7041
   -35.6846 -35.6810 -35.3483 -35.3334 -35.3283 -35.3075 -35.3021 -28.7117
   -28.7072 -28.7004 -28.6957 -28.6897 -28.6782 -28.6749 -28.6636 -28.6617
   -28.6506 -11.9946 -11.5115 -10.3988  -7.8119  -6.7559  -2.3590  -1.6503
    -1.5956  -1.3265  -1.0977  -0.6142   0.3352   0.6407   0.9809   2.6134
     3.1399   3.3143   4.2105   4.5437   4.9368   6.7338   6.8567   7.5907
     7.8239   8.2914   8.9724   9.0310   9.3720   9.5091  10.0227  10.2019
    10.3605  11.0659  11.3506  11.5539

     occupation numbers 
     1.0000   1.0000   1.0000   1.0000   1.0000   1.0000   1.0000   1.0000
     1.0000   1.0000   1.0000   1.0000   1.0000   1.0000   1.0000   1.0000
     1.0000   1.0000   1.0000   1.0000   1.0000   1.0000   1.0000   1.0000
     1.0000   1.0000   1.0000   1.0000   1.0000   1.0000   1.0000   1.0000
     1.0000   1.0000   1.0000   1.0000   1.0000   1.0000   1.0000   0.0000
     0.0000   0.0000   0.0000   0.0000   0.0000   0.0000   0.0000   0.0000
     0.0000   0.0000   0.0000   0.0000   0.0000   0.0000   0.0000   0.0000
     0.0000   0.0000   0.0000   0.0000

          k = 0.1538-0.0036 0.0000 ( 24712 PWs)   bands (ev):

   -35.7682 -35.7646 -35.7512 -35.7477 -35.7252 -35.7217 -35.7129 -35.7092
   -35.6915 -35.6879 -35.3488 -35.3431 -35.3355 -35.3054 -35.3039 -28.7115
   -28.7074 -28.7001 -28.6960 -28.6899 -28.6785 -28.6731 -28.6618 -28.6578
   -28.6467 -12.0571 -11.5791 -10.4389  -7.7898  -6.6797  -2.1142  -1.6981
    -1.4881  -1.2874  -0.7049  -0.5884   0.1793   0.8481   0.9743   2.8160
     2.8994   3.1968   4.2884   4.3049   4.7676   6.6637   6.8174   7.7366
     7.8949   7.9847   8.9499   9.0937   9.4269   9.5486   9.7481  10.0288
    10.8160  10.9832  11.2760  11.5464

     occupation numbers 
     1.0000   1.0000   1.0000   1.0000   1.0000   1.0000   1.0000   1.0000
     1.0000   1.0000   1.0000   1.0000   1.0000   1.0000   1.0000   1.0000
     1.0000   1.0000   1.0000   1.0000   1.0000   1.0000   1.0000   1.0000
     1.0000   1.0000   1.0000   1.0000   1.0000   1.0000   1.0000   1.0000
     1.0000   1.0000   1.0000   1.0000   1.0000   1.0000   1.0000   0.0000
     0.0000   0.0000   0.0000   0.0000   0.0000   0.0000   0.0000   0.0000
     0.0000   0.0000   0.0000   0.0000   0.0000   0.0000   0.0000   0.0000
     0.0000   0.0000   0.0000   0.0000

          k = 0.2308 0.1332 0.0000 ( 24721 PWs)   bands (ev):

   -35.7530 -35.7494 -35.7410 -35.7377 -35.7069 -35.7034 -35.6992 -35.6955
   -35.6768 -35.6732 -35.3342 -35.3257 -35.3201 -35.2998 -35.2959 -28.7067
   -28.7024 -28.6954 -28.6912 -28.6910 -28.6796 -28.6708 -28.6613 -28.6594
   -28.6502 -11.7525 -11.3031 -10.2968  -7.9821  -7.2131  -3.0948  -2.0840
    -1.8304  -1.8114  -1.2015  -0.6511   0.2043   0.4679   1.2032   2.9425
     3.3789   3.5833   4.7342   4.8519   5.2923   6.8004   7.0220   7.4147
     8.0630   8.4728   9.0208   9.2858   9.4937   9.6972  10.3363  10.4786
    10.7317  11.0893  11.2930  11.9432

     occupation numbers 
     1.0000   1.0000   1.0000   1.0000   1.0000   1.0000   1.0000   1.0000
     1.0000   1.0000   1.0000   1.0000   1.0000   1.0000   1.0000   1.0000
     1.0000   1.0000   1.0000   1.0000   1.0000   1.0000   1.0000   1.0000
     1.0000   1.0000   1.0000   1.0000   1.0000   1.0000   1.0000   1.0000
     1.0000   1.0000   1.0000   1.0000   1.0000   1.0000   1.0000   0.0000
     0.0000   0.0000   0.0000   0.0000   0.0000   0.0000   0.0000   0.0000
     0.0000   0.0000   0.0000   0.0000   0.0000   0.0000   0.0000   0.0000
     0.0000   0.0000   0.0000   0.0000

          k = 0.2308 0.2256 0.0000 ( 24742 PWs)   bands (ev):

   -35.7483 -35.7447 -35.7363 -35.7330 -35.7015 -35.6980 -35.6934 -35.6897
   -35.6712 -35.6676 -35.3327 -35.3217 -35.3173 -35.2866 -35.2848 -28.7067
   -28.6986 -28.6954 -28.6891 -28.6871 -28.6776 -28.6735 -28.6637 -28.6621
   -28.6525 -11.5523 -11.1326 -10.2186  -8.1184  -7.4987  -3.3412  -2.5436
    -2.0203  -1.8520  -1.5076  -0.7634   0.2275   0.3662   1.1775   3.1379
     3.3422   3.6378   4.7091   5.3030   5.5900   6.7842   7.2531   7.5450
     8.1903   8.4573   8.7319   9.4387   9.5823  10.3908  10.5084  10.6741
    10.8208  11.1726  11.7246  11.9863

     occupation numbers 
     1.0000   1.0000   1.0000   1.0000   1.0000   1.0000   1.0000   1.0000
     1.0000   1.0000   1.0000   1.0000   1.0000   1.0000   1.0000   1.0000
     1.0000   1.0000   1.0000   1.0000   1.0000   1.0000   1.0000   1.0000
     1.0000   1.0000   1.0000   1.0000   1.0000   1.0000   1.0000   1.0000
     1.0000   1.0000   1.0000   1.0000   1.0000   1.0000   1.0000   0.0000
     0.0000   0.0000   0.0000   0.0000   0.0000   0.0000   0.0000   0.0000
     0.0000   0.0000   0.0000   0.0000   0.0000   0.0000   0.0000   0.0000
     0.0000   0.0000   0.0000   0.0000

          k = 0.2308 0.3180 0.0000 ( 24718 PWs)   bands (ev):

   -35.7394 -35.7358 -35.7308 -35.7274 -35.6967 -35.6932 -35.6872 -35.6835
   -35.6641 -35.6605 -35.3347 -35.3250 -35.3148 -35.2756 -35.2741 -28.7037
   -28.6939 -28.6922 -28.6826 -28.6823 -28.6734 -28.6710 -28.6660 -28.6620
   -28.6548 -11.2648 -10.8868 -10.1302  -8.3060  -7.8748  -3.4847  -3.0308
[...]
    11.0905  11.3390  11.5611  11.7731

     occupation numbers 
     1.0000   1.0000   1.0000   1.0000   1.0000   1.0000   1.0000   1.0000
     1.0000   1.0000   1.0000   1.0000   1.0000   1.0000   1.0000   1.0000
     1.0000   1.0000   1.0000   1.0000   1.0000   1.0000   1.0000   1.0000
     1.0000   1.0000   1.0000   1.0000   1.0000   1.0000   1.0000   1.0000
     1.0000   1.0000   1.0000   1.0000   1.0000   1.0000   1.0000   0.0000
     0.0000   0.0000   0.0000   0.0000   0.0000   0.0000   0.0000   0.0000
     0.0000   0.0000   0.0000   0.0000   0.0000   0.0000   0.0000   0.0000
     0.0000   0.0000   0.0000   0.0000

          k = 0.4615 0.2665 0.0000 ( 24792 PWs)   bands (ev):

   -35.7743 -35.7608 -35.7270 -35.7220 -35.7187 -35.7051 -35.7010 -35.6714
   -35.6667 -35.6458 -35.2406 -35.2304 -35.2222 -35.1913 -35.1833 -28.6746
   -28.6661 -28.6613 -28.6432 -28.6300 -28.6144 -28.6051 -28.5999 -28.5825
   -28.5702 -10.6678 -10.5536 -10.2521  -8.8065  -8.2085  -4.0620  -2.6646
    -2.4121  -2.3305  -1.6475  -1.1876   0.2179   0.3942   0.7245   3.0185
     3.6733   3.7665   5.3817   5.5169   6.2010   6.3879   7.8040   8.5464
     8.8713   9.1316   9.4003   9.6015  10.1667  10.2634  10.7415  11.3149
    11.4129  11.8672  12.1431  12.2282

     occupation numbers 
     1.0000   1.0000   1.0000   1.0000   1.0000   1.0000   1.0000   1.0000
     1.0000   1.0000   1.0000   1.0000   1.0000   1.0000   1.0000   1.0000
     1.0000   1.0000   1.0000   1.0000   1.0000   1.0000   1.0000   1.0000
     1.0000   1.0000   1.0000   1.0000   1.0000   1.0000   1.0000   1.0000
     1.0000   1.0000   1.0000   1.0000   1.0000   1.0000   1.0000   0.0000
     0.0000   0.0000   0.0000   0.0000   0.0000   0.0000   0.0000   0.0000
     0.0000   0.0000   0.0000   0.0000   0.0000   0.0000   0.0000   0.0000
     0.0000   0.0000   0.0000   0.0000

          k = 0.4615 0.3588 0.0000 ( 24772 PWs)   bands (ev):

   -35.7720 -35.7596 -35.7266 -35.7210 -35.7164 -35.7039 -35.7010 -35.6711
   -35.6658 -35.6458 -35.2379 -35.2315 -35.2255 -35.1868 -35.1807 -28.6744
   -28.6648 -28.6589 -28.6443 -28.6326 -28.6141 -28.6040 -28.5975 -28.5835
   -28.5728 -10.5556 -10.4876 -10.2766  -8.8496  -8.2950  -4.0485  -2.6911
    -2.6305  -2.3588  -1.7431  -1.2293   0.2188   0.3149   0.8956   3.3104
     3.4586   3.7810   5.4310   5.6189   6.3546   6.3892   7.8980   8.7538
     8.9508   9.0457   9.2509   9.8242   9.9485  10.2676  10.7152  11.1334
    11.2680  11.6039  12.1168  12.1579

     occupation numbers 
     1.0000   1.0000   1.0000   1.0000   1.0000   1.0000   1.0000   1.0000
     1.0000   1.0000   1.0000   1.0000   1.0000   1.0000   1.0000   1.0000
     1.0000   1.0000   1.0000   1.0000   1.0000   1.0000   1.0000   1.0000
     1.0000   1.0000   1.0000   1.0000   1.0000   1.0000   1.0000   1.0000
     1.0000   1.0000   1.0000   1.0000   1.0000   1.0000   1.0000   0.0000
     0.0000   0.0000   0.0000   0.0000   0.0000   0.0000   0.0000   0.0000
     0.0000   0.0000   0.0000   0.0000   0.0000   0.0000   0.0000   0.0000
     0.0000   0.0000   0.0000   0.0000

          k = 0.4615 0.4512 0.0000 ( 24755 PWs)   bands (ev):

   -35.7704 -35.7608 -35.7247 -35.7204 -35.7148 -35.7050 -35.6990 -35.6692
   -35.6651 -35.6437 -35.2366 -35.2358 -35.2318 -35.1860 -35.1821 -28.6693
   -28.6628 -28.6509 -28.6433 -28.6338 -28.6091 -28.6023 -28.5896 -28.5824
   -28.5738 -10.5501 -10.4409 -10.1505  -8.8282  -8.4238  -3.9196  -3.0056
    -2.8324  -2.3582  -1.7561  -1.5592   0.1795   0.4662   1.0661   3.3117
     3.7566   3.8380   5.3507   5.8826   6.3179   6.9009   8.0797   8.6347
     8.9290   9.2117   9.3808   9.6386  10.0013  10.2334  10.5927  10.6627
    10.8551  11.2054  11.4175  12.0396

     occupation numbers 
     1.0000   1.0000   1.0000   1.0000   1.0000   1.0000   1.0000   1.0000
     1.0000   1.0000   1.0000   1.0000   1.0000   1.0000   1.0000   1.0000
     1.0000   1.0000   1.0000   1.0000   1.0000   1.0000   1.0000   1.0000
     1.0000   1.0000   1.0000   1.0000   1.0000   1.0000   1.0000   1.0000
     1.0000   1.0000   1.0000   1.0000   1.0000   1.0000   1.0000   0.0000
     0.0000   0.0000   0.0000   0.0000   0.0000   0.0000   0.0000   0.0000
     0.0000   0.0000   0.0000   0.0000   0.0000   0.0000   0.0000   0.0000
     0.0000   0.0000   0.0000   0.0000

          k = 0.4615 0.5436 0.0000 ( 24779 PWs)   bands (ev):

   -35.7666 -35.7535 -35.7249 -35.7183 -35.7110 -35.6991 -35.6978 -35.6694
   -35.6630 -35.6439 -35.2348 -35.2306 -35.2288 -35.1839 -35.1807 -28.6677
   -28.6639 -28.6474 -28.6424 -28.6381 -28.6074 -28.6036 -28.5862 -28.5816
   -28.5776 -10.5665 -10.4019 -10.0111  -8.7552  -8.5696  -3.7089  -3.4076
    -2.8152  -2.3809  -2.0831  -1.5456   0.1429   0.7104   0.9229   3.5199
     3.7117   3.9085   5.5510   5.9780   6.1844   7.7024   8.3416   8.4307
     8.7230   9.0198   9.2586   9.5499   9.9776  10.1905  10.4429  10.6041
    10.6952  11.0776  11.2977  11.6506

     occupation numbers 
     1.0000   1.0000   1.0000   1.0000   1.0000   1.0000   1.0000   1.0000
     1.0000   1.0000   1.0000   1.0000   1.0000   1.0000   1.0000   1.0000
     1.0000   1.0000   1.0000   1.0000   1.0000   1.0000   1.0000   1.0000
     1.0000   1.0000   1.0000   1.0000   1.0000   1.0000   1.0000   1.0000
     1.0000   1.0000   1.0000   1.0000   1.0000   1.0000   1.0000   0.0000
     0.0000   0.0000   0.0000   0.0000   0.0000   0.0000   0.0000   0.0000
     0.0000   0.0000   0.0000   0.0000   0.0000   0.0000   0.0000   0.0000
     0.0000   0.0000   0.0000   0.0000

          k = 0.4615 0.6360 0.0000 ( 24749 PWs)   bands (ev):

   -35.7655 -35.7542 -35.7272 -35.7155 -35.7099 -35.6985 -35.6984 -35.6718
   -35.6601 -35.6432 -35.2365 -35.2314 -35.2263 -35.1838 -35.1812 -28.6691
   -28.6628 -28.6479 -28.6416 -28.6390 -28.6088 -28.6025 -28.5867 -28.5807
   -28.5786 -10.5524 -10.3833  -9.9932  -8.7375  -8.5895  -3.7222  -3.4080
    -2.8298  -2.4072  -2.0938  -1.5296   0.1067   0.6937   0.8875   3.3881
     3.7210   3.9383   5.4719   5.9201   6.2205   7.5408   8.3367   8.5075
     8.8660   8.9972   9.3870   9.5629  10.1019  10.1700  10.3959  10.6100
    10.7539  11.1585  11.2963  11.5437

     occupation numbers 
     1.0000   1.0000   1.0000   1.0000   1.0000   1.0000   1.0000   1.0000
     1.0000   1.0000   1.0000   1.0000   1.0000   1.0000   1.0000   1.0000
     1.0000   1.0000   1.0000   1.0000   1.0000   1.0000   1.0000   1.0000
     1.0000   1.0000   1.0000   1.0000   1.0000   1.0000   1.0000   1.0000
     1.0000   1.0000   1.0000   1.0000   1.0000   1.0000   1.0000   0.0000
     0.0000   0.0000   0.0000   0.0000   0.0000   0.0000   0.0000   0.0000
     0.0000   0.0000   0.0000   0.0000   0.0000   0.0000   0.0000   0.0000
     0.0000   0.0000   0.0000   0.0000

          k = 0.4615 0.7284 0.0000 ( 24732 PWs)   bands (ev):

   -35.7670 -35.7602 -35.7282 -35.7158 -35.7114 -35.7045 -35.6977 -35.6728
   -35.6604 -35.6424 -35.2416 -35.2350 -35.2243 -35.1843 -35.1813 -28.6723
   -28.6613 -28.6520 -28.6441 -28.6358 -28.6119 -28.6009 -28.5906 -28.5829
   -28.5760 -10.5053 -10.3892 -10.1079  -8.8100  -8.4422  -3.9338  -3.0086
    -2.9056  -2.3997  -1.7101  -1.6415   0.1160   0.4153   0.9415   3.1668
     3.6805   3.7690   5.2919   5.7586   6.3028   6.8051   8.0960   8.6660
     8.9595   9.3279   9.5393   9.6766  10.1542  10.2930  10.6386  10.7524
    10.8962  11.2576  11.4102  12.0463

     occupation numbers 
     1.0000   1.0000   1.0000   1.0000   1.0000   1.0000   1.0000   1.0000
     1.0000   1.0000   1.0000   1.0000   1.0000   1.0000   1.0000   1.0000
     1.0000   1.0000   1.0000   1.0000   1.0000   1.0000   1.0000   1.0000
     1.0000   1.0000   1.0000   1.0000   1.0000   1.0000   1.0000   1.0000
     1.0000   1.0000   1.0000   1.0000   1.0000   1.0000   1.0000   0.0000
     0.0000   0.0000   0.0000   0.0000   0.0000   0.0000   0.0000   0.0000
     0.0000   0.0000   0.0000   0.0000   0.0000   0.0000   0.0000   0.0000
     0.0000   0.0000   0.0000   0.0000

          k = 0.4615 0.8207 0.0000 ( 24724 PWs)   bands (ev):

   -35.7671 -35.7572 -35.7290 -35.7178 -35.7115 -35.7016 -35.7004 -35.6736
   -35.6624 -35.6452 -35.2430 -35.2323 -35.2164 -35.1837 -35.1775 -28.6772
   -28.6634 -28.6585 -28.6464 -28.6338 -28.6167 -28.6025 -28.5972 -28.5856
   -28.5741 -10.4803 -10.4144 -10.2371  -8.8291  -8.3017  -4.0584  -2.7891
    -2.5839  -2.4454  -1.8328  -1.2665   0.1581   0.2077   0.7364   3.1181
     3.3355   3.7323   5.3839   5.4487   6.3213   6.3422   7.9493   8.8378
     9.0293   9.1032   9.3284   9.8985  10.0298  10.2685  10.7895  11.0388
    11.3771  11.7574  11.9963  12.1446

     occupation numbers 
     1.0000   1.0000   1.0000   1.0000   1.0000   1.0000   1.0000   1.0000
     1.0000   1.0000   1.0000   1.0000   1.0000   1.0000   1.0000   1.0000
     1.0000   1.0000   1.0000   1.0000   1.0000   1.0000   1.0000   1.0000
     1.0000   1.0000   1.0000   1.0000   1.0000   1.0000   1.0000   1.0000
     1.0000   1.0000   1.0000   1.0000   1.0000   1.0000   1.0000   0.0000
     0.0000   0.0000   0.0000   0.0000   0.0000   0.0000   0.0000   0.0000
     0.0000   0.0000   0.0000   0.0000   0.0000   0.0000   0.0000   0.0000
     0.0000   0.0000   0.0000   0.0000

          k = 0.4615-0.2878 0.0000 ( 24758 PWs)   bands (ev):

   -35.7691 -35.7589 -35.7307 -35.7171 -35.7135 -35.7033 -35.6997 -35.6753
   -35.6617 -35.6445 -35.2457 -35.2327 -35.2137 -35.1879 -35.1788 -28.6772
   -28.6646 -28.6599 -28.6454 -28.6311 -28.6168 -28.6034 -28.5988 -28.5848
   -28.5714 -10.5982 -10.4806 -10.2034  -8.7800  -8.2076  -4.0686  -2.6674
    -2.5454  -2.3066  -1.8415  -1.1873   0.1716   0.2293   0.5901   2.8261
     3.5452   3.7311   5.1868   5.4801   6.1725   6.3616   7.8702   8.6211
     8.9334   9.2213   9.4827   9.6589  10.2317  10.3084  10.8038  11.3061
    11.4341  11.8283  12.0006  12.2432

     occupation numbers 
     1.0000   1.0000   1.0000   1.0000   1.0000   1.0000   1.0000   1.0000
     1.0000   1.0000   1.0000   1.0000   1.0000   1.0000   1.0000   1.0000
     1.0000   1.0000   1.0000   1.0000   1.0000   1.0000   1.0000   1.0000
     1.0000   1.0000   1.0000   1.0000   1.0000   1.0000   1.0000   1.0000
     1.0000   1.0000   1.0000   1.0000   1.0000   1.0000   1.0000   0.0000
     0.0000   0.0000   0.0000   0.0000   0.0000   0.0000   0.0000   0.0000
     0.0000   0.0000   0.0000   0.0000   0.0000   0.0000   0.0000   0.0000
     0.0000   0.0000   0.0000   0.0000

          k = 0.4615-0.1954 0.0000 ( 24696 PWs)   bands (ev):

   -35.7684 -35.7590 -35.7277 -35.7202 -35.7128 -35.7033 -35.7003 -35.6723
   -35.6649 -35.6450 -35.2416 -35.2313 -35.2181 -35.1860 -35.1799 -28.6777
   -28.6643 -28.6583 -28.6476 -28.6349 -28.6173 -28.6034 -28.5970 -28.5868
   -28.5752 -10.7555 -10.5505 -10.0996  -8.6779  -8.1858  -3.9613  -2.7120
    -2.6172  -2.3745  -1.7160  -1.2497   0.0684   0.3276   0.8031   3.1785
     3.2765   3.8035   5.3073   5.4640   6.2353   6.5043   7.8532   8.3468
     8.7606   9.3005   9.6022   9.6822  10.1865  10.4971  10.8384  10.9282
    11.4390  11.5161  11.8127  12.0006

     occupation numbers 
     1.0000   1.0000   1.0000   1.0000   1.0000   1.0000   1.0000   1.0000
     1.0000   1.0000   1.0000   1.0000   1.0000   1.0000   1.0000   1.0000
     1.0000   1.0000   1.0000   1.0000   1.0000   1.0000   1.0000   1.0000
     1.0000   1.0000   1.0000   1.0000   1.0000   1.0000   1.0000   1.0000
     1.0000   1.0000   1.0000   1.0000   1.0000   1.0000   1.0000   0.0000
     0.0000   0.0000   0.0000   0.0000   0.0000   0.0000   0.0000   0.0000
     0.0000   0.0000   0.0000   0.0000   0.0000   0.0000   0.0000   0.0000
     0.0000   0.0000   0.0000   0.0000

          k = 0.4615-0.1030 0.0000 ( 24744 PWs)   bands (ev):

   -35.7694 -35.7624 -35.7301 -35.7182 -35.7138 -35.7067 -35.6995 -35.6747
   -35.6628 -35.6442 -35.2422 -35.2360 -35.2293 -35.1882 -35.1854 -28.6726
   -28.6624 -28.6513 -28.6443 -28.6365 -28.6123 -28.6019 -28.5901 -28.5831
   -28.5767 -10.8689 -10.6044 -10.0364  -8.5478  -8.2216  -3.7493  -3.0399
    -2.5697  -2.4561  -1.7123  -1.4108   0.1604   0.4866   1.0109   3.0995
     3.7046   3.9098   5.1333   5.7474   6.2266   6.9533   7.9552   8.1511
     8.6947   8.9743   9.2581   9.6237  10.0477  10.2844  10.7092  10.9351
    11.3345  11.3832  11.6883  11.8557

     occupation numbers 
     1.0000   1.0000   1.0000   1.0000   1.0000   1.0000   1.0000   1.0000
     1.0000   1.0000   1.0000   1.0000   1.0000   1.0000   1.0000   1.0000
     1.0000   1.0000   1.0000   1.0000   1.0000   1.0000   1.0000   1.0000
     1.0000   1.0000   1.0000   1.0000   1.0000   1.0000   1.0000   1.0000
     1.0000   1.0000   1.0000   1.0000   1.0000   1.0000   1.0000   0.0000
     0.0000   0.0000   0.0000   0.0000   0.0000   0.0000   0.0000   0.0000
     0.0000   0.0000   0.0000   0.0000   0.0000   0.0000   0.0000   0.0000
     0.0000   0.0000   0.0000   0.0000

          k = 0.4615-0.0107 0.0000 ( 24760 PWs)   bands (ev):

   -35.7707 -35.7561 -35.7270 -35.7196 -35.7152 -35.7004 -35.6990 -35.6717
   -35.6642 -35.6437 -35.2400 -35.2344 -35.2315 -35.1860 -35.1831 -28.6717
   -28.6646 -28.6494 -28.6441 -28.6401 -28.6114 -28.6043 -28.5882 -28.5833
   -28.5797 -10.9127 -10.6298 -10.0164  -8.4864  -8.2590  -3.4896  -3.3897
    -2.5450  -2.1864  -2.1039  -1.3768   0.3193   0.7579   0.8338   3.4635
     3.5740   3.9402   5.2978   5.8529   6.1121   7.6358   7.8444   8.1380
     8.1900   8.8201   9.1016   9.3082  10.0019  10.1753  10.8258  10.9150
    11.2492  11.3688  11.7002  11.8829

     occupation numbers 
     1.0000   1.0000   1.0000   1.0000   1.0000   1.0000   1.0000   1.0000
     1.0000   1.0000   1.0000   1.0000   1.0000   1.0000   1.0000   1.0000
     1.0000   1.0000   1.0000   1.0000   1.0000   1.0000   1.0000   1.0000
     1.0000   1.0000   1.0000   1.0000   1.0000   1.0000   1.0000   1.0000
     1.0000   1.0000   1.0000   1.0000   1.0000   1.0000   1.0000   0.0000
     0.0000   0.0000   0.0000   0.0000   0.0000   0.0000   0.0000   0.0000
     0.0000   0.0000   0.0000   0.0000   0.0000   0.0000   0.0000   0.0000
     0.0000   0.0000   0.0000   0.0000

          k = 0.4615 0.0817 0.0000 ( 24746 PWs)   bands (ev):

   -35.7722 -35.7626 -35.7265 -35.7229 -35.7167 -35.7069 -35.7007 -35.6711
   -35.6675 -35.6455 -35.2401 -35.2363 -35.2350 -35.1890 -35.1856 -28.6704
   -28.6639 -28.6513 -28.6434 -28.6348 -28.6102 -28.6035 -28.5900 -28.5825
   -28.5747 -10.8932 -10.6349 -10.0667  -8.5758  -8.2126  -3.7513  -3.0183
    -2.5282  -2.4205  -1.7279  -1.3573   0.2128   0.5187   1.1090   3.2361
     3.7799   3.9019   5.1714   5.8526   6.1924   7.0209   7.9317   8.1194
     8.6811   8.8238   9.1944   9.4877   9.9859  10.2546  10.6416  10.8896
    11.2156  11.3757  11.7066  11.7915

     occupation numbers 
     1.0000   1.0000   1.0000   1.0000   1.0000   1.0000   1.0000   1.0000
     1.0000   1.0000   1.0000   1.0000   1.0000   1.0000   1.0000   1.0000
     1.0000   1.0000   1.0000   1.0000   1.0000   1.0000   1.0000   1.0000
     1.0000   1.0000   1.0000   1.0000   1.0000   1.0000   1.0000   1.0000
     1.0000   1.0000   1.0000   1.0000   1.0000   1.0000   1.0000   0.0000
     0.0000   0.0000   0.0000   0.0000   0.0000   0.0000   0.0000   0.0000
     0.0000   0.0000   0.0000   0.0000   0.0000   0.0000   0.0000   0.0000
     0.0000   0.0000   0.0000   0.0000

          k = 0.4615 0.1741 0.0000 ( 24787 PWs)   bands (ev):

   -35.7734 -35.7614 -35.7264 -35.7227 -35.7178 -35.7057 -35.7011 -35.6709
   -35.6673 -35.6458 -35.2370 -35.2312 -35.2274 -35.1890 -35.1831 -28.6750
   -28.6657 -28.6590 -28.6450 -28.6333 -28.6147 -28.6049 -28.5976 -28.5842
   -28.5735 -10.8042 -10.6079 -10.1494  -8.7084  -8.1843  -3.9581  -2.7231
    -2.5377  -2.2929  -1.6638  -1.1985   0.1593   0.3916   0.9573   3.3666
     3.3934   3.8220   5.3495   5.6074   6.2532   6.5245   7.7975   8.2950
     8.7280   9.2257   9.4865   9.5606  10.1645  10.3385  10.7647  10.8074
    11.2789  11.5310  11.8674  12.1147

     occupation numbers 
     1.0000   1.0000   1.0000   1.0000   1.0000   1.0000   1.0000   1.0000
     1.0000   1.0000   1.0000   1.0000   1.0000   1.0000   1.0000   1.0000
     1.0000   1.0000   1.0000   1.0000   1.0000   1.0000   1.0000   1.0000
     1.0000   1.0000   1.0000   1.0000   1.0000   1.0000   1.0000   1.0000
     1.0000   1.0000   1.0000   1.0000   1.0000   1.0000   1.0000   0.0000
     0.0000   0.0000   0.0000   0.0000   0.0000   0.0000   0.0000   0.0000
     0.0000   0.0000   0.0000   0.0000   0.0000   0.0000   0.0000   0.0000
     0.0000   0.0000   0.0000   0.0000

     highest occupied, lowest unoccupied level (ev):     1.2569    2.2947

     Writing all to output data dir tmp/Sb2Te3-uatsx-c1-4.0.save/ :
     XML data file, pseudopotentials, collected wavefunctions

     init_run     :     11.04s CPU     11.82s WALL (       1 calls)
     electrons    :   1280.72s CPU   1290.75s WALL (       1 calls)

     Called by init_run:
     aceinit0     :     10.52s CPU     11.26s WALL (       1 calls)
     wfcinit      :      0.00s CPU      0.03s WALL (       1 calls)
     wfcinit:wfcr :      6.54s CPU      6.65s WALL (     170 calls)
     potinit      :      0.03s CPU      0.03s WALL (       1 calls)
     hinit0       :      0.46s CPU      0.46s WALL (       1 calls)

     Called by electrons:
     c_bands      :    236.88s CPU    240.03s WALL (       2 calls)
     sum_band     :      1.32s CPU      1.35s WALL (       1 calls)
     v_of_rho     :      0.03s CPU      0.03s WALL (       2 calls)
     v_h          :      0.00s CPU      0.00s WALL (       2 calls)
     v_xc         :      0.03s CPU      0.03s WALL (       2 calls)

     Called by c_bands:
     init_us_2    :      0.06s CPU      0.08s WALL (     255 calls)
     cegterg      :    225.06s CPU    227.86s WALL (     470 calls)

     Called by sum_band:
     sum_band:wei :      0.00s CPU      0.00s WALL (       1 calls)
     sum_band:loo :      1.32s CPU      1.35s WALL (       1 calls)
     sum_band:buf :      0.01s CPU      0.02s WALL (      85 calls)
     sum_band:ini :      0.02s CPU      0.03s WALL (      85 calls)

     Called by *egterg:
     cdiaghg      :     44.60s CPU     44.80s WALL (    7894 calls)
     cegterg:over :     17.90s CPU     18.03s WALL (    7724 calls)
     cegterg:upda :      3.08s CPU      3.13s WALL (    7724 calls)
     cegterg:last :      5.78s CPU      5.82s WALL (    4063 calls)
     h_psi        :    152.97s CPU    155.42s WALL (    8364 calls)
     g_psi        :      0.82s CPU      0.83s WALL (    7724 calls)

     Called by h_psi:
     h_psi:calbec :      9.23s CPU      9.32s WALL (    8364 calls)
     vloc_psi     :    133.10s CPU    135.37s WALL (    8364 calls)
     add_vuspsi   :      2.39s CPU      2.42s WALL (    8364 calls)

     General routines
     calbec       :     15.24s CPU     15.40s WALL (   16813 calls)
     fft          :      0.48s CPU      0.48s WALL (      19 calls)
     ffts         :      0.00s CPU      0.00s WALL (       1 calls)
     fftw         :    128.14s CPU    130.31s WALL (  528018 calls)
     fftc         :    970.37s CPU    976.36s WALL (  612000 calls)
     fftcw        :      4.02s CPU      4.08s WALL (   15300 calls)
     davcio       :      0.06s CPU      0.23s WALL (     510 calls)

     Parallel routines

     EXX routines
     exx_grid     :      0.00s CPU      0.00s WALL (       1 calls)
     exxinit      :     21.46s CPU     21.80s WALL (       1 calls)
     vexx         :   1020.87s CPU   1027.30s WALL (      85 calls)
     matcalc      :      6.07s CPU      6.13s WALL (    8449 calls)
     aceupdate    :      0.03s CPU      0.03s WALL (      85 calls)
     vexxace      :      7.88s CPU      7.95s WALL (    8364 calls)
     aceinit      :   1021.01s CPU   1027.45s WALL (      85 calls)

     PWSCF        :  21m59.43s CPU  22m50.84s WALL


   This run was terminated on:   2:11:18  15May2025            

=------------------------------------------------------------------------------=
   JOB DONE.
=------------------------------------------------------------------------------=
