
     Program PWSCF v.7.3.1 starts on 14May2025 at 21:41: 1 

     This program is part of the open-source Quantum ESPRESSO suite
     for quantum simulation of materials; please cite
         "P. Giannozzi et al., J. Phys.:Condens. Matter 21 395502 (2009);
         "P. Giannozzi et al., J. Phys.:Condens. Matter 29 465901 (2017);
         "P. Giannozzi et al., J. Chem. Phys. 152 154105 (2020);
          URL http://www.quantum-espresso.org", 
     in publications or presentations arising from this work. More details at
     http://www.quantum-espresso.org/quote

     Parallel version (MPI & OpenMP), running on      72 processor cores
     Number of MPI processes:                72
     Threads/MPI process:                     1

     MPI processes distributed on     3 nodes
     97848 MiB available memory on the printing compute node when the environment starts

     Waiting for input...
     Reading input from standard input

     Current dimensions of program PWSCF are:
     Max number of different atomic species (ntypx) = 10
     Max number of k-points (npk) =  40000
     Max angular momentum in pseudopotentials (lmaxx) =  4

     IMPORTANT: XC functional enforced from input :
     Exchange-correlation= B3LYP-V1R
                           (   7  13   9   7   0   0   0)
     EXX-fraction              =        0.20
     Any further DFT definition will be discarded
     Please, verify this is what you really want


     Atomic positions and unit cell read from directory:
     tmp/Sb2Te3-uatsx-c1-2.0.save/

     EXX fraction changed:   0.20

     R & G space division:  proc/nbgrp/npool/nimage =      72
     Subspace diagonalization in iterative solution of the eigenvalue problem:
     a serial algorithm will be used

     EXX: q-point mesh:     1    1    1
     EXX: setup a grid of 85 q-points centered on each k-point
     (k+q)-points:
   0.0000000   0.0000000   0.0000000         1    1
   0.0000000   0.0906005   0.0000000         2    1
   0.0000000   0.1812009   0.0000000         3    1
   0.0000000   0.2718014   0.0000000         4    1
   0.0000000   0.3624018   0.0000000         5    1
   0.0000000   0.4530023   0.0000000         6    1
   0.0000000   0.5436027   0.0000000         7    1
   0.0769231   0.0444120   0.0000000         8    1
   0.0769231   0.1350124   0.0000000         9    1
   0.0769231   0.2256129   0.0000000        10    1
   0.0769231   0.3162134   0.0000000        11    1
   0.0769231   0.4068138   0.0000000        12    1
   0.0769231   0.4974143   0.0000000        13    1
   0.0769231   0.5880147   0.0000000        14    1
   0.0769231  -0.4991908   0.0000000        15    1
   0.0769231  -0.4085903   0.0000000        16    1
   0.0769231  -0.3179898   0.0000000        17    1
   0.0769231  -0.2273894   0.0000000        18    1
   0.0769231  -0.1367889   0.0000000        19    1
   0.0769231  -0.0461885   0.0000000        20    1
   0.1538462   0.0888240   0.0000000        21    1
   0.1538462   0.1794244   0.0000000        22    1
   0.1538462   0.2700249   0.0000000        23    1
   0.1538462   0.3606253   0.0000000        24    1
   0.1538462   0.4512258   0.0000000        25    1
   0.1538462   0.5418263   0.0000000        26    1
   0.1538462   0.6324267   0.0000000        27    1
   0.1538462  -0.4547788   0.0000000        28    1
   0.1538462  -0.3641783   0.0000000        29    1
   0.1538462  -0.2735779   0.0000000        30    1
   0.1538462  -0.1829774   0.0000000        31    1
   0.1538462  -0.0923769   0.0000000        32    1
   0.1538462  -0.0017765   0.0000000        33    1
   0.2307692   0.1332360   0.0000000        34    1
   0.2307692   0.2238364   0.0000000        35    1
   0.2307692   0.3144369   0.0000000        36    1
   0.2307692   0.4050373   0.0000000        37    1
   0.2307692   0.4956378   0.0000000        38    1
   0.2307692   0.5862383   0.0000000        39    1
   0.2307692   0.6768387   0.0000000        40    1
   0.2307692  -0.4103668   0.0000000        41    1
   0.2307692  -0.3197663   0.0000000        42    1
   0.2307692  -0.2291659   0.0000000        43    1
   0.2307692  -0.1385654   0.0000000        44    1
   0.2307692  -0.0479649   0.0000000        45    1
   0.2307692   0.0426355   0.0000000        46    1
   0.3076923   0.1776480   0.0000000        47    1
   0.3076923   0.2682484   0.0000000        48    1
   0.3076923   0.3588489   0.0000000        49    1
   0.3076923   0.4494493   0.0000000        50    1
   0.3076923   0.5400498   0.0000000        51    1
   0.3076923   0.6306502   0.0000000        52    1
   0.3076923   0.7212507   0.0000000        53    1
   0.3076923  -0.3659548   0.0000000        54    1
   0.3076923  -0.2753543   0.0000000        55    1
   0.3076923  -0.1847539   0.0000000        56    1
   0.3076923  -0.0941534   0.0000000        57    1
   0.3076923  -0.0035530   0.0000000        58    1
   0.3076923   0.0870475   0.0000000        59    1
   0.3846154   0.2220599   0.0000000        60    1
   0.3846154   0.3126604   0.0000000        61    1
   0.3846154   0.4032609   0.0000000        62    1
   0.3846154   0.4938613   0.0000000        63    1
   0.3846154   0.5844618   0.0000000        64    1
   0.3846154   0.6750622   0.0000000        65    1
   0.3846154   0.7656627   0.0000000        66    1
   0.3846154  -0.3215428   0.0000000        67    1
   0.3846154  -0.2309423   0.0000000        68    1
   0.3846154  -0.1403419   0.0000000        69    1
   0.3846154  -0.0497414   0.0000000        70    1
   0.3846154   0.0408590   0.0000000        71    1
   0.3846154   0.1314595   0.0000000        72    1
   0.4615385   0.2664719   0.0000000        73    1
   0.4615385   0.3570724   0.0000000        74    1
   0.4615385   0.4476728   0.0000000        75    1
   0.4615385   0.5382733   0.0000000        76    1
   0.4615385   0.6288738   0.0000000        77    1
   0.4615385   0.7194742   0.0000000        78    1
   0.4615385   0.8100747   0.0000000        79    1
   0.4615385  -0.2771308   0.0000000        80    1
   0.4615385  -0.1865304   0.0000000        81    1
   0.4615385  -0.0959299   0.0000000        82    1
   0.4615385  -0.0053294   0.0000000        83    1
   0.4615385   0.0852710   0.0000000        84    1
   0.4615385   0.1758715   0.0000000        85    1

     Parallelization info
     --------------------
     sticks:   dense  smooth     PW     G-vecs:    dense   smooth      PW
     Min          18      18      5                 2684     2684     421
     Max          19      19      6                 2704     2704     446
     Sum        1305    1305    379               194215   194215   30887

     Using Slab Decomposition



     bravais-lattice index     =            0
     lattice parameter (alat)  =       8.3085  a.u.
     unit-cell volume          =    2454.7283 (a.u.)^3
     number of atoms/cell      =            5
     number of atomic types    =            2
     number of electrons       =        78.00
     number of Kohn-Sham states=           60
     kinetic-energy cutoff     =      70.0000  Ry
     charge density cutoff     =     280.0000  Ry
     cutoff for Fock operator  =     280.0000  Ry
     Exchange-correlation= B3LYP-V1R
                           (   7  13   9   7   0   0   0)
     EXX-fraction              =        0.20

     celldm(1)=   8.308546  celldm(2)=   0.000000  celldm(3)=   0.000000
     celldm(4)=   0.000000  celldm(5)=   0.000000  celldm(6)=   0.000000

     crystal axes: (cart. coord. in units of alat)
               a(1) = (   1.000000   0.000000   0.000000 )  
               a(2) = (  -0.490196   0.849036   0.000000 )  
               a(3) = (   0.000000   0.000000   5.040830 )  

     reciprocal axes: (cart. coord. in units 2 pi/alat)
               b(1) = (  1.000000  0.577356 -0.000000 )  
               b(2) = (  0.000000  1.177806  0.000000 )  
               b(3) = (  0.000000 -0.000000  0.198380 )  


     PseudoPot. # 1 for Sb read from file:
     /zfs-home/202401017n/pseudos/Sb_ONCV_PBE-1.2.upf
     MD5 check sum: 0417cd6c0fe8ce4611e2b23135f1abd9
     Pseudo is Norm-conserving, Zval = 15.0
     Generated using ONCVPSP code by D. R. Hamann
     Using radial grid of  602 points,  6 beta functions with: 
                l(1) =   0
                l(2) =   0
                l(3) =   1
                l(4) =   1
                l(5) =   2
                l(6) =   2

     PseudoPot. # 2 for Te read from file:
     /zfs-home/202401017n/pseudos/Te_ONCV_PBE-1.2.upf
     MD5 check sum: dd4de4dac1e38587f63aaf3700bb29d3
     Pseudo is Norm-conserving, Zval = 16.0
     Generated using ONCVPSP code by D. R. Hamann
     Using radial grid of  602 points,  6 beta functions with: 
                l(1) =   0
                l(2) =   0
                l(3) =   1
                l(4) =   1
                l(5) =   2
                l(6) =   2

     atomic species   valence    mass     pseudopotential
     Sb               15.00   121.76000     Sb( 1.00)
     Te               16.00   127.60000     Te( 1.00)

     No symmetry found


                                    s                        frac. trans.

      isym =  1     identity                                     

 cryst.   s( 1) = (     1          0          0      )
                  (     0          1          0      )
                  (     0          0          1      )

 cart.    s( 1) = (  1.0000000  0.0000000  0.0000000 )
                  (  0.0000000  1.0000000  0.0000000 )
                  (  0.0000000  0.0000000  1.0000000 )


   Cartesian axes

     site n.     atom                  positions (alat units)
         1        Sb     tau(   1) = (   0.5829733   0.4189608   2.9724649  )
         2        Te     tau(   2) = (   0.5752175   0.4057666   1.6850437  )
         3        Sb     tau(   3) = (   0.0736071   0.1257310   2.0683360  )
         4        Te     tau(   4) = (   0.0811854   0.1390911   3.3558017  )
         5        Te     tau(   5) = (   0.0831178   0.6970014   2.5203330  )

     -------------------------------------------------
     Parameters for Dispersion (Grimme-D2) Correction:
     -------------------------------------------------
       atom      VdW radius       C_6     

        Sb         3.555       1333.532
        Te         3.575       1101.101

   Crystallographic axes

     site n.     atom                  positions (cryst. coord.)
         1        Sb     tau(   1) = (  0.8248627  0.4934545  0.5896776  )
         2        Te     tau(   2) = (  0.8094892  0.4779143  0.3342790  )
         3        Sb     tau(   3) = (  0.1461986  0.1480867  0.4103165  )
         4        Te     tau(   4) = (  0.1614904  0.1638223  0.6657240  )
         5        Te     tau(   5) = (  0.4855356  0.8209324  0.4999837  )

     number of k points=    85
                       cart. coord. in units 2pi/alat
        k(    1) = (   0.0000000   0.0000000   0.0000000), wk =   0.0118343
        k(    2) = (   0.0000000   0.0906005   0.0000000), wk =   0.0236686
        k(    3) = (   0.0000000   0.1812009   0.0000000), wk =   0.0236686
        k(    4) = (   0.0000000   0.2718014   0.0000000), wk =   0.0236686
        k(    5) = (   0.0000000   0.3624018   0.0000000), wk =   0.0236686
        k(    6) = (   0.0000000   0.4530023   0.0000000), wk =   0.0236686
        k(    7) = (   0.0000000   0.5436027   0.0000000), wk =   0.0236686
        k(    8) = (   0.0769231   0.0444120   0.0000000), wk =   0.0236686
        k(    9) = (   0.0769231   0.1350124   0.0000000), wk =   0.0236686
        k(   10) = (   0.0769231   0.2256129   0.0000000), wk =   0.0236686
        k(   11) = (   0.0769231   0.3162134   0.0000000), wk =   0.0236686
        k(   12) = (   0.0769231   0.4068138   0.0000000), wk =   0.0236686
        k(   13) = (   0.0769231   0.4974143   0.0000000), wk =   0.0236686
        k(   14) = (   0.0769231   0.5880147   0.0000000), wk =   0.0236686
        k(   15) = (   0.0769231  -0.4991908   0.0000000), wk =   0.0236686
        k(   16) = (   0.0769231  -0.4085903   0.0000000), wk =   0.0236686
        k(   17) = (   0.0769231  -0.3179898   0.0000000), wk =   0.0236686
        k(   18) = (   0.0769231  -0.2273894   0.0000000), wk =   0.0236686
        k(   19) = (   0.0769231  -0.1367889   0.0000000), wk =   0.0236686
        k(   20) = (   0.0769231  -0.0461885   0.0000000), wk =   0.0236686
        k(   21) = (   0.1538462   0.0888240   0.0000000), wk =   0.0236686
        k(   22) = (   0.1538462   0.1794244   0.0000000), wk =   0.0236686
        k(   23) = (   0.1538462   0.2700249   0.0000000), wk =   0.0236686
        k(   24) = (   0.1538462   0.3606253   0.0000000), wk =   0.0236686
        k(   25) = (   0.1538462   0.4512258   0.0000000), wk =   0.0236686
        k(   26) = (   0.1538462   0.5418263   0.0000000), wk =   0.0236686
        k(   27) = (   0.1538462   0.6324267   0.0000000), wk =   0.0236686
        k(   28) = (   0.1538462  -0.4547788   0.0000000), wk =   0.0236686
        k(   29) = (   0.1538462  -0.3641783   0.0000000), wk =   0.0236686
        k(   30) = (   0.1538462  -0.2735779   0.0000000), wk =   0.0236686
        k(   31) = (   0.1538462  -0.1829774   0.0000000), wk =   0.0236686
        k(   32) = (   0.1538462  -0.0923769   0.0000000), wk =   0.0236686
        k(   33) = (   0.1538462  -0.0017765   0.0000000), wk =   0.0236686
        k(   34) = (   0.2307692   0.1332360   0.0000000), wk =   0.0236686
        k(   35) = (   0.2307692   0.2238364   0.0000000), wk =   0.0236686
        k(   36) = (   0.2307692   0.3144369   0.0000000), wk =   0.0236686
        k(   37) = (   0.2307692   0.4050373   0.0000000), wk =   0.0236686
        k(   38) = (   0.2307692   0.4956378   0.0000000), wk =   0.0236686
        k(   39) = (   0.2307692   0.5862383   0.0000000), wk =   0.0236686
        k(   40) = (   0.2307692   0.6768387   0.0000000), wk =   0.0236686
        k(   41) = (   0.2307692  -0.4103668   0.0000000), wk =   0.0236686
        k(   42) = (   0.2307692  -0.3197663   0.0000000), wk =   0.0236686
        k(   43) = (   0.2307692  -0.2291659   0.0000000), wk =   0.0236686
        k(   44) = (   0.2307692  -0.1385654   0.0000000), wk =   0.0236686
        k(   45) = (   0.2307692  -0.0479649   0.0000000), wk =   0.0236686
        k(   46) = (   0.2307692   0.0426355   0.0000000), wk =   0.0236686
        k(   47) = (   0.3076923   0.1776480   0.0000000), wk =   0.0236686
        k(   48) = (   0.3076923   0.2682484   0.0000000), wk =   0.0236686
        k(   49) = (   0.3076923   0.3588489   0.0000000), wk =   0.0236686
        k(   50) = (   0.3076923   0.4494493   0.0000000), wk =   0.0236686
        k(   51) = (   0.3076923   0.5400498   0.0000000), wk =   0.0236686
        k(   52) = (   0.3076923   0.6306502   0.0000000), wk =   0.0236686
        k(   53) = (   0.3076923   0.7212507   0.0000000), wk =   0.0236686
        k(   54) = (   0.3076923  -0.3659548   0.0000000), wk =   0.0236686
        k(   55) = (   0.3076923  -0.2753543   0.0000000), wk =   0.0236686
        k(   56) = (   0.3076923  -0.1847539   0.0000000), wk =   0.0236686
        k(   57) = (   0.3076923  -0.0941534   0.0000000), wk =   0.0236686
        k(   58) = (   0.3076923  -0.0035530   0.0000000), wk =   0.0236686
        k(   59) = (   0.3076923   0.0870475   0.0000000), wk =   0.0236686
        k(   60) = (   0.3846154   0.2220599   0.0000000), wk =   0.0236686
        k(   61) = (   0.3846154   0.3126604   0.0000000), wk =   0.0236686
        k(   62) = (   0.3846154   0.4032609   0.0000000), wk =   0.0236686
        k(   63) = (   0.3846154   0.4938613   0.0000000), wk =   0.0236686
        k(   64) = (   0.3846154   0.5844618   0.0000000), wk =   0.0236686
        k(   65) = (   0.3846154   0.6750622   0.0000000), wk =   0.0236686
        k(   66) = (   0.3846154   0.7656627   0.0000000), wk =   0.0236686
        k(   67) = (   0.3846154  -0.3215428   0.0000000), wk =   0.0236686
        k(   68) = (   0.3846154  -0.2309423   0.0000000), wk =   0.0236686
        k(   69) = (   0.3846154  -0.1403419   0.0000000), wk =   0.0236686
        k(   70) = (   0.3846154  -0.0497414   0.0000000), wk =   0.0236686
        k(   71) = (   0.3846154   0.0408590   0.0000000), wk =   0.0236686
        k(   72) = (   0.3846154   0.1314595   0.0000000), wk =   0.0236686
        k(   73) = (   0.4615385   0.2664719   0.0000000), wk =   0.0236686
        k(   74) = (   0.4615385   0.3570724   0.0000000), wk =   0.0236686
        k(   75) = (   0.4615385   0.4476728   0.0000000), wk =   0.0236686
        k(   76) = (   0.4615385   0.5382733   0.0000000), wk =   0.0236686
        k(   77) = (   0.4615385   0.6288738   0.0000000), wk =   0.0236686
        k(   78) = (   0.4615385   0.7194742   0.0000000), wk =   0.0236686
        k(   79) = (   0.4615385   0.8100747   0.0000000), wk =   0.0236686
        k(   80) = (   0.4615385  -0.2771308   0.0000000), wk =   0.0236686
        k(   81) = (   0.4615385  -0.1865304   0.0000000), wk =   0.0236686
        k(   82) = (   0.4615385  -0.0959299   0.0000000), wk =   0.0236686
        k(   83) = (   0.4615385  -0.0053294   0.0000000), wk =   0.0236686
        k(   84) = (   0.4615385   0.0852710   0.0000000), wk =   0.0236686
        k(   85) = (   0.4615385   0.1758715   0.0000000), wk =   0.0236686

                       cryst. coord.
        k(    1) = (   0.0000000   0.0000000   0.0000000), wk =   0.0118343
        k(    2) = (   0.0000000   0.0769231   0.0000000), wk =   0.0236686
        k(    3) = (   0.0000000   0.1538462   0.0000000), wk =   0.0236686
        k(    4) = (   0.0000000   0.2307692   0.0000000), wk =   0.0236686
        k(    5) = (   0.0000000   0.3076923   0.0000000), wk =   0.0236686
        k(    6) = (   0.0000000   0.3846154   0.0000000), wk =   0.0236686
        k(    7) = (   0.0000000   0.4615385   0.0000000), wk =   0.0236686
        k(    8) = (   0.0769231   0.0000000   0.0000000), wk =   0.0236686
        k(    9) = (   0.0769231   0.0769231   0.0000000), wk =   0.0236686
        k(   10) = (   0.0769231   0.1538462   0.0000000), wk =   0.0236686
        k(   11) = (   0.0769231   0.2307692   0.0000000), wk =   0.0236686
        k(   12) = (   0.0769231   0.3076923   0.0000000), wk =   0.0236686
        k(   13) = (   0.0769231   0.3846154   0.0000000), wk =   0.0236686
        k(   14) = (   0.0769231   0.4615385   0.0000000), wk =   0.0236686
        k(   15) = (   0.0769231  -0.4615385   0.0000000), wk =   0.0236686
        k(   16) = (   0.0769231  -0.3846154   0.0000000), wk =   0.0236686
        k(   17) = (   0.0769231  -0.3076923   0.0000000), wk =   0.0236686
        k(   18) = (   0.0769231  -0.2307692   0.0000000), wk =   0.0236686
        k(   19) = (   0.0769231  -0.1538462   0.0000000), wk =   0.0236686
        k(   20) = (   0.0769231  -0.0769231   0.0000000), wk =   0.0236686
        k(   21) = (   0.1538462   0.0000000   0.0000000), wk =   0.0236686
        k(   22) = (   0.1538462   0.0769231   0.0000000), wk =   0.0236686
        k(   23) = (   0.1538462   0.1538462   0.0000000), wk =   0.0236686
        k(   24) = (   0.1538462   0.2307692   0.0000000), wk =   0.0236686
        k(   25) = (   0.1538462   0.3076923   0.0000000), wk =   0.0236686
        k(   26) = (   0.1538462   0.3846154   0.0000000), wk =   0.0236686
        k(   27) = (   0.1538462   0.4615385   0.0000000), wk =   0.0236686
        k(   28) = (   0.1538462  -0.4615385   0.0000000), wk =   0.0236686
        k(   29) = (   0.1538462  -0.3846154   0.0000000), wk =   0.0236686
        k(   30) = (   0.1538462  -0.3076923   0.0000000), wk =   0.0236686
        k(   31) = (   0.1538462  -0.2307692   0.0000000), wk =   0.0236686
        k(   32) = (   0.1538462  -0.1538462   0.0000000), wk =   0.0236686
        k(   33) = (   0.1538462  -0.0769231   0.0000000), wk =   0.0236686
        k(   34) = (   0.2307692   0.0000000   0.0000000), wk =   0.0236686
        k(   35) = (   0.2307692   0.0769231   0.0000000), wk =   0.0236686
        k(   36) = (   0.2307692   0.1538462   0.0000000), wk =   0.0236686
        k(   37) = (   0.2307692   0.2307692   0.0000000), wk =   0.0236686
        k(   38) = (   0.2307692   0.3076923   0.0000000), wk =   0.0236686
        k(   39) = (   0.2307692   0.3846154   0.0000000), wk =   0.0236686
        k(   40) = (   0.2307692   0.4615385   0.0000000), wk =   0.0236686
        k(   41) = (   0.2307692  -0.4615385   0.0000000), wk =   0.0236686
        k(   42) = (   0.2307692  -0.3846154   0.0000000), wk =   0.0236686
        k(   43) = (   0.2307692  -0.3076923   0.0000000), wk =   0.0236686
        k(   44) = (   0.2307692  -0.2307692   0.0000000), wk =   0.0236686
        k(   45) = (   0.2307692  -0.1538462   0.0000000), wk =   0.0236686
        k(   46) = (   0.2307692  -0.0769231   0.0000000), wk =   0.0236686
        k(   47) = (   0.3076923   0.0000000   0.0000000), wk =   0.0236686
        k(   48) = (   0.3076923   0.0769231   0.0000000), wk =   0.0236686
        k(   49) = (   0.3076923   0.1538462   0.0000000), wk =   0.0236686
        k(   50) = (   0.3076923   0.2307692   0.0000000), wk =   0.0236686
        k(   51) = (   0.3076923   0.3076923   0.0000000), wk =   0.0236686
        k(   52) = (   0.3076923   0.3846154   0.0000000), wk =   0.0236686
        k(   53) = (   0.3076923   0.4615385   0.0000000), wk =   0.0236686
        k(   54) = (   0.3076923  -0.4615385   0.0000000), wk =   0.0236686
        k(   55) = (   0.3076923  -0.3846154   0.0000000), wk =   0.0236686
        k(   56) = (   0.3076923  -0.3076923   0.0000000), wk =   0.0236686
        k(   57) = (   0.3076923  -0.2307692   0.0000000), wk =   0.0236686
        k(   58) = (   0.3076923  -0.1538462   0.0000000), wk =   0.0236686
        k(   59) = (   0.3076923  -0.0769231   0.0000000), wk =   0.0236686
        k(   60) = (   0.3846154   0.0000000   0.0000000), wk =   0.0236686
        k(   61) = (   0.3846154   0.0769231   0.0000000), wk =   0.0236686
        k(   62) = (   0.3846154   0.1538462   0.0000000), wk =   0.0236686
        k(   63) = (   0.3846154   0.2307692   0.0000000), wk =   0.0236686
        k(   64) = (   0.3846154   0.3076923   0.0000000), wk =   0.0236686
        k(   65) = (   0.3846154   0.3846154   0.0000000), wk =   0.0236686
        k(   66) = (   0.3846154   0.4615385   0.0000000), wk =   0.0236686
        k(   67) = (   0.3846154  -0.4615385   0.0000000), wk =   0.0236686
        k(   68) = (   0.3846154  -0.3846154   0.0000000), wk =   0.0236686
        k(   69) = (   0.3846154  -0.3076923   0.0000000), wk =   0.0236686
        k(   70) = (   0.3846154  -0.2307692   0.0000000), wk =   0.0236686
        k(   71) = (   0.3846154  -0.1538462   0.0000000), wk =   0.0236686
        k(   72) = (   0.3846154  -0.0769231   0.0000000), wk =   0.0236686
        k(   73) = (   0.4615385   0.0000000   0.0000000), wk =   0.0236686
        k(   74) = (   0.4615385   0.0769231   0.0000000), wk =   0.0236686
        k(   75) = (   0.4615385   0.1538462   0.0000000), wk =   0.0236686
        k(   76) = (   0.4615385   0.2307692   0.0000000), wk =   0.0236686
        k(   77) = (   0.4615385   0.3076923   0.0000000), wk =   0.0236686
        k(   78) = (   0.4615385   0.3846154   0.0000000), wk =   0.0236686
        k(   79) = (   0.4615385   0.4615385   0.0000000), wk =   0.0236686
        k(   80) = (   0.4615385  -0.4615385   0.0000000), wk =   0.0236686
        k(   81) = (   0.4615385  -0.3846154   0.0000000), wk =   0.0236686
        k(   82) = (   0.4615385  -0.3076923   0.0000000), wk =   0.0236686
        k(   83) = (   0.4615385  -0.2307692   0.0000000), wk =   0.0236686
        k(   84) = (   0.4615385  -0.1538462   0.0000000), wk =   0.0236686
        k(   85) = (   0.4615385  -0.0769231   0.0000000), wk =   0.0236686

     Dense  grid:   194215 G-vectors     FFT dimensions: (  45,  45, 225)

     Dynamical RAM for                 wfc:       0.31 MB

     Dynamical RAM for     wfc (w. buffer):       0.31 MB

     Dynamical RAM for                 EXX:     458.00 MB

     Dynamical RAM for           str. fact:       0.08 MB

     Dynamical RAM for           local pot:       0.00 MB

     Dynamical RAM for          nlocal pot:       0.46 MB

     Dynamical RAM for                qrad:       2.85 MB

     Dynamical RAM for          rho,v,vnew:       0.31 MB

     Dynamical RAM for           G-vectors:       0.17 MB

     Dynamical RAM for          h,s,v(r/c):       0.66 MB

     Dynamical RAM for          <psi|beta>:       0.08 MB

     Dynamical RAM for                 psi:       0.62 MB

     Dynamical RAM for                hpsi:       0.62 MB

     Dynamical RAM for      wfcinit/wfcrot:       0.70 MB

     Estimated static dynamical RAM per process >     462.63 MB

     Estimated max dynamical RAM per process >     464.60 MB

     Estimated total dynamical RAM >      32.67 GB
     EXX: initializing ACE and reading from file
     ACE potential read for       60 bands
     ACE potential read for       60 bands
     ACE potential read for       60 bands
     ACE potential read for       60 bands
     ACE potential read for       60 bands
     ACE potential read for       60 bands
     ACE potential read for       60 bands
     ACE potential read for       60 bands
     ACE potential read for       60 bands
     ACE potential read for       60 bands
     ACE potential read for       60 bands
     ACE potential read for       60 bands
     ACE potential read for       60 bands
     ACE potential read for       60 bands
     ACE potential read for       60 bands
     ACE potential read for       60 bands
     ACE potential read for       60 bands
     ACE potential read for       60 bands
     ACE potential read for       60 bands
     ACE potential read for       60 bands
     ACE potential read for       60 bands
     ACE potential read for       60 bands
     ACE potential read for       60 bands
     ACE potential read for       60 bands
     ACE potential read for       60 bands
     ACE potential read for       60 bands
     ACE potential read for       60 bands
     ACE potential read for       60 bands
     ACE potential read for       60 bands
     ACE potential read for       60 bands
     ACE potential read for       60 bands
     ACE potential read for       60 bands
     ACE potential read for       60 bands
     ACE potential read for       60 bands
     ACE potential read for       60 bands
     ACE potential read for       60 bands
     ACE potential read for       60 bands
     ACE potential read for       60 bands
     ACE potential read for       60 bands
     ACE potential read for       60 bands
     ACE potential read for       60 bands
     ACE potential read for       60 bands
     ACE potential read for       60 bands
     ACE potential read for       60 bands
     ACE potential read for       60 bands
     ACE potential read for       60 bands
     ACE potential read for       60 bands
     ACE potential read for       60 bands
     ACE potential read for       60 bands
     ACE potential read for       60 bands
     ACE potential read for       60 bands
     ACE potential read for       60 bands
     ACE potential read for       60 bands
     ACE potential read for       60 bands
     ACE potential read for       60 bands
     ACE potential read for       60 bands
     ACE potential read for       60 bands
     ACE potential read for       60 bands
     ACE potential read for       60 bands
     ACE potential read for       60 bands
     ACE potential read for       60 bands
     ACE potential read for       60 bands
     ACE potential read for       60 bands
     ACE potential read for       60 bands
     ACE potential read for       60 bands
     ACE potential read for       60 bands
     ACE potential read for       60 bands
     ACE potential read for       60 bands
     ACE potential read for       60 bands
     ACE potential read for       60 bands
     ACE potential read for       60 bands
     ACE potential read for       60 bands
     ACE potential read for       60 bands
     ACE potential read for       60 bands
     ACE potential read for       60 bands
     ACE potential read for       60 bands
     ACE potential read for       60 bands
     ACE potential read for       60 bands
     ACE potential read for       60 bands
     ACE potential read for       60 bands
     ACE potential read for       60 bands
     ACE potential read for       60 bands
     ACE potential read for       60 bands
     ACE potential read for       60 bands
     ACE potential read for       60 bands
     Starting ACE correctly read from file

     The potential is recalculated from file :
     tmp/Sb2Te3-uatsx-c1-2.0.save/charge-density

     Starting wfcs are random

     Band Structure Calculation
     Davidson diagonalization with overlap

     Computing kpt #:     1  of    85
     total cpu time spent up to now is       13.1 secs

     Computing kpt #:     2  of    85
     total cpu time spent up to now is       14.4 secs

     Computing kpt #:     3  of    85
     total cpu time spent up to now is       15.6 secs

     Computing kpt #:     4  of    85
     total cpu time spent up to now is       17.0 secs

     Computing kpt #:     5  of    85
     total cpu time spent up to now is       18.2 secs

     Computing kpt #:     6  of    85
     total cpu time spent up to now is       19.7 secs

     Computing kpt #:     7  of    85
     total cpu time spent up to now is       21.3 secs

     Computing kpt #:     8  of    85
     total cpu time spent up to now is       22.5 secs

     Computing kpt #:     9  of    85
     total cpu time spent up to now is       23.9 secs

     Computing kpt #:    10  of    85
     total cpu time spent up to now is       25.3 secs

     Computing kpt #:    11  of    85
     total cpu time spent up to now is       26.7 secs

     Computing kpt #:    12  of    85
     total cpu time spent up to now is       28.1 secs

     Computing kpt #:    13  of    85
     total cpu time spent up to now is       29.5 secs

     Computing kpt #:    14  of    85
     total cpu time spent up to now is       30.9 secs

     Computing kpt #:    15  of    85
     total cpu time spent up to now is       32.3 secs

     Computing kpt #:    16  of    85
     total cpu time spent up to now is       33.7 secs

     Computing kpt #:    17  of    85
     total cpu time spent up to now is       35.1 secs

     Computing kpt #:    18  of    85
     total cpu time spent up to now is       36.4 secs

     Computing kpt #:    19  of    85
     total cpu time spent up to now is       37.7 secs

     Computing kpt #:    20  of    85
     total cpu time spent up to now is       39.0 secs

     Computing kpt #:    21  of    85
     total cpu time spent up to now is       40.3 secs

     Computing kpt #:    22  of    85
     total cpu time spent up to now is       41.7 secs

     Computing kpt #:    23  of    85
     total cpu time spent up to now is       43.0 secs

     Computing kpt #:    24  of    85
     total cpu time spent up to now is       44.7 secs

     Computing kpt #:    25  of    85
     total cpu time spent up to now is       46.1 secs

     Computing kpt #:    26  of    85
     total cpu time spent up to now is       47.5 secs

     Computing kpt #:    27  of    85
     total cpu time spent up to now is       48.9 secs

     Computing kpt #:    28  of    85
     total cpu time spent up to now is       50.3 secs

     Computing kpt #:    29  of    85
     total cpu time spent up to now is       51.7 secs

     Computing kpt #:    30  of    85
     total cpu time spent up to now is       52.9 secs

     Computing kpt #:    31  of    85
     total cpu time spent up to now is       54.3 secs

     Computing kpt #:    32  of    85
     total cpu time spent up to now is       55.6 secs

     Computing kpt #:    33  of    85
     total cpu time spent up to now is       57.0 secs

     Computing kpt #:    34  of    85
     total cpu time spent up to now is       58.4 secs

     Computing kpt #:    35  of    85
     total cpu time spent up to now is       59.7 secs

     Computing kpt #:    36  of    85
     total cpu time spent up to now is       61.2 secs

     Computing kpt #:    37  of    85
     total cpu time spent up to now is       62.6 secs

     Computing kpt #:    38  of    85
     total cpu time spent up to now is       63.9 secs

     Computing kpt #:    39  of    85
     total cpu time spent up to now is       65.4 secs

     Computing kpt #:    40  of    85
     total cpu time spent up to now is       66.7 secs

     Computing kpt #:    41  of    85
     total cpu time spent up to now is       68.0 secs

     Computing kpt #:    42  of    85
     total cpu time spent up to now is       69.4 secs

     Computing kpt #:    43  of    85
     total cpu time spent up to now is       70.8 secs

     Computing kpt #:    44  of    85
     total cpu time spent up to now is       72.2 secs

     Computing kpt #:    45  of    85
     total cpu time spent up to now is       73.5 secs

     Computing kpt #:    46  of    85
     total cpu time spent up to now is       74.9 secs

     Computing kpt #:    47  of    85
     total cpu time spent up to now is       76.2 secs

     Computing kpt #:    48  of    85
     total cpu time spent up to now is       77.4 secs

     Computing kpt #:    49  of    85
     total cpu time spent up to now is       78.7 secs

     Computing kpt #:    50  of    85
     total cpu time spent up to now is       80.1 secs

     Computing kpt #:    51  of    85
     total cpu time spent up to now is       81.4 secs

     Computing kpt #:    52  of    85
     total cpu time spent up to now is       82.7 secs

     Computing kpt #:    53  of    85
     total cpu time spent up to now is       84.2 secs

     Computing kpt #:    54  of    85
     total cpu time spent up to now is       85.4 secs

     Computing kpt #:    55  of    85
     total cpu time spent up to now is       86.8 secs

     Computing kpt #:    56  of    85
     total cpu time spent up to now is       88.2 secs

     Computing kpt #:    57  of    85
     total cpu time spent up to now is       90.2 secs

     Computing kpt #:    58  of    85
     total cpu time spent up to now is       91.6 secs

     Computing kpt #:    59  of    85
     total cpu time spent up to now is       93.0 secs

     Computing kpt #:    60  of    85
     total cpu time spent up to now is       94.3 secs

     Computing kpt #:    61  of    85
     total cpu time spent up to now is       95.7 secs

     Computing kpt #:    62  of    85
     total cpu time spent up to now is       97.1 secs

     Computing kpt #:    63  of    85
     total cpu time spent up to now is       98.4 secs

     Computing kpt #:    64  of    85
     total cpu time spent up to now is       99.8 secs

     Computing kpt #:    65  of    85
     total cpu time spent up to now is      101.3 secs

     Computing kpt #:    66  of    85
     total cpu time spent up to now is      102.7 secs

     Computing kpt #:    67  of    85
     total cpu time spent up to now is      104.1 secs

     Computing kpt #:    68  of    85
     total cpu time spent up to now is      105.5 secs

     Computing kpt #:    69  of    85
     total cpu time spent up to now is      106.9 secs

     Computing kpt #:    70  of    85
     total cpu time spent up to now is      108.2 secs

     Computing kpt #:    71  of    85
     total cpu time spent up to now is      109.6 secs

     Computing kpt #:    72  of    85
     total cpu time spent up to now is      110.9 secs

     Computing kpt #:    73  of    85
     total cpu time spent up to now is      112.4 secs

     Computing kpt #:    74  of    85
     total cpu time spent up to now is      113.8 secs

     Computing kpt #:    75  of    85
     total cpu time spent up to now is      115.4 secs

     Computing kpt #:    76  of    85
     total cpu time spent up to now is      116.9 secs

     Computing kpt #:    77  of    85
     total cpu time spent up to now is      118.1 secs

     Computing kpt #:    78  of    85
     total cpu time spent up to now is      119.6 secs

     Computing kpt #:    79  of    85
     total cpu time spent up to now is      121.1 secs

     Computing kpt #:    80  of    85
     total cpu time spent up to now is      122.6 secs

     Computing kpt #:    81  of    85
     total cpu time spent up to now is      124.0 secs

     Computing kpt #:    82  of    85
     total cpu time spent up to now is      125.4 secs

     Computing kpt #:    83  of    85
     total cpu time spent up to now is      126.7 secs

     Computing kpt #:    84  of    85
     total cpu time spent up to now is      128.0 secs

     Computing kpt #:    85  of    85
     total cpu time spent up to now is      129.4 secs

     ethr =  1.28E-09,  avg # of iterations = 44.5

     total cpu time spent up to now is      130.8 secs

     End of band structure calculation

          k = 0.0000 0.0000 0.0000 ( 24159 PWs)   bands (ev):

   -35.6273 -35.6256 -35.6226 -35.6210 -35.6033 -35.6017 -35.5975 -35.5960
   -35.5764 -35.5748 -35.1929 -35.1899 -35.1688 -35.1629 -35.1613 -28.5685
   -28.5678 -28.5632 -28.5626 -28.5278 -28.5251 -28.5228 -28.5201 -28.4911
   -28.4863 -12.1448 -11.6812 -10.4324  -7.5845  -6.1847  -0.9916  -0.8657
    -0.7711  -0.6791  -0.5572  -0.0253   0.3658   0.4486   0.7312   2.5504
     3.0202   3.0909   4.2801   4.3274   4.4701   6.5605   6.7954   7.5947
     8.2838   8.7701   8.8868   9.0456   9.6142   9.6893  10.0068  10.2957
    10.7220  10.8279  10.9281  10.9876

     occupation numbers 
     1.0000   1.0000   1.0000   1.0000   1.0000   1.0000   1.0000   1.0000
     1.0000   1.0000   1.0000   1.0000   1.0000   1.0000   1.0000   1.0000
     1.0000   1.0000   1.0000   1.0000   1.0000   1.0000   1.0000   1.0000
     1.0000   1.0000   1.0000   1.0000   1.0000   1.0000   1.0000   1.0000
     1.0000   1.0000   1.0000   1.0000   1.0000   1.0000   1.0000   0.0000
     0.0000   0.0000   0.0000   0.0000   0.0000   0.0000   0.0000   0.0000
     0.0000   0.0000   0.0000   0.0000   0.0000   0.0000   0.0000   0.0000
     0.0000   0.0000   0.0000   0.0000

          k = 0.0000 0.0906 0.0000 ( 24176 PWs)   bands (ev):

   -35.6265 -35.6249 -35.6246 -35.6228 -35.6003 -35.5987 -35.5962 -35.5947
   -35.5705 -35.5689 -35.1988 -35.1882 -35.1756 -35.1554 -35.1494 -28.5615
   -28.5608 -28.5563 -28.5555 -28.5297 -28.5246 -28.5226 -28.5175 -28.4942
   -28.4893 -12.0809 -11.6185 -10.4001  -7.6119  -6.2939  -1.3560  -1.1552
    -1.0038  -0.7512  -0.7127  -0.2453   0.4350   0.5530   1.1196   2.6613
     3.1032   3.1872   4.2183   4.4201   4.7644   6.6451   6.8487   7.6897
     8.1936   8.5710   8.8870   9.0728   9.5876   9.7787  10.0046  10.1296
    10.6394  11.0280  11.1630  11.5299

     occupation numbers 
     1.0000   1.0000   1.0000   1.0000   1.0000   1.0000   1.0000   1.0000
     1.0000   1.0000   1.0000   1.0000   1.0000   1.0000   1.0000   1.0000
     1.0000   1.0000   1.0000   1.0000   1.0000   1.0000   1.0000   1.0000
     1.0000   1.0000   1.0000   1.0000   1.0000   1.0000   1.0000   1.0000
     1.0000   1.0000   1.0000   1.0000   1.0000   1.0000   1.0000   0.0000
     0.0000   0.0000   0.0000   0.0000   0.0000   0.0000   0.0000   0.0000
     0.0000   0.0000   0.0000   0.0000   0.0000   0.0000   0.0000   0.0000
     0.0000   0.0000   0.0000   0.0000

          k = 0.0000 0.1812 0.0000 ( 24196 PWs)   bands (ev):

   -35.6150 -35.6134 -35.6112 -35.6095 -35.5820 -35.5803 -35.5786 -35.5771
   -35.5525 -35.5509 -35.1939 -35.1808 -35.1715 -35.1505 -35.1448 -28.5568
   -28.5529 -28.5516 -28.5478 -28.5324 -28.5273 -28.5209 -28.5158 -28.5052
   -28.5003 -11.9009 -11.4269 -10.2981  -7.6884  -6.5794  -2.1794  -1.5252
    -1.4231  -1.1653  -0.9704  -0.5666   0.5050   0.8031   1.1956   2.8344
     3.2954   3.5026   4.4931   4.6780   5.2027   6.8599   6.9999   7.7529
     7.9703   8.4573   9.1677   9.1747   9.5086   9.6781  10.1985  10.3885
    10.4315  11.2166  11.6229  11.7933

     occupation numbers 
     1.0000   1.0000   1.0000   1.0000   1.0000   1.0000   1.0000   1.0000
     1.0000   1.0000   1.0000   1.0000   1.0000   1.0000   1.0000   1.0000
     1.0000   1.0000   1.0000   1.0000   1.0000   1.0000   1.0000   1.0000
     1.0000   1.0000   1.0000   1.0000   1.0000   1.0000   1.0000   1.0000
     1.0000   1.0000   1.0000   1.0000   1.0000   1.0000   1.0000   0.0000
     0.0000   0.0000   0.0000   0.0000   0.0000   0.0000   0.0000   0.0000
     0.0000   0.0000   0.0000   0.0000   0.0000   0.0000   0.0000   0.0000
     0.0000   0.0000   0.0000   0.0000

          k = 0.0000 0.2718 0.0000 ( 24250 PWs)   bands (ev):

   -35.6082 -35.6067 -35.6024 -35.6007 -35.5718 -35.5703 -35.5670 -35.5654
   -35.5426 -35.5411 -35.1828 -35.1678 -35.1596 -35.1386 -35.1330 -28.5538
   -28.5486 -28.5461 -28.5410 -28.5319 -28.5268 -28.5205 -28.5154 -28.5045
   -28.4995 -11.6287 -11.1858 -10.1597  -7.8139  -6.9965  -2.8991  -1.9435
    -1.8903  -1.5527  -1.2492  -0.5635   0.2369   0.4873   1.3134   2.8834
     3.4692   3.8572   4.8391   4.9956   5.6776   6.9721   7.1771   7.6043
     8.2244   8.6989   9.2405   9.5327   9.6628   9.7224  10.5785  10.6649
    10.7289  11.3689  11.3962  12.3041

     occupation numbers 
     1.0000   1.0000   1.0000   1.0000   1.0000   1.0000   1.0000   1.0000
     1.0000   1.0000   1.0000   1.0000   1.0000   1.0000   1.0000   1.0000
     1.0000   1.0000   1.0000   1.0000   1.0000   1.0000   1.0000   1.0000
     1.0000   1.0000   1.0000   1.0000   1.0000   1.0000   1.0000   1.0000
     1.0000   1.0000   1.0000   1.0000   1.0000   1.0000   1.0000   0.0000
     0.0000   0.0000   0.0000   0.0000   0.0000   0.0000   0.0000   0.0000
     0.0000   0.0000   0.0000   0.0000   0.0000   0.0000   0.0000   0.0000
     0.0000   0.0000   0.0000   0.0000

          k = 0.0000 0.3624 0.0000 ( 24287 PWs)   bands (ev):

   -35.6012 -35.5996 -35.5943 -35.5926 -35.5631 -35.5616 -35.5563 -35.5547
   -35.5322 -35.5306 -35.1762 -35.1615 -35.1465 -35.1240 -35.1158 -28.5537
   -28.5485 -28.5429 -28.5377 -28.5319 -28.5268 -28.5241 -28.5190 -28.5051
   -28.5001 -11.2753 -10.8859 -10.0261  -8.0572  -7.4652  -3.4580  -2.4053
    -2.1917  -1.7374  -1.5003  -0.8300   0.1208   0.4180   1.0718   2.9525
     3.5685   3.8723   5.0694   5.2916   6.1319   6.6633   7.6039   7.8199
     8.4989   8.9192   9.4575   9.8523  10.1116  10.4170  10.8086  10.9592
    11.2023  11.3283  11.7308  11.9179

     occupation numbers 
     1.0000   1.0000   1.0000   1.0000   1.0000   1.0000   1.0000   1.0000
     1.0000   1.0000   1.0000   1.0000   1.0000   1.0000   1.0000   1.0000
     1.0000   1.0000   1.0000   1.0000   1.0000   1.0000   1.0000   1.0000
     1.0000   1.0000   1.0000   1.0000   1.0000   1.0000   1.0000   1.0000
     1.0000   1.0000   1.0000   1.0000   1.0000   1.0000   1.0000   0.0000
     0.0000   0.0000   0.0000   0.0000   0.0000   0.0000   0.0000   0.0000
     0.0000   0.0000   0.0000   0.0000   0.0000   0.0000   0.0000   0.0000
     0.0000   0.0000   0.0000   0.0000

          k = 0.0000 0.4530 0.0000 ( 24287 PWs)   bands (ev):

   -35.5943 -35.5928 -35.5866 -35.5850 -35.5611 -35.5596 -35.5509 -35.5492
   -35.5299 -35.5283 -35.1746 -35.1613 -35.1414 -35.1159 -35.1061 -28.5522
   -28.5470 -28.5401 -28.5349 -28.5307 -28.5256 -28.5230 -28.5179 -28.5035
   -28.4986 -10.8700 -10.5733  -9.9812  -8.3959  -7.8664  -3.8379  -2.6247
    -2.4025  -1.9711  -1.6840  -1.0579   0.1937   0.3421   0.7804   2.9512
     3.6021   3.7638   5.2324   5.5008   6.2555   6.5209   7.8457   8.2445
     8.7751   9.2782   9.9325  10.0796  10.2683  10.8586  10.9861  11.3257
    11.4045  11.6742  11.7463  11.9837

     occupation numbers 
     1.0000   1.0000   1.0000   1.0000   1.0000   1.0000   1.0000   1.0000
     1.0000   1.0000   1.0000   1.0000   1.0000   1.0000   1.0000   1.0000
     1.0000   1.0000   1.0000   1.0000   1.0000   1.0000   1.0000   1.0000
     1.0000   1.0000   1.0000   1.0000   1.0000   1.0000   1.0000   1.0000
     1.0000   1.0000   1.0000   1.0000   1.0000   1.0000   1.0000   0.0000
     0.0000   0.0000   0.0000   0.0000   0.0000   0.0000   0.0000   0.0000
     0.0000   0.0000   0.0000   0.0000   0.0000   0.0000   0.0000   0.0000
     0.0000   0.0000   0.0000   0.0000

          k = 0.0000 0.5436 0.0000 ( 24293 PWs)   bands (ev):

   -35.5905 -35.5890 -35.5824 -35.5808 -35.5617 -35.5602 -35.5485 -35.5468
   -35.5318 -35.5302 -35.1750 -35.1629 -35.1407 -35.1127 -35.1023 -28.5503
   -28.5450 -28.5382 -28.5330 -28.5292 -28.5242 -28.5204 -28.5154 -28.5009
   -28.4961 -10.4686 -10.3460 -10.1025  -8.6659  -8.1043  -4.0352  -2.6223
    -2.5109  -2.2329  -1.7799  -1.1119   0.2282   0.2940   0.6197   2.8775
     3.6075   3.7528   5.2632   5.6027   6.2435   6.4474   7.9908   8.8341
     9.1330   9.4588   9.7209   9.8812  10.4319  10.5453  11.0667  11.6782
    11.7731  12.1169  12.2219  12.5260

     occupation numbers 
     1.0000   1.0000   1.0000   1.0000   1.0000   1.0000   1.0000   1.0000
     1.0000   1.0000   1.0000   1.0000   1.0000   1.0000   1.0000   1.0000
     1.0000   1.0000   1.0000   1.0000   1.0000   1.0000   1.0000   1.0000
     1.0000   1.0000   1.0000   1.0000   1.0000   1.0000   1.0000   1.0000
     1.0000   1.0000   1.0000   1.0000   1.0000   1.0000   1.0000   0.0000
     0.0000   0.0000   0.0000   0.0000   0.0000   0.0000   0.0000   0.0000
     0.0000   0.0000   0.0000   0.0000   0.0000   0.0000   0.0000   0.0000
     0.0000   0.0000   0.0000   0.0000

          k = 0.0769 0.0444 0.0000 ( 24182 PWs)   bands (ev):

   -35.6296 -35.6279 -35.6227 -35.6210 -35.6036 -35.6021 -35.5920 -35.5904
   -35.5705 -35.5689 -35.1955 -35.1891 -35.1764 -35.1561 -35.1521 -28.5620
   -28.5611 -28.5567 -28.5559 -28.5325 -28.5274 -28.5209 -28.5159 -28.4952
   -28.4903 -12.0834 -11.6213 -10.4022  -7.6148  -6.3022  -1.4165  -1.1785
    -1.0051  -0.7120  -0.6254  -0.2642   0.5086   0.5463   1.0974   2.7556
     3.0281   3.1741   4.2902   4.4095   4.7026   6.6420   6.8451   7.6891
     8.1808   8.4668   9.0376   9.1240   9.5282   9.7234   9.9682  10.2559
    10.6678  11.0717  11.1354  11.4097

     occupation numbers 
     1.0000   1.0000   1.0000   1.0000   1.0000   1.0000   1.0000   1.0000
     1.0000   1.0000   1.0000   1.0000   1.0000   1.0000   1.0000   1.0000
     1.0000   1.0000   1.0000   1.0000   1.0000   1.0000   1.0000   1.0000
     1.0000   1.0000   1.0000   1.0000   1.0000   1.0000   1.0000   1.0000
     1.0000   1.0000   1.0000   1.0000   1.0000   1.0000   1.0000   0.0000
     0.0000   0.0000   0.0000   0.0000   0.0000   0.0000   0.0000   0.0000
     0.0000   0.0000   0.0000   0.0000   0.0000   0.0000   0.0000   0.0000
     0.0000   0.0000   0.0000   0.0000

          k = 0.0769 0.1350 0.0000 ( 24189 PWs)   bands (ev):

   -35.6281 -35.6266 -35.6125 -35.6108 -35.5909 -35.5893 -35.5827 -35.5811
   -35.5598 -35.5582 -35.1941 -35.1866 -35.1806 -35.1467 -35.1465 -28.5583
   -28.5531 -28.5526 -28.5474 -28.5327 -28.5276 -28.5192 -28.5141 -28.5011
   -28.4962 -11.9628 -11.4943 -10.3365  -7.6685  -6.4992  -1.9339  -1.5399
    -1.3044  -1.1093  -0.6781  -0.4367   0.2927   1.0562   1.1358   2.9321
     3.1392   3.3640   4.4286   4.6110   5.0241   6.7918   6.9536   7.8566
     8.0256   8.1882   9.1452   9.2875   9.5104   9.6997   9.9433  10.2563
    10.8021  11.1884  11.4545  11.7671

     occupation numbers 
     1.0000   1.0000   1.0000   1.0000   1.0000   1.0000   1.0000   1.0000
     1.0000   1.0000   1.0000   1.0000   1.0000   1.0000   1.0000   1.0000
     1.0000   1.0000   1.0000   1.0000   1.0000   1.0000   1.0000   1.0000
     1.0000   1.0000   1.0000   1.0000   1.0000   1.0000   1.0000   1.0000
     1.0000   1.0000   1.0000   1.0000   1.0000   1.0000   1.0000   0.0000
     0.0000   0.0000   0.0000   0.0000   0.0000   0.0000   0.0000   0.0000
     0.0000   0.0000   0.0000   0.0000   0.0000   0.0000   0.0000   0.0000
     0.0000   0.0000   0.0000   0.0000

          k = 0.0769 0.2256 0.0000 ( 24224 PWs)   bands (ev):

   -35.6131 -35.6116 -35.6066 -35.6049 -35.5746 -35.5731 -35.5722 -35.5704
   -35.5461 -35.5445 -35.1860 -35.1740 -35.1719 -35.1392 -35.1387 -28.5557
   -28.5506 -28.5463 -28.5412 -28.5293 -28.5242 -28.5208 -28.5157 -28.5084
   -28.5035 -11.7387 -11.2827 -10.2156  -7.7634  -6.8525  -2.5481  -2.1235
    -1.5808  -1.4713  -1.0337  -0.6252   0.2976   0.8059   1.3115   3.0709
     3.2264   3.7707   4.6239   5.0522   5.4507   7.0434   7.1177   7.6860
     8.1071   8.2350   9.2692   9.4041   9.4892   9.8024  10.3048  10.5308
    10.9015  11.2197  11.7533  11.9854

     occupation numbers 
     1.0000   1.0000   1.0000   1.0000   1.0000   1.0000   1.0000   1.0000
     1.0000   1.0000   1.0000   1.0000   1.0000   1.0000   1.0000   1.0000
     1.0000   1.0000   1.0000   1.0000   1.0000   1.0000   1.0000   1.0000
     1.0000   1.0000   1.0000   1.0000   1.0000   1.0000   1.0000   1.0000
     1.0000   1.0000   1.0000   1.0000   1.0000   1.0000   1.0000   0.0000
     0.0000   0.0000   0.0000   0.0000   0.0000   0.0000   0.0000   0.0000
     0.0000   0.0000   0.0000   0.0000   0.0000   0.0000   0.0000   0.0000
     0.0000   0.0000   0.0000   0.0000

          k = 0.0769 0.3162 0.0000 ( 24264 PWs)   bands (ev):

   -35.6039 -35.6024 -35.5962 -35.5945 -35.5663 -35.5648 -35.5609 -35.5592
   -35.5374 -35.5358 -35.1770 -35.1638 -35.1579 -35.1260 -35.1237 -28.5537
   -28.5485 -28.5429 -28.5378 -28.5300 -28.5249 -28.5240 -28.5189 -28.5078
   -28.5028 -11.4266 -11.0115 -10.0741  -7.9425  -7.3024  -3.1675  -2.4793
    -1.9227  -1.8061  -1.4065  -0.7447   0.3041   0.4357   1.2524   3.1817
     3.3452   3.8804   4.9799   5.3153   5.9273   6.9479   7.4163   7.7445
     8.3592   8.7031   8.9754   9.7093   9.7729  10.4422  10.6563  10.8556
    11.0205  11.3407  12.0021  12.0688

     occupation numbers 
     1.0000   1.0000   1.0000   1.0000   1.0000   1.0000   1.0000   1.0000
     1.0000   1.0000   1.0000   1.0000   1.0000   1.0000   1.0000   1.0000
     1.0000   1.0000   1.0000   1.0000   1.0000   1.0000   1.0000   1.0000
     1.0000   1.0000   1.0000   1.0000   1.0000   1.0000   1.0000   1.0000
     1.0000   1.0000   1.0000   1.0000   1.0000   1.0000   1.0000   0.0000
     0.0000   0.0000   0.0000   0.0000   0.0000   0.0000   0.0000   0.0000
     0.0000   0.0000   0.0000   0.0000   0.0000   0.0000   0.0000   0.0000
     0.0000   0.0000   0.0000   0.0000

          k = 0.0769 0.4068 0.0000 ( 24275 PWs)   bands (ev):

   -35.5954 -35.5939 -35.5881 -35.5865 -35.5615 -35.5600 -35.5548 -35.5531
   -35.5332 -35.5316 -35.1732 -35.1613 -35.1486 -35.1162 -35.1110 -28.5521
   -28.5469 -28.5395 -28.5343 -28.5291 -28.5243 -28.5239 -28.5192 -28.5061
   -28.5012 -11.0463 -10.7012  -9.9754  -8.2344  -7.7485  -3.6387  -2.6306
    -2.3489  -2.0855  -1.5244  -0.9766   0.1393   0.3968   1.0490   3.2228
     3.3454   3.8985   5.2242   5.4963   6.2450   6.6859   7.8261   8.0194
     8.6541   9.0347   9.4130  10.0272  10.1492  10.5627  10.9892  11.2184
    11.3487  11.5975  11.9564  12.0666

     occupation numbers 
     1.0000   1.0000   1.0000   1.0000   1.0000   1.0000   1.0000   1.0000
     1.0000   1.0000   1.0000   1.0000   1.0000   1.0000   1.0000   1.0000
     1.0000   1.0000   1.0000   1.0000   1.0000   1.0000   1.0000   1.0000
     1.0000   1.0000   1.0000   1.0000   1.0000   1.0000   1.0000   1.0000
     1.0000   1.0000   1.0000   1.0000   1.0000   1.0000   1.0000   0.0000
     0.0000   0.0000   0.0000   0.0000   0.0000   0.0000   0.0000   0.0000
     0.0000   0.0000   0.0000   0.0000   0.0000   0.0000   0.0000   0.0000
     0.0000   0.0000   0.0000   0.0000

          k = 0.0769 0.4974 0.0000 ( 24291 PWs)   bands (ev):

   -35.5901 -35.5886 -35.5826 -35.5810 -35.5596 -35.5581 -35.5511 -35.5494
   -35.5324 -35.5308 -35.1718 -35.1616 -35.1449 -35.1103 -35.1034 -28.5508
   -28.5456 -28.5373 -28.5322 -28.5281 -28.5231 -28.5228 -28.5179 -28.5044
   -28.4995 -10.6334 -10.4155  -9.9975  -8.5639  -8.0781  -3.9276  -2.6505
    -2.6013  -2.2901  -1.6509  -1.1644   0.1331   0.3609   0.8487   3.2275
     3.3286   3.8219   5.4173   5.5467   6.3210   6.5637   7.9726   8.5659
     8.9549   9.5230   9.8053   9.8727  10.4104  10.6633  11.0157  11.0829
    11.5981  11.7297  12.1346  12.3486

     occupation numbers 
     1.0000   1.0000   1.0000   1.0000   1.0000   1.0000   1.0000   1.0000
     1.0000   1.0000   1.0000   1.0000   1.0000   1.0000   1.0000   1.0000
     1.0000   1.0000   1.0000   1.0000   1.0000   1.0000   1.0000   1.0000
     1.0000   1.0000   1.0000   1.0000   1.0000   1.0000   1.0000   1.0000
     1.0000   1.0000   1.0000   1.0000   1.0000   1.0000   1.0000   0.0000
     0.0000   0.0000   0.0000   0.0000   0.0000   0.0000   0.0000   0.0000
     0.0000   0.0000   0.0000   0.0000   0.0000   0.0000   0.0000   0.0000
     0.0000   0.0000   0.0000   0.0000

          k = 0.0769 0.5880 0.0000 ( 24285 PWs)   bands (ev):

   -35.5886 -35.5871 -35.5805 -35.5790 -35.5595 -35.5580 -35.5496 -35.5479
   -35.5327 -35.5311 -35.1719 -35.1623 -35.1440 -35.1083 -35.1010 -28.5501
   -28.5449 -28.5366 -28.5314 -28.5278 -28.5227 -28.5219 -28.5168 -28.5035
   -28.4986 -10.3222 -10.2849 -10.1531  -8.7189  -8.2039  -4.0264  -2.7464
    -2.5155  -2.4136  -1.7469  -1.2052   0.2234   0.2600   0.7761   3.1772
     3.3877   3.7528   5.5063   5.5294   6.4043   6.4160   8.0644   9.0609
     9.2579   9.3342   9.5483  10.1403  10.2762  10.4389  11.0545  11.5676
    11.6594  11.9003  12.2036  12.4190

     occupation numbers 
     1.0000   1.0000   1.0000   1.0000   1.0000   1.0000   1.0000   1.0000
     1.0000   1.0000   1.0000   1.0000   1.0000   1.0000   1.0000   1.0000
     1.0000   1.0000   1.0000   1.0000   1.0000   1.0000   1.0000   1.0000
     1.0000   1.0000   1.0000   1.0000   1.0000   1.0000   1.0000   1.0000
     1.0000   1.0000   1.0000   1.0000   1.0000   1.0000   1.0000   0.0000
     0.0000   0.0000   0.0000   0.0000   0.0000   0.0000   0.0000   0.0000
     0.0000   0.0000   0.0000   0.0000   0.0000   0.0000   0.0000   0.0000
     0.0000   0.0000   0.0000   0.0000

          k = 0.0769-0.4992 0.0000 ( 24292 PWs)   bands (ev):

   -35.5903 -35.5888 -35.5827 -35.5811 -35.5609 -35.5593 -35.5501 -35.5485
   -35.5324 -35.5308 -35.1729 -35.1620 -35.1446 -35.1101 -35.1034 -28.5508
   -28.5456 -28.5372 -28.5321 -28.5287 -28.5236 -28.5223 -28.5172 -28.5042
   -28.4993 -10.6264 -10.4108  -9.9996  -8.5667  -8.0765  -3.9308  -2.6440
    -2.6221  -2.2700  -1.6679  -1.1497   0.1413   0.3383   0.8501   3.2108
     3.3408   3.8012   5.4202   5.5245   6.3119   6.5483   7.9664   8.5752
     8.9670   9.5230   9.7741   9.8079  10.4014  10.5798  10.9731  11.0532
    11.5163  11.7238  12.1435  12.4111

     occupation numbers 
     1.0000   1.0000   1.0000   1.0000   1.0000   1.0000   1.0000   1.0000
     1.0000   1.0000   1.0000   1.0000   1.0000   1.0000   1.0000   1.0000
     1.0000   1.0000   1.0000   1.0000   1.0000   1.0000   1.0000   1.0000
     1.0000   1.0000   1.0000   1.0000   1.0000   1.0000   1.0000   1.0000
     1.0000   1.0000   1.0000   1.0000   1.0000   1.0000   1.0000   0.0000
     0.0000   0.0000   0.0000   0.0000   0.0000   0.0000   0.0000   0.0000
     0.0000   0.0000   0.0000   0.0000   0.0000   0.0000   0.0000   0.0000
     0.0000   0.0000   0.0000   0.0000

          k = 0.0769-0.4086 0.0000 ( 24291 PWs)   bands (ev):

   -35.5956 -35.5941 -35.5879 -35.5863 -35.5631 -35.5615 -35.5539 -35.5523
   -35.5331 -35.5316 -35.1748 -35.1620 -35.1476 -35.1157 -35.1107 -28.5524
   -28.5472 -28.5395 -28.5343 -28.5301 -28.5250 -28.5235 -28.5184 -28.5059
   -28.5009 -11.0395 -10.6948  -9.9738  -8.2366  -7.7442  -3.6449  -2.6420
    -2.3507  -2.0620  -1.5480  -0.9534   0.1455   0.3641   1.0396   3.2257
     3.3335   3.8542   5.2020   5.4942   6.2206   6.6656   7.8227   8.0238
     8.6492   9.0194   9.2915   9.9923  10.1438  10.5413  10.9851  11.2580
    11.3345  11.7302  11.9533  12.0732

     occupation numbers 
     1.0000   1.0000   1.0000   1.0000   1.0000   1.0000   1.0000   1.0000
     1.0000   1.0000   1.0000   1.0000   1.0000   1.0000   1.0000   1.0000
     1.0000   1.0000   1.0000   1.0000   1.0000   1.0000   1.0000   1.0000
     1.0000   1.0000   1.0000   1.0000   1.0000   1.0000   1.0000   1.0000
     1.0000   1.0000   1.0000   1.0000   1.0000   1.0000   1.0000   0.0000
     0.0000   0.0000   0.0000   0.0000   0.0000   0.0000   0.0000   0.0000
     0.0000   0.0000   0.0000   0.0000   0.0000   0.0000   0.0000   0.0000
     0.0000   0.0000   0.0000   0.0000

          k = 0.0769-0.3180 0.0000 ( 24268 PWs)   bands (ev):

   -35.6036 -35.6020 -35.5959 -35.5942 -35.5671 -35.5656 -35.5609 -35.5593
   -35.5374 -35.5359 -35.1786 -35.1641 -35.1559 -35.1253 -35.1227 -28.5544
   -28.5492 -28.5431 -28.5379 -28.5310 -28.5259 -28.5237 -28.5186 -28.5077
   -28.5028 -11.4207 -11.0055 -10.0697  -7.9415  -7.2954  -3.1770  -2.4788
    -1.9348  -1.7841  -1.4195  -0.7155   0.2710   0.4181   1.2290   3.1600
     3.3279   3.8497   4.9256   5.3412   5.9113   6.9262   7.4183   7.7390
     8.3384   8.6542   8.9451   9.6820   9.7762  10.5623  10.6910  10.8608
    11.0429  11.3544  12.0263  12.1101

     occupation numbers 
     1.0000   1.0000   1.0000   1.0000   1.0000   1.0000   1.0000   1.0000
     1.0000   1.0000   1.0000   1.0000   1.0000   1.0000   1.0000   1.0000
     1.0000   1.0000   1.0000   1.0000   1.0000   1.0000   1.0000   1.0000
     1.0000   1.0000   1.0000   1.0000   1.0000   1.0000   1.0000   1.0000
     1.0000   1.0000   1.0000   1.0000   1.0000   1.0000   1.0000   0.0000
     0.0000   0.0000   0.0000   0.0000   0.0000   0.0000   0.0000   0.0000
     0.0000   0.0000   0.0000   0.0000   0.0000   0.0000   0.0000   0.0000
     0.0000   0.0000   0.0000   0.0000

          k = 0.0769-0.2274 0.0000 ( 24219 PWs)   bands (ev):

   -35.6123 -35.6107 -35.6066 -35.6050 -35.5766 -35.5750 -35.5706 -35.5691
   -35.5461 -35.5445 -35.1863 -35.1726 -35.1707 -35.1393 -35.1376 -28.5567
   -28.5516 -28.5462 -28.5411 -28.5293 -28.5243 -28.5213 -28.5162 -28.5082
   -28.5033 -11.7340 -11.2781 -10.2106  -7.7594  -6.8431  -2.5548  -2.1114
    -1.5927  -1.4520  -1.0476  -0.6047   0.2660   0.7598   1.2940   2.9828
     3.2216   3.8015   4.5572   5.1050   5.4424   7.0471   7.1111   7.6633
     8.1083   8.2029   9.2744   9.3870   9.5063   9.8666  10.3414  10.5397
    10.8595  11.2438  11.7301  12.0139

     occupation numbers 
     1.0000   1.0000   1.0000   1.0000   1.0000   1.0000   1.0000   1.0000
     1.0000   1.0000   1.0000   1.0000   1.0000   1.0000   1.0000   1.0000
     1.0000   1.0000   1.0000   1.0000   1.0000   1.0000   1.0000   1.0000
     1.0000   1.0000   1.0000   1.0000   1.0000   1.0000   1.0000   1.0000
     1.0000   1.0000   1.0000   1.0000   1.0000   1.0000   1.0000   0.0000
     0.0000   0.0000   0.0000   0.0000   0.0000   0.0000   0.0000   0.0000
     0.0000   0.0000   0.0000   0.0000   0.0000   0.0000   0.0000   0.0000
     0.0000   0.0000   0.0000   0.0000

          k = 0.0769-0.1368 0.0000 ( 24184 PWs)   bands (ev):

   -35.6266 -35.6249 -35.6115 -35.6099 -35.5901 -35.5886 -35.5838 -35.5822
   -35.5600 -35.5584 -35.1939 -35.1833 -35.1792 -35.1457 -35.1446 -28.5595
   -28.5543 -28.5529 -28.5476 -28.5324 -28.5273 -28.5207 -28.5157 -28.5013
   -28.4964 -11.9595 -11.4918 -10.3307  -7.6646  -6.4897  -1.9125  -1.5354
    -1.2688  -1.1345  -0.7043  -0.4441   0.2531   1.0543   1.0961   2.8416
     3.2017   3.3193   4.4030   4.6745   5.0287   6.7950   6.9557   7.8474
     8.0211   8.2014   9.1537   9.2991   9.4714   9.7214   9.9568  10.2669
    10.7253  11.1758  11.4588  11.7993

     occupation numbers 
     1.0000   1.0000   1.0000   1.0000   1.0000   1.0000   1.0000   1.0000
     1.0000   1.0000   1.0000   1.0000   1.0000   1.0000   1.0000   1.0000
     1.0000   1.0000   1.0000   1.0000   1.0000   1.0000   1.0000   1.0000
     1.0000   1.0000   1.0000   1.0000   1.0000   1.0000   1.0000   1.0000
     1.0000   1.0000   1.0000   1.0000   1.0000   1.0000   1.0000   0.0000
     0.0000   0.0000   0.0000   0.0000   0.0000   0.0000   0.0000   0.0000
     0.0000   0.0000   0.0000   0.0000   0.0000   0.0000   0.0000   0.0000
     0.0000   0.0000   0.0000   0.0000

          k = 0.0769-0.0462 0.0000 ( 24165 PWs)   bands (ev):

   -35.6286 -35.6268 -35.6229 -35.6213 -35.6025 -35.6010 -35.5937 -35.5920
   -35.5706 -35.5690 -35.1976 -35.1875 -35.1767 -35.1553 -35.1507 -28.5620
   -28.5608 -28.5567 -28.5556 -28.5312 -28.5261 -28.5217 -28.5167 -28.4947
   -28.4898 -12.0821 -11.6199 -10.4009  -7.6132  -6.2978  -1.3879  -1.1178
    -1.0613  -0.7323  -0.6612  -0.2514   0.4575   0.5606   1.1092   2.7012
     3.0743   3.1777   4.2616   4.4049   4.7375   6.6436   6.8470   7.6889
     8.1849   8.5171   8.9880   9.0762   9.5534   9.7585  10.0044  10.1668
    10.6574  11.0364  11.1620  11.4716

     occupation numbers 
     1.0000   1.0000   1.0000   1.0000   1.0000   1.0000   1.0000   1.0000
     1.0000   1.0000   1.0000   1.0000   1.0000   1.0000   1.0000   1.0000
     1.0000   1.0000   1.0000   1.0000   1.0000   1.0000   1.0000   1.0000
     1.0000   1.0000   1.0000   1.0000   1.0000   1.0000   1.0000   1.0000
     1.0000   1.0000   1.0000   1.0000   1.0000   1.0000   1.0000   0.0000
     0.0000   0.0000   0.0000   0.0000   0.0000   0.0000   0.0000   0.0000
     0.0000   0.0000   0.0000   0.0000   0.0000   0.0000   0.0000   0.0000
     0.0000   0.0000   0.0000   0.0000

          k = 0.1538 0.0888 0.0000 ( 24247 PWs)   bands (ev):

   -35.6203 -35.6186 -35.6107 -35.6090 -35.5843 -35.5827 -35.5764 -35.5748
   -35.5530 -35.5514 -35.1918 -35.1827 -35.1753 -35.1518 -35.1478 -28.5553
   -28.5537 -28.5502 -28.5485 -28.5351 -28.5300 -28.5178 -28.5128 -28.5046
   -28.4997 -11.9097 -11.4365 -10.3087  -7.6999  -6.6026  -2.2584  -1.5229
    -1.3628  -1.2271  -0.8363  -0.5491   0.5982   0.8561   1.1907   2.9649
     3.3581   3.4262   4.5440   4.6653   5.1101   6.8521   6.9832   7.7246
     7.9522   8.4363   9.1490   9.3751   9.4602   9.5728  10.2872  10.4113
    10.4861  11.3112  11.4923  11.6936

     occupation numbers 
     1.0000   1.0000   1.0000   1.0000   1.0000   1.0000   1.0000   1.0000
     1.0000   1.0000   1.0000   1.0000   1.0000   1.0000   1.0000   1.0000
     1.0000   1.0000   1.0000   1.0000   1.0000   1.0000   1.0000   1.0000
     1.0000   1.0000   1.0000   1.0000   1.0000   1.0000   1.0000   1.0000
     1.0000   1.0000   1.0000   1.0000   1.0000   1.0000   1.0000   0.0000
     0.0000   0.0000   0.0000   0.0000   0.0000   0.0000   0.0000   0.0000
     0.0000   0.0000   0.0000   0.0000   0.0000   0.0000   0.0000   0.0000
     0.0000   0.0000   0.0000   0.0000

          k = 0.1538 0.1794 0.0000 ( 24252 PWs)   bands (ev):

   -35.6166 -35.6150 -35.6070 -35.6053 -35.5777 -35.5761 -35.5697 -35.5679
   -35.5465 -35.5449 -35.1860 -35.1777 -35.1737 -35.1408 -35.1393 -28.5550
   -28.5499 -28.5463 -28.5412 -28.5310 -28.5259 -28.5177 -28.5126 -28.5078
   -28.5030 -11.7457 -11.2902 -10.2248  -7.7729  -6.8670  -2.6159  -2.0512
    -1.6592  -1.3520  -1.0644  -0.5646   0.3335   0.8251   1.3430   3.0504
     3.3652   3.7408   4.5568   5.2007   5.3234   7.0319   7.1081   7.6471
     8.1241   8.2203   9.2133   9.3630   9.4976   9.9911  10.2956  10.4821
    11.0005  11.1623  11.7178  12.0166

     occupation numbers 
     1.0000   1.0000   1.0000   1.0000   1.0000   1.0000   1.0000   1.0000
     1.0000   1.0000   1.0000   1.0000   1.0000   1.0000   1.0000   1.0000
     1.0000   1.0000   1.0000   1.0000   1.0000   1.0000   1.0000   1.0000
     1.0000   1.0000   1.0000   1.0000   1.0000   1.0000   1.0000   1.0000
     1.0000   1.0000   1.0000   1.0000   1.0000   1.0000   1.0000   0.0000
     0.0000   0.0000   0.0000   0.0000   0.0000   0.0000   0.0000   0.0000
     0.0000   0.0000   0.0000   0.0000   0.0000   0.0000   0.0000   0.0000
     0.0000   0.0000   0.0000   0.0000

          k = 0.1538 0.2700 0.0000 ( 24267 PWs)   bands (ev):

   -35.6082 -35.6066 -35.6021 -35.6004 -35.5677 -35.5662 -35.5591 -35.5573
   -35.5333 -35.5316 -35.1839 -35.1725 -35.1676 -35.1242 -35.1238 -28.5536
   -28.5485 -28.5417 -28.5366 -28.5274 -28.5223 -28.5209 -28.5158 -28.5116
   -28.5067 -11.4824 -11.0545 -10.1022  -7.9152  -7.2573  -2.8660  -2.7692
    -1.9043  -1.6618  -1.3464  -0.8890   0.3636   0.9377   1.1121   3.1312
     3.6696   3.7456   4.7266   5.5889   5.7248   7.2831   7.3351   7.6927
     8.0215   8.4600   8.9076   9.3985   9.7721  10.5093  10.6873  10.8453
    11.0362  11.5673  11.9069  12.0027

     occupation numbers 
     1.0000   1.0000   1.0000   1.0000   1.0000   1.0000   1.0000   1.0000
     1.0000   1.0000   1.0000   1.0000   1.0000   1.0000   1.0000   1.0000
     1.0000   1.0000   1.0000   1.0000   1.0000   1.0000   1.0000   1.0000
     1.0000   1.0000   1.0000   1.0000   1.0000   1.0000   1.0000   1.0000
     1.0000   1.0000   1.0000   1.0000   1.0000   1.0000   1.0000   0.0000
     0.0000   0.0000   0.0000   0.0000   0.0000   0.0000   0.0000   0.0000
     0.0000   0.0000   0.0000   0.0000   0.0000   0.0000   0.0000   0.0000
     0.0000   0.0000   0.0000   0.0000

          k = 0.1538 0.3606 0.0000 ( 24275 PWs)   bands (ev):

   -35.5973 -35.5958 -35.5921 -35.5904 -35.5651 -35.5637 -35.5530 -35.5512
   -35.5310 -35.5293 -35.1783 -35.1687 -35.1595 -35.1154 -35.1148 -28.5494
   -28.5443 -28.5382 -28.5331 -28.5248 -28.5209 -28.5197 -28.5157 -28.5096
   -28.5047 -11.1423 -10.7681  -9.9876  -8.1360  -7.7076  -3.3371  -2.9788
    -2.2576  -1.9947  -1.6192  -1.0914   0.4081   0.6177   1.0889   3.2114
     3.7280   3.8106   5.0618   5.7564   6.0673   7.1857   7.7201   7.9704
     8.3266   8.7495   8.9151   9.6026  10.0375  10.4433  10.9923  11.1322
    11.5054  11.7762  11.9903  12.3967

     occupation numbers 
     1.0000   1.0000   1.0000   1.0000   1.0000   1.0000   1.0000   1.0000
     1.0000   1.0000   1.0000   1.0000   1.0000   1.0000   1.0000   1.0000
     1.0000   1.0000   1.0000   1.0000   1.0000   1.0000   1.0000   1.0000
     1.0000   1.0000   1.0000   1.0000   1.0000   1.0000   1.0000   1.0000
     1.0000   1.0000   1.0000   1.0000   1.0000   1.0000   1.0000   0.0000
     0.0000   0.0000   0.0000   0.0000   0.0000   0.0000   0.0000   0.0000
     0.0000   0.0000   0.0000   0.0000   0.0000   0.0000   0.0000   0.0000
     0.0000   0.0000   0.0000   0.0000

          k = 0.1538 0.4512 0.0000 ( 24292 PWs)   bands (ev):

   -35.5909 -35.5894 -35.5866 -35.5850 -35.5630 -35.5615 -35.5488 -35.5470
   -35.5316 -35.5299 -35.1740 -35.1662 -35.1550 -35.1118 -35.1094 -28.5460
   -28.5408 -28.5346 -28.5295 -28.5223 -28.5196 -28.5172 -28.5145 -28.5061
   -28.5012 -10.7485 -10.4697  -9.9356  -8.4387  -8.1097  -3.7156  -3.0099
    -2.4834  -2.3947  -1.6862  -1.2708   0.2099   0.5168   1.0663   3.1511
     3.7421   3.9243   5.2297   5.8349   6.3152   6.9831   8.0889   8.3627
     8.8539   9.0259   9.4537   9.7641  10.2854  10.4663  10.8804  11.1362
    11.5270  11.6025  12.0190  12.1072

     occupation numbers 
     1.0000   1.0000   1.0000   1.0000   1.0000   1.0000   1.0000   1.0000
     1.0000   1.0000   1.0000   1.0000   1.0000   1.0000   1.0000   1.0000
     1.0000   1.0000   1.0000   1.0000   1.0000   1.0000   1.0000   1.0000
     1.0000   1.0000   1.0000   1.0000   1.0000   1.0000   1.0000   1.0000
     1.0000   1.0000   1.0000   1.0000   1.0000   1.0000   1.0000   0.0000
     0.0000   0.0000   0.0000   0.0000   0.0000   0.0000   0.0000   0.0000
     0.0000   0.0000   0.0000   0.0000   0.0000   0.0000   0.0000   0.0000
     0.0000   0.0000   0.0000   0.0000

          k = 0.1538 0.5418 0.0000 ( 24318 PWs)   bands (ev):

   -35.5886 -35.5871 -35.5842 -35.5826 -35.5599 -35.5585 -35.5465 -35.5448
   -35.5297 -35.5281 -35.1708 -35.1643 -35.1521 -35.1085 -35.1051 -28.5454
   -28.5402 -28.5334 -28.5283 -28.5227 -28.5196 -28.5176 -28.5145 -28.5055
   -28.5006 -10.3592 -10.2473 -10.0178  -8.7068  -8.3494  -3.9038  -2.9788
    -2.8310  -2.3430  -1.6755  -1.5291   0.1709   0.4693   0.9928   3.2306
     3.7276   3.7863   5.3981   5.8492   6.3981   6.8528   8.1988   8.9198
     9.2168   9.5068   9.6971   9.9250  10.3096  10.4885  10.8663  10.9826
    11.2665  11.5297  11.6636  12.1761

     occupation numbers 
     1.0000   1.0000   1.0000   1.0000   1.0000   1.0000   1.0000   1.0000
     1.0000   1.0000   1.0000   1.0000   1.0000   1.0000   1.0000   1.0000
     1.0000   1.0000   1.0000   1.0000   1.0000   1.0000   1.0000   1.0000
     1.0000   1.0000   1.0000   1.0000   1.0000   1.0000   1.0000   1.0000
     1.0000   1.0000   1.0000   1.0000   1.0000   1.0000   1.0000   0.0000
     0.0000   0.0000   0.0000   0.0000   0.0000   0.0000   0.0000   0.0000
     0.0000   0.0000   0.0000   0.0000   0.0000   0.0000   0.0000   0.0000
     0.0000   0.0000   0.0000   0.0000

          k = 0.1538 0.6324 0.0000 ( 24284 PWs)   bands (ev):

   -35.5886 -35.5870 -35.5843 -35.5827 -35.5605 -35.5590 -35.5462 -35.5446
   -35.5298 -35.5282 -35.1718 -35.1647 -35.1515 -35.1083 -35.1050 -28.5455
   -28.5403 -28.5334 -28.5283 -28.5233 -28.5191 -28.5182 -28.5140 -28.5054
   -28.5005 -10.3471 -10.2418 -10.0241  -8.7104  -8.3484  -3.9067  -2.9996
    -2.8123  -2.3379  -1.7154  -1.4920   0.1764   0.4507   0.9931   3.2375
     3.7188   3.7642   5.3940   5.8364   6.3834   6.8421   8.1889   8.9443
     9.2456   9.4664   9.6081   9.9208  10.2366  10.4758  10.8062  10.9933
    11.2357  11.6619  11.7019  12.1563

     occupation numbers 
     1.0000   1.0000   1.0000   1.0000   1.0000   1.0000   1.0000   1.0000
     1.0000   1.0000   1.0000   1.0000   1.0000   1.0000   1.0000   1.0000
     1.0000   1.0000   1.0000   1.0000   1.0000   1.0000   1.0000   1.0000
     1.0000   1.0000   1.0000   1.0000   1.0000   1.0000   1.0000   1.0000
     1.0000   1.0000   1.0000   1.0000   1.0000   1.0000   1.0000   0.0000
     0.0000   0.0000   0.0000   0.0000   0.0000   0.0000   0.0000   0.0000
     0.0000   0.0000   0.0000   0.0000   0.0000   0.0000   0.0000   0.0000
     0.0000   0.0000   0.0000   0.0000

          k = 0.1538-0.4548 0.0000 ( 24294 PWs)   bands (ev):

   -35.5906 -35.5890 -35.5868 -35.5852 -35.5642 -35.5628 -35.5484 -35.5467
   -35.5316 -35.5300 -35.1764 -35.1673 -35.1532 -35.1113 -35.1092 -28.5465
   -28.5413 -28.5347 -28.5296 -28.5239 -28.5188 -28.5185 -28.5133 -28.5059
   -28.5009 -10.7342 -10.4576  -9.9346  -8.4448  -8.1050  -3.7249  -3.0233
    -2.4786  -2.3870  -1.7174  -1.2326   0.2046   0.4834   1.0575   3.1559
     3.7168   3.8712   5.2123   5.8099   6.2740   6.9536   8.0734   8.3702
     8.8589   8.8942   9.4561   9.7039  10.2705  10.4527  10.8507  11.1294
    11.5299  11.5944  12.0271  12.0971

     occupation numbers 
     1.0000   1.0000   1.0000   1.0000   1.0000   1.0000   1.0000   1.0000
     1.0000   1.0000   1.0000   1.0000   1.0000   1.0000   1.0000   1.0000
     1.0000   1.0000   1.0000   1.0000   1.0000   1.0000   1.0000   1.0000
     1.0000   1.0000   1.0000   1.0000   1.0000   1.0000   1.0000   1.0000
     1.0000   1.0000   1.0000   1.0000   1.0000   1.0000   1.0000   0.0000
     0.0000   0.0000   0.0000   0.0000   0.0000   0.0000   0.0000   0.0000
     0.0000   0.0000   0.0000   0.0000   0.0000   0.0000   0.0000   0.0000
     0.0000   0.0000   0.0000   0.0000

          k = 0.1538-0.3642 0.0000 ( 24301 PWs)   bands (ev):

   -35.5963 -35.5946 -35.5927 -35.5911 -35.5666 -35.5652 -35.5525 -35.5509
   -35.5307 -35.5291 -35.1808 -35.1697 -35.1569 -35.1152 -35.1138 -28.5504
   -28.5453 -28.5381 -28.5331 -28.5268 -28.5216 -28.5199 -28.5148 -28.5096
   -28.5047 -11.1294 -10.7550  -9.9808  -8.1362  -7.6986  -3.3532  -2.9808
    -2.2597  -1.9978  -1.6399  -1.0476   0.3782   0.5809   1.0619   3.1927
     3.6761   3.7709   5.0123   5.7478   6.0209   7.1467   7.6993   7.9576
     8.2713   8.7249   8.9174   9.5668  10.0519  10.4457  11.0238  11.1358
    11.5209  11.7875  12.1273  12.4110

     occupation numbers 
     1.0000   1.0000   1.0000   1.0000   1.0000   1.0000   1.0000   1.0000
     1.0000   1.0000   1.0000   1.0000   1.0000   1.0000   1.0000   1.0000
     1.0000   1.0000   1.0000   1.0000   1.0000   1.0000   1.0000   1.0000
     1.0000   1.0000   1.0000   1.0000   1.0000   1.0000   1.0000   1.0000
     1.0000   1.0000   1.0000   1.0000   1.0000   1.0000   1.0000   0.0000
     0.0000   0.0000   0.0000   0.0000   0.0000   0.0000   0.0000   0.0000
     0.0000   0.0000   0.0000   0.0000   0.0000   0.0000   0.0000   0.0000
     0.0000   0.0000   0.0000   0.0000

          k = 0.1538-0.2736 0.0000 ( 24277 PWs)   bands (ev):

   -35.6069 -35.6051 -35.6025 -35.6008 -35.5695 -35.5680 -35.5579 -35.5563
   -35.5327 -35.5311 -35.1854 -35.1726 -35.1642 -35.1240 -35.1221 -28.5549
   -28.5498 -28.5415 -28.5365 -28.5286 -28.5235 -28.5212 -28.5161 -28.5118
   -28.5069 -11.4717 -11.0432 -10.0925  -7.9086  -7.2432  -2.8580  -2.7865
    -1.9029  -1.6878  -1.3369  -0.8688   0.3206   0.8947   1.0643   3.0484
     3.6313   3.7453   4.6625   5.5948   5.7116   7.2828   7.3082   7.6486
     8.0096   8.4621   8.9067   9.3729   9.7881  10.5538  10.7661  10.8581
    11.1043  11.5619  11.8892  12.0056

     occupation numbers 
     1.0000   1.0000   1.0000   1.0000   1.0000   1.0000   1.0000   1.0000
     1.0000   1.0000   1.0000   1.0000   1.0000   1.0000   1.0000   1.0000
     1.0000   1.0000   1.0000   1.0000   1.0000   1.0000   1.0000   1.0000
     1.0000   1.0000   1.0000   1.0000   1.0000   1.0000   1.0000   1.0000
     1.0000   1.0000   1.0000   1.0000   1.0000   1.0000   1.0000   0.0000
     0.0000   0.0000   0.0000   0.0000   0.0000   0.0000   0.0000   0.0000
     0.0000   0.0000   0.0000   0.0000   0.0000   0.0000   0.0000   0.0000
     0.0000   0.0000   0.0000   0.0000

          k = 0.1538-0.1830 0.0000 ( 24254 PWs)   bands (ev):

   -35.6145 -35.6126 -35.6064 -35.6048 -35.5779 -35.5765 -35.5696 -35.5680
   -35.5463 -35.5447 -35.1867 -35.1734 -35.1724 -35.1398 -35.1381 -28.5564
   -28.5513 -28.5462 -28.5410 -28.5302 -28.5251 -28.5196 -28.5145 -28.5080
   -28.5031 -11.7375 -11.2817 -10.2151  -7.7640  -6.8500  -2.5889  -2.0736
    -1.6303  -1.3927  -1.0666  -0.5736   0.2829   0.7720   1.3072   2.9702
     3.2872   3.7873   4.5259   5.1734   5.3833   7.0414   7.1058   7.6418
     8.1210   8.1971   9.2423   9.3703   9.5110   9.9600  10.3449  10.5087
    10.9101  11.2064  11.7197  12.0269

     occupation numbers 
     1.0000   1.0000   1.0000   1.0000   1.0000   1.0000   1.0000   1.0000
     1.0000   1.0000   1.0000   1.0000   1.0000   1.0000   1.0000   1.0000
     1.0000   1.0000   1.0000   1.0000   1.0000   1.0000   1.0000   1.0000
     1.0000   1.0000   1.0000   1.0000   1.0000   1.0000   1.0000   1.0000
     1.0000   1.0000   1.0000   1.0000   1.0000   1.0000   1.0000   0.0000
     0.0000   0.0000   0.0000   0.0000   0.0000   0.0000   0.0000   0.0000
     0.0000   0.0000   0.0000   0.0000   0.0000   0.0000   0.0000   0.0000
     0.0000   0.0000   0.0000   0.0000

          k = 0.1538-0.0924 0.0000 ( 24203 PWs)   bands (ev):

   -35.6181 -35.6163 -35.6104 -35.6087 -35.5834 -35.5820 -35.5773 -35.5757
   -35.5529 -35.5513 -35.1934 -35.1805 -35.1742 -35.1509 -35.1463 -28.5563
   -28.5531 -28.5511 -28.5479 -28.5338 -28.5287 -28.5193 -28.5143 -28.5049
   -28.5000 -11.9051 -11.4316 -10.3031  -7.6939  -6.5904  -2.2188  -1.4720
    -1.4453  -1.1991  -0.9058  -0.5530   0.5469   0.8349   1.1902   2.8896
     3.3213   3.4757   4.5000   4.6910   5.1554   6.8562   6.9915   7.7361
     7.9605   8.4527   9.1589   9.2676   9.4930   9.6256  10.2685  10.3612
    10.4732  11.2588  11.5506  11.7464

     occupation numbers 
     1.0000   1.0000   1.0000   1.0000   1.0000   1.0000   1.0000   1.0000
     1.0000   1.0000   1.0000   1.0000   1.0000   1.0000   1.0000   1.0000
     1.0000   1.0000   1.0000   1.0000   1.0000   1.0000   1.0000   1.0000
     1.0000   1.0000   1.0000   1.0000   1.0000   1.0000   1.0000   1.0000
     1.0000   1.0000   1.0000   1.0000   1.0000   1.0000   1.0000   0.0000
     0.0000   0.0000   0.0000   0.0000   0.0000   0.0000   0.0000   0.0000
     0.0000   0.0000   0.0000   0.0000   0.0000   0.0000   0.0000   0.0000
     0.0000   0.0000   0.0000   0.0000

          k = 0.1538-0.0018 0.0000 ( 24210 PWs)   bands (ev):

   -35.6297 -35.6280 -35.6133 -35.6116 -35.5912 -35.5897 -35.5821 -35.5806
   -35.5598 -35.5582 -35.1938 -35.1900 -35.1819 -35.1479 -35.1475 -28.5571
   -28.5525 -28.5519 -28.5472 -28.5329 -28.5278 -28.5178 -28.5128 -28.5009
   -28.4960 -11.9658 -11.4967 -10.3416  -7.6719  -6.5073  -1.9477  -1.5390
    -1.3046  -1.1419  -0.6457  -0.4260   0.3281   1.0749   1.1578   3.0122
     3.1290   3.3591   4.4493   4.5706   5.0037   6.7888   6.9515   7.8611
     8.0375   8.1717   9.1375   9.2852   9.5876   9.6542   9.9435  10.2122
    10.9127  11.1751  11.4555  11.7520

     occupation numbers 
     1.0000   1.0000   1.0000   1.0000   1.0000   1.0000   1.0000   1.0000
     1.0000   1.0000   1.0000   1.0000   1.0000   1.0000   1.0000   1.0000
     1.0000   1.0000   1.0000   1.0000   1.0000   1.0000   1.0000   1.0000
     1.0000   1.0000   1.0000   1.0000   1.0000   1.0000   1.0000   1.0000
     1.0000   1.0000   1.0000   1.0000   1.0000   1.0000   1.0000   0.0000
     0.0000   0.0000   0.0000   0.0000   0.0000   0.0000   0.0000   0.0000
     0.0000   0.0000   0.0000   0.0000   0.0000   0.0000   0.0000   0.0000
     0.0000   0.0000   0.0000   0.0000

          k = 0.2308 0.1332 0.0000 ( 24272 PWs)   bands (ev):

   -35.6131 -35.6115 -35.6023 -35.6006 -35.5722 -35.5706 -35.5677 -35.5661
   -35.5442 -35.5426 -35.1808 -35.1690 -35.1655 -35.1407 -35.1367 -28.5523
   -28.5472 -28.5470 -28.5419 -28.5345 -28.5294 -28.5169 -28.5118 -28.5042
   -28.4992 -11.6478 -11.2062 -10.1806  -7.8386  -7.0307  -2.9556  -1.9602
    -1.7132  -1.6812  -1.0943  -0.5555   0.3133   0.6023   1.3696   3.0462
     3.5445   3.7912   4.9521   5.0057   5.5716   6.9507   7.1605   7.5734
     8.2053   8.6750   9.1935   9.4965   9.6780   9.8467  10.5421  10.6343
    10.8568  11.2948  11.4519  12.2001

     occupation numbers 
     1.0000   1.0000   1.0000   1.0000   1.0000   1.0000   1.0000   1.0000
     1.0000   1.0000   1.0000   1.0000   1.0000   1.0000   1.0000   1.0000
     1.0000   1.0000   1.0000   1.0000   1.0000   1.0000   1.0000   1.0000
     1.0000   1.0000   1.0000   1.0000   1.0000   1.0000   1.0000   1.0000
     1.0000   1.0000   1.0000   1.0000   1.0000   1.0000   1.0000   0.0000
     0.0000   0.0000   0.0000   0.0000   0.0000   0.0000   0.0000   0.0000
     0.0000   0.0000   0.0000   0.0000   0.0000   0.0000   0.0000   0.0000
     0.0000   0.0000   0.0000   0.0000

          k = 0.2308 0.2238 0.0000 ( 24290 PWs)   bands (ev):

   -35.6083 -35.6066 -35.5971 -35.5954 -35.5667 -35.5652 -35.5618 -35.5601
   -35.5388 -35.5372 -35.1775 -35.1659 -35.1626 -35.1271 -35.1257 -28.5522
   -28.5471 -28.5435 -28.5384 -28.5325 -28.5274 -28.5200 -28.5149 -28.5069
   -28.5020 -11.4438 -11.0306 -10.0948  -7.9675  -7.3237  -3.2150  -2.4382
    -1.9067  -1.7363  -1.4035  -0.6701   0.3401   0.5042   1.3290   3.2973
     3.4455   3.8209   4.9354   5.4499   5.8432   6.9334   7.3983   7.7100
     8.3406   8.6511   8.9060   9.6584   9.7626  10.6011  10.6761  10.8034
    11.0211  11.3878  11.9582  12.1710

     occupation numbers 
     1.0000   1.0000   1.0000   1.0000   1.0000   1.0000   1.0000   1.0000
     1.0000   1.0000   1.0000   1.0000   1.0000   1.0000   1.0000   1.0000
     1.0000   1.0000   1.0000   1.0000   1.0000   1.0000   1.0000   1.0000
     1.0000   1.0000   1.0000   1.0000   1.0000   1.0000   1.0000   1.0000
     1.0000   1.0000   1.0000   1.0000   1.0000   1.0000   1.0000   0.0000
     0.0000   0.0000   0.0000   0.0000   0.0000   0.0000   0.0000   0.0000
     0.0000   0.0000   0.0000   0.0000   0.0000   0.0000   0.0000   0.0000
     0.0000   0.0000   0.0000   0.0000

          k = 0.2308 0.3144 0.0000 ( 24272 PWs)   bands (ev):

   -35.5995 -35.5979 -35.5919 -35.5902 -35.5636 -35.5621 -35.5550 -35.5532
   -35.5320 -35.5303 -35.1790 -35.1701 -35.1609 -35.1155 -35.1149 -28.5486
   -28.5436 -28.5387 -28.5337 -28.5259 -28.5208 -28.5189 -28.5139 -28.5092
   -28.5043 -11.1523 -10.7799 -10.0004  -8.1531  -7.7115  -3.3682  -2.9392
[...]
    11.2957  11.6322  11.8292  11.9932

     occupation numbers 
     1.0000   1.0000   1.0000   1.0000   1.0000   1.0000   1.0000   1.0000
     1.0000   1.0000   1.0000   1.0000   1.0000   1.0000   1.0000   1.0000
     1.0000   1.0000   1.0000   1.0000   1.0000   1.0000   1.0000   1.0000
     1.0000   1.0000   1.0000   1.0000   1.0000   1.0000   1.0000   1.0000
     1.0000   1.0000   1.0000   1.0000   1.0000   1.0000   1.0000   0.0000
     0.0000   0.0000   0.0000   0.0000   0.0000   0.0000   0.0000   0.0000
     0.0000   0.0000   0.0000   0.0000   0.0000   0.0000   0.0000   0.0000
     0.0000   0.0000   0.0000   0.0000

          k = 0.4615 0.2665 0.0000 ( 24328 PWs)   bands (ev):

   -35.6198 -35.6066 -35.5852 -35.5807 -35.5755 -35.5721 -35.5559 -35.5460
   -35.5411 -35.5215 -35.1169 -35.1064 -35.0935 -35.0600 -35.0512 -28.5246
   -28.5151 -28.5088 -28.4937 -28.4905 -28.4807 -28.4771 -28.4742 -28.4595
   -28.4434 -10.5188 -10.4081 -10.1150  -8.6702  -8.0782  -3.9967  -2.6010
    -2.3113  -2.2713  -1.5766  -1.0928   0.2842   0.4794   0.7959   3.0906
     3.7546   3.8110   5.4830   5.6622   6.2957   6.4926   7.9288   8.7476
     9.0616   9.3547   9.6290   9.8128  10.4156  10.4243  10.9805  11.6045
    11.7003  12.1582  12.2969  12.5064

     occupation numbers 
     1.0000   1.0000   1.0000   1.0000   1.0000   1.0000   1.0000   1.0000
     1.0000   1.0000   1.0000   1.0000   1.0000   1.0000   1.0000   1.0000
     1.0000   1.0000   1.0000   1.0000   1.0000   1.0000   1.0000   1.0000
     1.0000   1.0000   1.0000   1.0000   1.0000   1.0000   1.0000   1.0000
     1.0000   1.0000   1.0000   1.0000   1.0000   1.0000   1.0000   0.0000
     0.0000   0.0000   0.0000   0.0000   0.0000   0.0000   0.0000   0.0000
     0.0000   0.0000   0.0000   0.0000   0.0000   0.0000   0.0000   0.0000
     0.0000   0.0000   0.0000   0.0000

          k = 0.4615 0.3571 0.0000 ( 24308 PWs)   bands (ev):

   -35.6175 -35.6053 -35.5829 -35.5791 -35.5757 -35.5707 -35.5561 -35.5444
   -35.5413 -35.5217 -35.1138 -35.1070 -35.0970 -35.0554 -35.0490 -28.5243
   -28.5137 -28.5064 -28.4950 -28.4902 -28.4799 -28.4792 -28.4719 -28.4607
   -28.4460 -10.3942 -10.3431 -10.1456  -8.7166  -8.1691  -3.9846  -2.6321
    -2.5353  -2.2930  -1.6595  -1.1426   0.2838   0.4032   0.9695   3.3871
     3.5358   3.8229   5.5737   5.7286   6.4620   6.4801   8.0186   8.9609
     9.1722   9.2601   9.4604  10.0427  10.1879  10.4289  10.9659  11.4915
    11.5525  11.8624  12.2978  12.3853

     occupation numbers 
     1.0000   1.0000   1.0000   1.0000   1.0000   1.0000   1.0000   1.0000
     1.0000   1.0000   1.0000   1.0000   1.0000   1.0000   1.0000   1.0000
     1.0000   1.0000   1.0000   1.0000   1.0000   1.0000   1.0000   1.0000
     1.0000   1.0000   1.0000   1.0000   1.0000   1.0000   1.0000   1.0000
     1.0000   1.0000   1.0000   1.0000   1.0000   1.0000   1.0000   0.0000
     0.0000   0.0000   0.0000   0.0000   0.0000   0.0000   0.0000   0.0000
     0.0000   0.0000   0.0000   0.0000   0.0000   0.0000   0.0000   0.0000
     0.0000   0.0000   0.0000   0.0000

          k = 0.4615 0.4477 0.0000 ( 24304 PWs)   bands (ev):

   -35.6160 -35.6071 -35.5814 -35.5792 -35.5731 -35.5726 -35.5535 -35.5446
   -35.5386 -35.5191 -35.1116 -35.1101 -35.1042 -35.0545 -35.0510 -28.5193
   -28.5111 -28.4988 -28.4939 -28.4852 -28.4815 -28.4770 -28.4642 -28.4594
   -28.4477 -10.3977 -10.2955 -10.0177  -8.6970  -8.3020  -3.8559  -2.9248
    -2.7549  -2.2872  -1.6727  -1.4644   0.2474   0.5590   1.1484   3.3863
     3.8319   3.9045   5.4846   6.0127   6.4428   6.9861   8.1975   8.8513
     9.1429   9.4202   9.6013   9.8611  10.2241  10.4435  10.8041  10.9141
    11.1825  11.4701  11.6386  12.2088

     occupation numbers 
     1.0000   1.0000   1.0000   1.0000   1.0000   1.0000   1.0000   1.0000
     1.0000   1.0000   1.0000   1.0000   1.0000   1.0000   1.0000   1.0000
     1.0000   1.0000   1.0000   1.0000   1.0000   1.0000   1.0000   1.0000
     1.0000   1.0000   1.0000   1.0000   1.0000   1.0000   1.0000   1.0000
     1.0000   1.0000   1.0000   1.0000   1.0000   1.0000   1.0000   0.0000
     0.0000   0.0000   0.0000   0.0000   0.0000   0.0000   0.0000   0.0000
     0.0000   0.0000   0.0000   0.0000   0.0000   0.0000   0.0000   0.0000
     0.0000   0.0000   0.0000   0.0000

          k = 0.4615 0.5383 0.0000 ( 24285 PWs)   bands (ev):

   -35.6124 -35.6002 -35.5784 -35.5779 -35.5724 -35.5656 -35.5539 -35.5438
   -35.5379 -35.5195 -35.1082 -35.1055 -35.1023 -35.0523 -35.0499 -28.5172
   -28.5123 -28.4948 -28.4925 -28.4860 -28.4831 -28.4783 -28.4602 -28.4579
   -28.4521 -10.4230 -10.2623  -9.8821  -8.6249  -8.4484  -3.6414  -3.3324
    -2.7098  -2.3071  -2.0175  -1.4359   0.2163   0.8001   1.0323   3.5906
     3.8094   3.9997   5.6977   6.1130   6.3332   7.7832   8.4989   8.6226
     8.9321   9.1744   9.4525   9.7775  10.1993  10.3796  10.6337  10.9210
    11.0525  11.2571  11.4891  11.8037

     occupation numbers 
     1.0000   1.0000   1.0000   1.0000   1.0000   1.0000   1.0000   1.0000
     1.0000   1.0000   1.0000   1.0000   1.0000   1.0000   1.0000   1.0000
     1.0000   1.0000   1.0000   1.0000   1.0000   1.0000   1.0000   1.0000
     1.0000   1.0000   1.0000   1.0000   1.0000   1.0000   1.0000   1.0000
     1.0000   1.0000   1.0000   1.0000   1.0000   1.0000   1.0000   0.0000
     0.0000   0.0000   0.0000   0.0000   0.0000   0.0000   0.0000   0.0000
     0.0000   0.0000   0.0000   0.0000   0.0000   0.0000   0.0000   0.0000
     0.0000   0.0000   0.0000   0.0000

          k = 0.4615 0.6289 0.0000 ( 24309 PWs)   bands (ev):

   -35.6118 -35.6006 -35.5799 -35.5773 -35.5707 -35.5661 -35.5535 -35.5454
   -35.5361 -35.5191 -35.1093 -35.1056 -35.1011 -35.0524 -35.0501 -28.5179
   -28.5118 -28.4953 -28.4922 -28.4861 -28.4838 -28.4777 -28.4607 -28.4576
   -28.4523 -10.4159 -10.2528  -9.8728  -8.6156  -8.4582  -3.6475  -3.3332
    -2.7172  -2.3200  -2.0223  -1.4290   0.1986   0.7927   1.0128   3.5267
     3.8074   4.0189   5.6556   6.0826   6.3528   7.6982   8.4913   8.6785
     8.9961   9.1617   9.5186   9.7844  10.2628  10.3757  10.6072  10.9656
    11.0437  11.2953  11.4860  11.7489

     occupation numbers 
     1.0000   1.0000   1.0000   1.0000   1.0000   1.0000   1.0000   1.0000
     1.0000   1.0000   1.0000   1.0000   1.0000   1.0000   1.0000   1.0000
     1.0000   1.0000   1.0000   1.0000   1.0000   1.0000   1.0000   1.0000
     1.0000   1.0000   1.0000   1.0000   1.0000   1.0000   1.0000   1.0000
     1.0000   1.0000   1.0000   1.0000   1.0000   1.0000   1.0000   0.0000
     0.0000   0.0000   0.0000   0.0000   0.0000   0.0000   0.0000   0.0000
     0.0000   0.0000   0.0000   0.0000   0.0000   0.0000   0.0000   0.0000
     0.0000   0.0000   0.0000   0.0000

          k = 0.4615 0.7195 0.0000 ( 24282 PWs)   bands (ev):

   -35.6140 -35.6070 -35.5810 -35.5796 -35.5725 -35.5710 -35.5528 -35.5466
   -35.5363 -35.5184 -35.1142 -35.1097 -35.1005 -35.0538 -35.0505 -28.5207
   -28.5105 -28.4991 -28.4948 -28.4866 -28.4822 -28.4763 -28.4645 -28.4603
   -28.4483 -10.3752 -10.2693  -9.9958  -8.6868  -8.3105  -3.8626  -2.9271
    -2.7900  -2.3092  -1.6500  -1.5067   0.2180   0.5333   1.0832   3.3130
     3.8281   3.8348   5.4519   5.9481   6.4357   6.9354   8.2036   8.8670
     9.1596   9.4786   9.6841   9.8841  10.3068  10.4727  10.8694  10.9369
    11.2075  11.4766  11.6366  12.2103

     occupation numbers 
     1.0000   1.0000   1.0000   1.0000   1.0000   1.0000   1.0000   1.0000
     1.0000   1.0000   1.0000   1.0000   1.0000   1.0000   1.0000   1.0000
     1.0000   1.0000   1.0000   1.0000   1.0000   1.0000   1.0000   1.0000
     1.0000   1.0000   1.0000   1.0000   1.0000   1.0000   1.0000   1.0000
     1.0000   1.0000   1.0000   1.0000   1.0000   1.0000   1.0000   0.0000
     0.0000   0.0000   0.0000   0.0000   0.0000   0.0000   0.0000   0.0000
     0.0000   0.0000   0.0000   0.0000   0.0000   0.0000   0.0000   0.0000
     0.0000   0.0000   0.0000   0.0000

          k = 0.4615 0.8101 0.0000 ( 24295 PWs)   bands (ev):

   -35.6146 -35.6041 -35.5810 -35.5803 -35.5737 -35.5696 -35.5557 -35.5465
   -35.5390 -35.5213 -35.1162 -35.1073 -35.0926 -35.0540 -35.0475 -28.5257
   -28.5132 -28.5058 -28.4965 -28.4916 -28.4802 -28.4788 -28.4713 -28.4622
   -28.4464 -10.3557 -10.3067 -10.1251  -8.7049  -8.1712  -3.9893  -2.6775
    -2.5076  -2.3433  -1.7049  -1.1639   0.2643   0.3403   0.8860   3.2919
     3.4715   3.7964   5.5495   5.6387   6.4454   6.4550   8.0436   9.0047
     9.2102   9.2906   9.5000  10.0844  10.2274  10.4300  11.0040  11.4690
    11.6054  11.9333  12.2556  12.3959

     occupation numbers 
     1.0000   1.0000   1.0000   1.0000   1.0000   1.0000   1.0000   1.0000
     1.0000   1.0000   1.0000   1.0000   1.0000   1.0000   1.0000   1.0000
     1.0000   1.0000   1.0000   1.0000   1.0000   1.0000   1.0000   1.0000
     1.0000   1.0000   1.0000   1.0000   1.0000   1.0000   1.0000   1.0000
     1.0000   1.0000   1.0000   1.0000   1.0000   1.0000   1.0000   0.0000
     0.0000   0.0000   0.0000   0.0000   0.0000   0.0000   0.0000   0.0000
     0.0000   0.0000   0.0000   0.0000   0.0000   0.0000   0.0000   0.0000
     0.0000   0.0000   0.0000   0.0000

          k = 0.4615-0.2771 0.0000 ( 24291 PWs)   bands (ev):

   -35.6167 -35.6058 -35.5830 -35.5824 -35.5730 -35.5713 -35.5552 -35.5485
   -35.5383 -35.5208 -35.1192 -35.1073 -35.0893 -35.0584 -35.0492 -28.5259
   -28.5147 -28.5076 -28.4952 -28.4918 -28.4803 -28.4776 -28.4731 -28.4609
   -28.4438 -10.4839 -10.3713 -10.0897  -8.6554  -8.0761  -3.9997  -2.6020
    -2.3833  -2.2550  -1.6748  -1.0934   0.2673   0.3926   0.7237   2.9941
     3.6875   3.7928   5.3829   5.6417   6.2804   6.4791   7.9616   8.7854
     9.0930   9.4006   9.6712   9.8411  10.4188  10.4794  11.0159  11.6521
    11.6964  12.1326  12.2218  12.5129

     occupation numbers 
     1.0000   1.0000   1.0000   1.0000   1.0000   1.0000   1.0000   1.0000
     1.0000   1.0000   1.0000   1.0000   1.0000   1.0000   1.0000   1.0000
     1.0000   1.0000   1.0000   1.0000   1.0000   1.0000   1.0000   1.0000
     1.0000   1.0000   1.0000   1.0000   1.0000   1.0000   1.0000   1.0000
     1.0000   1.0000   1.0000   1.0000   1.0000   1.0000   1.0000   0.0000
     0.0000   0.0000   0.0000   0.0000   0.0000   0.0000   0.0000   0.0000
     0.0000   0.0000   0.0000   0.0000   0.0000   0.0000   0.0000   0.0000
     0.0000   0.0000   0.0000   0.0000

          k = 0.4615-0.1865 0.0000 ( 24268 PWs)   bands (ev):

   -35.6160 -35.6061 -35.5817 -35.5802 -35.5759 -35.5715 -35.5555 -35.5457
   -35.5412 -35.5211 -35.1155 -35.1065 -35.0939 -35.0561 -35.0498 -28.5263
   -28.5141 -28.5059 -28.4975 -28.4922 -28.4812 -28.4797 -28.4714 -28.4632
   -28.4474 -10.6406 -10.4381  -9.9869  -8.5526  -8.0500  -3.8914  -2.6319
    -2.5181  -2.2461  -1.6102  -1.1303   0.1897   0.4354   0.9536   3.3523
     3.4019   3.8698   5.4674   5.6506   6.3577   6.6125   7.9513   8.5189
     8.9180   9.4765   9.7718   9.8554  10.3838  10.6627  10.9941  11.0819
    11.5920  11.7317  12.1119  12.3447

     occupation numbers 
     1.0000   1.0000   1.0000   1.0000   1.0000   1.0000   1.0000   1.0000
     1.0000   1.0000   1.0000   1.0000   1.0000   1.0000   1.0000   1.0000
     1.0000   1.0000   1.0000   1.0000   1.0000   1.0000   1.0000   1.0000
     1.0000   1.0000   1.0000   1.0000   1.0000   1.0000   1.0000   1.0000
     1.0000   1.0000   1.0000   1.0000   1.0000   1.0000   1.0000   0.0000
     0.0000   0.0000   0.0000   0.0000   0.0000   0.0000   0.0000   0.0000
     0.0000   0.0000   0.0000   0.0000   0.0000   0.0000   0.0000   0.0000
     0.0000   0.0000   0.0000   0.0000

          k = 0.4615-0.0959 0.0000 ( 24293 PWs)   bands (ev):

   -35.6162 -35.6093 -35.5835 -35.5818 -35.5748 -35.5733 -35.5547 -35.5491
   -35.5386 -35.5202 -35.1166 -35.1113 -35.1038 -35.0571 -35.0546 -28.5214
   -28.5117 -28.4987 -28.4949 -28.4873 -28.4829 -28.4776 -28.4642 -28.4603
   -28.4491 -10.7494 -10.4865  -9.9202  -8.4219  -8.0796  -3.6775  -2.9547
    -2.4513  -2.3620  -1.6488  -1.2691   0.2633   0.5875   1.1512   3.2335
     3.8415   3.9788   5.2881   5.9328   6.3555   7.0707   8.0854   8.3252
     8.8353   9.0854   9.4323   9.7593  10.2539  10.4667  10.8677  11.1116
    11.4949  11.5675  12.0014  12.0624

     occupation numbers 
     1.0000   1.0000   1.0000   1.0000   1.0000   1.0000   1.0000   1.0000
     1.0000   1.0000   1.0000   1.0000   1.0000   1.0000   1.0000   1.0000
     1.0000   1.0000   1.0000   1.0000   1.0000   1.0000   1.0000   1.0000
     1.0000   1.0000   1.0000   1.0000   1.0000   1.0000   1.0000   1.0000
     1.0000   1.0000   1.0000   1.0000   1.0000   1.0000   1.0000   0.0000
     0.0000   0.0000   0.0000   0.0000   0.0000   0.0000   0.0000   0.0000
     0.0000   0.0000   0.0000   0.0000   0.0000   0.0000   0.0000   0.0000
     0.0000   0.0000   0.0000   0.0000

          k = 0.4615-0.0053 0.0000 ( 24295 PWs)   bands (ev):

   -35.6169 -35.6030 -35.5824 -35.5807 -35.5743 -35.5684 -35.5537 -35.5463
   -35.5396 -35.5192 -35.1148 -35.1096 -35.1041 -35.0543 -35.0521 -28.5210
   -28.5136 -28.4968 -28.4943 -28.4876 -28.4869 -28.4796 -28.4623 -28.4597
   -28.4537 -10.7877 -10.5048  -9.8932  -8.3553  -8.1165  -3.4146  -3.3118
    -2.4284  -2.1130  -2.0214  -1.2627   0.4059   0.8306   0.9733   3.5782
     3.6681   4.0171   5.4650   5.9976   6.2557   7.7741   7.9516   8.2951
     8.3564   8.9479   9.3127   9.4329  10.2233  10.3558  11.0333  11.1201
    11.3959  11.6357  11.9470  12.0961

     occupation numbers 
     1.0000   1.0000   1.0000   1.0000   1.0000   1.0000   1.0000   1.0000
     1.0000   1.0000   1.0000   1.0000   1.0000   1.0000   1.0000   1.0000
     1.0000   1.0000   1.0000   1.0000   1.0000   1.0000   1.0000   1.0000
     1.0000   1.0000   1.0000   1.0000   1.0000   1.0000   1.0000   1.0000
     1.0000   1.0000   1.0000   1.0000   1.0000   1.0000   1.0000   0.0000
     0.0000   0.0000   0.0000   0.0000   0.0000   0.0000   0.0000   0.0000
     0.0000   0.0000   0.0000   0.0000   0.0000   0.0000   0.0000   0.0000
     0.0000   0.0000   0.0000   0.0000

          k = 0.4615 0.0853 0.0000 ( 24293 PWs)   bands (ev):

   -35.6179 -35.6092 -35.5834 -35.5820 -35.5753 -35.5747 -35.5553 -35.5474
   -35.5407 -35.5209 -35.1158 -35.1119 -35.1059 -35.0574 -35.0548 -28.5203
   -28.5124 -28.4990 -28.4938 -28.4862 -28.4824 -28.4782 -28.4645 -28.4593
   -28.4485 -10.7617 -10.5018  -9.9356  -8.4366  -8.0761  -3.6793  -2.9433
    -2.4390  -2.3346  -1.6581  -1.2401   0.2871   0.6043   1.2028   3.3020
     3.8861   3.9689   5.3102   5.9856   6.3391   7.1068   8.0735   8.3088
     8.8296   9.0030   9.4050   9.6908  10.2178  10.4534  10.8327  11.0813
    11.4399  11.5608  11.9857  12.0387

     occupation numbers 
     1.0000   1.0000   1.0000   1.0000   1.0000   1.0000   1.0000   1.0000
     1.0000   1.0000   1.0000   1.0000   1.0000   1.0000   1.0000   1.0000
     1.0000   1.0000   1.0000   1.0000   1.0000   1.0000   1.0000   1.0000
     1.0000   1.0000   1.0000   1.0000   1.0000   1.0000   1.0000   1.0000
     1.0000   1.0000   1.0000   1.0000   1.0000   1.0000   1.0000   0.0000
     0.0000   0.0000   0.0000   0.0000   0.0000   0.0000   0.0000   0.0000
     0.0000   0.0000   0.0000   0.0000   0.0000   0.0000   0.0000   0.0000
     0.0000   0.0000   0.0000   0.0000

          k = 0.4615 0.1759 0.0000 ( 24323 PWs)   bands (ev):

   -35.6190 -35.6072 -35.5844 -35.5787 -35.5776 -35.5726 -35.5560 -35.5443
   -35.5429 -35.5215 -35.1138 -35.1066 -35.0981 -35.0574 -35.0514 -28.5250
   -28.5145 -28.5068 -28.4957 -28.4909 -28.4807 -28.4801 -28.4722 -28.4614
   -28.4468 -10.6651 -10.4669 -10.0125  -8.5692  -8.0507  -3.8903  -2.6432
    -2.4756  -2.2029  -1.5839  -1.1017   0.2295   0.4719   1.0343   3.4395
     3.4704   3.8792   5.4895   5.7254   6.3678   6.6236   7.9237   8.4927
     8.9012   9.4394   9.7168   9.7901  10.3670  10.5813  10.9538  11.0179
    11.5118  11.7277  12.0949  12.4401

     occupation numbers 
     1.0000   1.0000   1.0000   1.0000   1.0000   1.0000   1.0000   1.0000
     1.0000   1.0000   1.0000   1.0000   1.0000   1.0000   1.0000   1.0000
     1.0000   1.0000   1.0000   1.0000   1.0000   1.0000   1.0000   1.0000
     1.0000   1.0000   1.0000   1.0000   1.0000   1.0000   1.0000   1.0000
     1.0000   1.0000   1.0000   1.0000   1.0000   1.0000   1.0000   0.0000
     0.0000   0.0000   0.0000   0.0000   0.0000   0.0000   0.0000   0.0000
     0.0000   0.0000   0.0000   0.0000   0.0000   0.0000   0.0000   0.0000
     0.0000   0.0000   0.0000   0.0000

     highest occupied, lowest unoccupied level (ev):     1.3911    2.5801

     Writing all to output data dir tmp/Sb2Te3-uatsx-c1-2.0.save/ :
     XML data file, pseudopotentials, collected wavefunctions

     init_run     :     10.81s CPU     11.56s WALL (       1 calls)
     electrons    :   1275.10s CPU   1286.70s WALL (       1 calls)

     Called by init_run:
     aceinit0     :     10.29s CPU     11.01s WALL (       1 calls)
     wfcinit      :      0.00s CPU      0.02s WALL (       1 calls)
     wfcinit:wfcr :      6.46s CPU      6.58s WALL (     170 calls)
     potinit      :      0.05s CPU      0.05s WALL (       1 calls)
     hinit0       :      0.43s CPU      0.43s WALL (       1 calls)

     Called by electrons:
     c_bands      :    231.91s CPU    235.49s WALL (       2 calls)
     sum_band     :      1.31s CPU      1.35s WALL (       1 calls)
     v_of_rho     :      0.03s CPU      0.03s WALL (       2 calls)
     v_h          :      0.00s CPU      0.00s WALL (       2 calls)
     v_xc         :      0.03s CPU      0.03s WALL (       2 calls)

     Called by c_bands:
     init_us_2    :      0.06s CPU      0.08s WALL (     255 calls)
     cegterg      :    222.91s CPU    225.96s WALL (     471 calls)

     Called by sum_band:
     sum_band:wei :      0.00s CPU      0.00s WALL (       1 calls)
     sum_band:loo :      1.31s CPU      1.35s WALL (       1 calls)
     sum_band:buf :      0.01s CPU      0.02s WALL (      85 calls)
     sum_band:ini :      0.02s CPU      0.03s WALL (      85 calls)

     Called by *egterg:
     cdiaghg      :     44.30s CPU     44.52s WALL (    7738 calls)
     cegterg:over :     17.60s CPU     17.74s WALL (    7568 calls)
     cegterg:upda :      3.19s CPU      3.23s WALL (    7568 calls)
     cegterg:last :      5.92s CPU      5.96s WALL (    4054 calls)
     h_psi        :    151.68s CPU    154.37s WALL (    8209 calls)
     g_psi        :      0.83s CPU      0.84s WALL (    7568 calls)

     Called by h_psi:
     h_psi:calbec :      9.15s CPU      9.27s WALL (    8209 calls)
     vloc_psi     :    132.02s CPU    134.47s WALL (    8209 calls)
     add_vuspsi   :      2.46s CPU      2.49s WALL (    8209 calls)

     General routines
     calbec       :     14.97s CPU     15.17s WALL (   16503 calls)
     fft          :      0.45s CPU      0.46s WALL (      19 calls)
     ffts         :      0.00s CPU      0.00s WALL (       1 calls)
     fftw         :    127.16s CPU    129.50s WALL (  526790 calls)
     fftc         :    969.58s CPU    976.64s WALL (  612000 calls)
     fftcw        :      4.08s CPU      4.14s WALL (   15300 calls)
     davcio       :      0.06s CPU      0.34s WALL (     510 calls)

     Parallel routines

     EXX routines
     exx_grid     :      0.00s CPU      0.00s WALL (       1 calls)
     exxinit      :     22.10s CPU     22.45s WALL (       1 calls)
     vexx         :   1019.60s CPU   1027.14s WALL (      85 calls)
     matcalc      :      5.88s CPU      5.95s WALL (    8294 calls)
     aceupdate    :      0.03s CPU      0.03s WALL (      85 calls)
     vexxace      :      7.70s CPU      7.79s WALL (    8209 calls)
     aceinit      :   1019.74s CPU   1027.29s WALL (      85 calls)

     PWSCF        :  21m53.44s CPU  22m42.67s WALL


   This run was terminated on:  22: 3:43  14May2025            

=------------------------------------------------------------------------------=
   JOB DONE.
=------------------------------------------------------------------------------=
