
     Program PWSCF v.7.3.1 starts on 20May2025 at  5:25: 0 

     This program is part of the open-source Quantum ESPRESSO suite
     for quantum simulation of materials; please cite
         "P. Giannozzi et al., J. Phys.:Condens. Matter 21 395502 (2009);
         "P. Giannozzi et al., J. Phys.:Condens. Matter 29 465901 (2017);
         "P. Giannozzi et al., J. Chem. Phys. 152 154105 (2020);
          URL http://www.quantum-espresso.org", 
     in publications or presentations arising from this work. More details at
     http://www.quantum-espresso.org/quote

     Parallel version (MPI & OpenMP), running on     168 processor cores
     Number of MPI processes:               168
     Threads/MPI process:                     1

     MPI processes distributed on     7 nodes
     98212 MiB available memory on the printing compute node when the environment starts

     Waiting for input...
     Reading input from standard input

     Current dimensions of program PWSCF are:
     Max number of different atomic species (ntypx) = 10
     Max number of k-points (npk) =  40000
     Max angular momentum in pseudopotentials (lmaxx) =  4

     IMPORTANT: XC functional enforced from input :
     Exchange-correlation= GAUP
                           (   1   4  20   4   0   0   0)
     EXX-fraction              =        0.24
     Any further DFT definition will be discarded
     Please, verify this is what you really want


     K-points division:     npool     =       2
     R & G space division:  proc/nbgrp/npool/nimage =      84
     Subspace diagonalization in iterative solution of the eigenvalue problem:
     a serial algorithm will be used

     EXX: q-point mesh:     1    1    1
     EXX: setup a grid of 85 q-points centered on each k-point
     (k+q)-points:
   0.0000000   0.0000000   0.0000000         1    1
   0.0000000   0.0923769   0.0000000         2    1
   0.0000000   0.1847539   0.0000000         3    1
   0.0000000   0.2771308   0.0000000         4    1
   0.0000000   0.3695077   0.0000000         5    1
   0.0000000   0.4618847   0.0000000         6    1
   0.0000000   0.5542616   0.0000000         7    1
   0.0769231   0.0444120   0.0000000         8    1
   0.0769231   0.1367889   0.0000000         9    1
   0.0769231   0.2291659   0.0000000        10    1
   0.0769231   0.3215428   0.0000000        11    1
   0.0769231   0.4139197   0.0000000        12    1
   0.0769231   0.5062967   0.0000000        13    1
   0.0769231   0.5986736   0.0000000        14    1
   0.0769231  -0.5098496   0.0000000        15    1
   0.0769231  -0.4174727   0.0000000        16    1
   0.0769231  -0.3250958   0.0000000        17    1
   0.0769231  -0.2327188   0.0000000        18    1
   0.0769231  -0.1403419   0.0000000        19    1
   0.0769231  -0.0479649   0.0000000        20    1
   0.1538462   0.0888240   0.0000000        21    1
   0.1538462   0.1812009   0.0000000        22    1
   0.1538462   0.2735779   0.0000000        23    1
   0.1538462   0.3659548   0.0000000        24    1
   0.1538462   0.4583317   0.0000000        25    1
   0.1538462   0.5507087   0.0000000        26    1
   0.1538462   0.6430856   0.0000000        27    1
   0.1538462  -0.4654376   0.0000000        28    1
   0.1538462  -0.3730607   0.0000000        29    1
   0.1538462  -0.2806838   0.0000000        30    1
   0.1538462  -0.1883068   0.0000000        31    1
   0.1538462  -0.0959299   0.0000000        32    1
   0.1538462  -0.0035530   0.0000000        33    1
   0.2307692   0.1332360   0.0000000        34    1
   0.2307692   0.2256129   0.0000000        35    1
   0.2307692   0.3179898   0.0000000        36    1
   0.2307692   0.4103668   0.0000000        37    1
   0.2307692   0.5027437   0.0000000        38    1
   0.2307692   0.5951206   0.0000000        39    1
   0.2307692   0.6874976   0.0000000        40    1
   0.2307692  -0.4210257   0.0000000        41    1
   0.2307692  -0.3286487   0.0000000        42    1
   0.2307692  -0.2362718   0.0000000        43    1
   0.2307692  -0.1438948   0.0000000        44    1
   0.2307692  -0.0515179   0.0000000        45    1
   0.2307692   0.0408590   0.0000000        46    1
   0.3076923   0.1776480   0.0000000        47    1
   0.3076923   0.2700249   0.0000000        48    1
   0.3076923   0.3624018   0.0000000        49    1
   0.3076923   0.4547788   0.0000000        50    1
   0.3076923   0.5471557   0.0000000        51    1
   0.3076923   0.6395326   0.0000000        52    1
   0.3076923   0.7319096   0.0000000        53    1
   0.3076923  -0.3766137   0.0000000        54    1
   0.3076923  -0.2842367   0.0000000        55    1
   0.3076923  -0.1918598   0.0000000        56    1
   0.3076923  -0.0994829   0.0000000        57    1
   0.3076923  -0.0071059   0.0000000        58    1
   0.3076923   0.0852710   0.0000000        59    1
   0.3846154   0.2220599   0.0000000        60    1
   0.3846154   0.3144369   0.0000000        61    1
   0.3846154   0.4068138   0.0000000        62    1
   0.3846154   0.4991908   0.0000000        63    1
   0.3846154   0.5915677   0.0000000        64    1
   0.3846154   0.6839446   0.0000000        65    1
   0.3846154   0.7763216   0.0000000        66    1
   0.3846154  -0.3322017   0.0000000        67    1
   0.3846154  -0.2398247   0.0000000        68    1
   0.3846154  -0.1474478   0.0000000        69    1
   0.3846154  -0.0550709   0.0000000        70    1
   0.3846154   0.0373061   0.0000000        71    1
   0.3846154   0.1296830   0.0000000        72    1
   0.4615385   0.2664719   0.0000000        73    1
   0.4615385   0.3588489   0.0000000        74    1
   0.4615385   0.4512258   0.0000000        75    1
   0.4615385   0.5436027   0.0000000        76    1
   0.4615385   0.6359797   0.0000000        77    1
   0.4615385   0.7283566   0.0000000        78    1
   0.4615385   0.8207336   0.0000000        79    1
   0.4615385  -0.2877897   0.0000000        80    1
   0.4615385  -0.1954128   0.0000000        81    1
   0.4615385  -0.1030358   0.0000000        82    1
   0.4615385  -0.0106589   0.0000000        83    1
   0.4615385   0.0817181   0.0000000        84    1
   0.4615385   0.1740950   0.0000000        85    1

     Parallelization info
     --------------------
     sticks:   dense  smooth     PW     G-vecs:    dense   smooth      PW
     Min          15      15      4                 2333     2333     358
     Max          16      16      5                 2372     2372     393
     Sum        1331    1331    391               198065   198065   31435

     Using Slab Decomposition



     bravais-lattice index     =            0
     lattice parameter (alat)  =       8.4715  a.u.
     unit-cell volume          =    2502.8602 (a.u.)^3
     number of atoms/cell      =            5
     number of atomic types    =            2
     number of electrons       =        78.00
     number of Kohn-Sham states=          100
     kinetic-energy cutoff     =      70.0000  Ry
     charge density cutoff     =     280.0000  Ry
     cutoff for Fock operator  =     280.0000  Ry
     scf convergence threshold =      1.0E-07
     mixing beta               =       0.7000
     number of iterations used =            8  plain     mixing
     Exchange-correlation= GAUP
                           (   1   4  20   4   0   0   0)
     EXX-fraction              =        0.24

     celldm(1)=   8.471459  celldm(2)=   0.000000  celldm(3)=   0.000000
     celldm(4)=   0.000000  celldm(5)=   0.000000  celldm(6)=   0.000000

     crystal axes: (cart. coord. in units of alat)
               a(1) = (   1.000000   0.000000   0.000000 )  
               a(2) = (  -0.480769   0.832709   0.000000 )  
               a(3) = (   0.000000   0.000000   4.943891 )  

     reciprocal axes: (cart. coord. in units 2 pi/alat)
               b(1) = (  1.000000  0.577356 -0.000000 )  
               b(2) = (  0.000000  1.200900  0.000000 )  
               b(3) = (  0.000000 -0.000000  0.202270 )  


     PseudoPot. # 1 for Sb read from file:
     /zfs-home/202401017n/pseudos/Sb_ONCV_PBE-1.2.upf
     MD5 check sum: 0417cd6c0fe8ce4611e2b23135f1abd9
     Pseudo is Norm-conserving, Zval = 15.0
     Generated using ONCVPSP code by D. R. Hamann
     Using radial grid of  602 points,  6 beta functions with: 
                l(1) =   0
                l(2) =   0
                l(3) =   1
                l(4) =   1
                l(5) =   2
                l(6) =   2

     PseudoPot. # 2 for Te read from file:
     /zfs-home/202401017n/pseudos/Te_ONCV_PBE-1.2.upf
     MD5 check sum: dd4de4dac1e38587f63aaf3700bb29d3
     Pseudo is Norm-conserving, Zval = 16.0
     Generated using ONCVPSP code by D. R. Hamann
     Using radial grid of  602 points,  6 beta functions with: 
                l(1) =   0
                l(2) =   0
                l(3) =   1
                l(4) =   1
                l(5) =   2
                l(6) =   2

     atomic species   valence    mass     pseudopotential
     Sb               15.00   121.76000     Sb( 1.00)
     Te               16.00   127.60000     Te( 1.00)

     No symmetry found


                                    s                        frac. trans.

      isym =  1     identity                                     

 cryst.   s( 1) = (     1          0          0      )
                  (     0          1          0      )
                  (     0          0          1      )

 cart.    s( 1) = (  1.0000000  0.0000000  0.0000000 )
                  (  0.0000000  1.0000000  0.0000000 )
                  (  0.0000000  0.0000000  1.0000000 )


   Cartesian axes

     site n.     atom                  positions (alat units)
         1        Sb     tau(   1) = (   0.5904646   0.4157527   2.9115514  )
         2        Te     tau(   2) = (   0.5755298   0.3904446   1.6605492  )
         3        Sb     tau(   3) = (   0.0721083   0.1184920   2.0322939  )
         4        Te     tau(   4) = (   0.0869606   0.1439524   3.2833161  )
         5        Te     tau(   5) = (   0.0908738   0.6835524   2.4719228  )

     -------------------------------------------------
     Parameters for Dispersion (Grimme-D2) Correction:
     -------------------------------------------------
       atom      VdW radius       C_6     

        Sb         3.555       1333.532
        Te         3.575       1101.101

   Crystallographic axes

     site n.     atom                  positions (cryst. coord.)
         1        Sb     tau(   1) = (  0.8305018  0.4992775  0.5889190  )
         2        Te     tau(   2) = (  0.8009552  0.4688850  0.3358790  )
         3        Sb     tau(   3) = (  0.1405204  0.1422971  0.4110717  )
         4        Te     tau(   4) = (  0.1700723  0.1728725  0.6641158  )
         5        Te     tau(   5) = (  0.4855268  0.8208782  0.4999954  )

     number of k points=    85
                       cart. coord. in units 2pi/alat
        k(    1) = (   0.0000000   0.0000000   0.0000000), wk =   0.0118343
        k(    2) = (   0.0000000   0.0923769   0.0000000), wk =   0.0236686
        k(    3) = (   0.0000000   0.1847539   0.0000000), wk =   0.0236686
        k(    4) = (   0.0000000   0.2771308   0.0000000), wk =   0.0236686
        k(    5) = (   0.0000000   0.3695077   0.0000000), wk =   0.0236686
        k(    6) = (   0.0000000   0.4618847   0.0000000), wk =   0.0236686
        k(    7) = (   0.0000000   0.5542616   0.0000000), wk =   0.0236686
        k(    8) = (   0.0769231   0.0444120   0.0000000), wk =   0.0236686
        k(    9) = (   0.0769231   0.1367889   0.0000000), wk =   0.0236686
        k(   10) = (   0.0769231   0.2291659   0.0000000), wk =   0.0236686
        k(   11) = (   0.0769231   0.3215428   0.0000000), wk =   0.0236686
        k(   12) = (   0.0769231   0.4139197   0.0000000), wk =   0.0236686
        k(   13) = (   0.0769231   0.5062967   0.0000000), wk =   0.0236686
        k(   14) = (   0.0769231   0.5986736   0.0000000), wk =   0.0236686
        k(   15) = (   0.0769231  -0.5098496   0.0000000), wk =   0.0236686
        k(   16) = (   0.0769231  -0.4174727   0.0000000), wk =   0.0236686
        k(   17) = (   0.0769231  -0.3250958   0.0000000), wk =   0.0236686
        k(   18) = (   0.0769231  -0.2327188   0.0000000), wk =   0.0236686
        k(   19) = (   0.0769231  -0.1403419   0.0000000), wk =   0.0236686
        k(   20) = (   0.0769231  -0.0479649   0.0000000), wk =   0.0236686
        k(   21) = (   0.1538462   0.0888240   0.0000000), wk =   0.0236686
        k(   22) = (   0.1538462   0.1812009   0.0000000), wk =   0.0236686
        k(   23) = (   0.1538462   0.2735779   0.0000000), wk =   0.0236686
        k(   24) = (   0.1538462   0.3659548   0.0000000), wk =   0.0236686
        k(   25) = (   0.1538462   0.4583317   0.0000000), wk =   0.0236686
        k(   26) = (   0.1538462   0.5507087   0.0000000), wk =   0.0236686
        k(   27) = (   0.1538462   0.6430856   0.0000000), wk =   0.0236686
        k(   28) = (   0.1538462  -0.4654376   0.0000000), wk =   0.0236686
        k(   29) = (   0.1538462  -0.3730607   0.0000000), wk =   0.0236686
        k(   30) = (   0.1538462  -0.2806838   0.0000000), wk =   0.0236686
        k(   31) = (   0.1538462  -0.1883068   0.0000000), wk =   0.0236686
        k(   32) = (   0.1538462  -0.0959299   0.0000000), wk =   0.0236686
        k(   33) = (   0.1538462  -0.0035530   0.0000000), wk =   0.0236686
        k(   34) = (   0.2307692   0.1332360   0.0000000), wk =   0.0236686
        k(   35) = (   0.2307692   0.2256129   0.0000000), wk =   0.0236686
        k(   36) = (   0.2307692   0.3179898   0.0000000), wk =   0.0236686
        k(   37) = (   0.2307692   0.4103668   0.0000000), wk =   0.0236686
        k(   38) = (   0.2307692   0.5027437   0.0000000), wk =   0.0236686
        k(   39) = (   0.2307692   0.5951206   0.0000000), wk =   0.0236686
        k(   40) = (   0.2307692   0.6874976   0.0000000), wk =   0.0236686
        k(   41) = (   0.2307692  -0.4210257   0.0000000), wk =   0.0236686
        k(   42) = (   0.2307692  -0.3286487   0.0000000), wk =   0.0236686
        k(   43) = (   0.2307692  -0.2362718   0.0000000), wk =   0.0236686
        k(   44) = (   0.2307692  -0.1438948   0.0000000), wk =   0.0236686
        k(   45) = (   0.2307692  -0.0515179   0.0000000), wk =   0.0236686
        k(   46) = (   0.2307692   0.0408590   0.0000000), wk =   0.0236686
        k(   47) = (   0.3076923   0.1776480   0.0000000), wk =   0.0236686
        k(   48) = (   0.3076923   0.2700249   0.0000000), wk =   0.0236686
        k(   49) = (   0.3076923   0.3624018   0.0000000), wk =   0.0236686
        k(   50) = (   0.3076923   0.4547788   0.0000000), wk =   0.0236686
        k(   51) = (   0.3076923   0.5471557   0.0000000), wk =   0.0236686
        k(   52) = (   0.3076923   0.6395326   0.0000000), wk =   0.0236686
        k(   53) = (   0.3076923   0.7319096   0.0000000), wk =   0.0236686
        k(   54) = (   0.3076923  -0.3766137   0.0000000), wk =   0.0236686
        k(   55) = (   0.3076923  -0.2842367   0.0000000), wk =   0.0236686
        k(   56) = (   0.3076923  -0.1918598   0.0000000), wk =   0.0236686
        k(   57) = (   0.3076923  -0.0994829   0.0000000), wk =   0.0236686
        k(   58) = (   0.3076923  -0.0071059   0.0000000), wk =   0.0236686
        k(   59) = (   0.3076923   0.0852710   0.0000000), wk =   0.0236686
        k(   60) = (   0.3846154   0.2220599   0.0000000), wk =   0.0236686
        k(   61) = (   0.3846154   0.3144369   0.0000000), wk =   0.0236686
        k(   62) = (   0.3846154   0.4068138   0.0000000), wk =   0.0236686
        k(   63) = (   0.3846154   0.4991908   0.0000000), wk =   0.0236686
        k(   64) = (   0.3846154   0.5915677   0.0000000), wk =   0.0236686
        k(   65) = (   0.3846154   0.6839446   0.0000000), wk =   0.0236686
        k(   66) = (   0.3846154   0.7763216   0.0000000), wk =   0.0236686
        k(   67) = (   0.3846154  -0.3322017   0.0000000), wk =   0.0236686
        k(   68) = (   0.3846154  -0.2398247   0.0000000), wk =   0.0236686
        k(   69) = (   0.3846154  -0.1474478   0.0000000), wk =   0.0236686
        k(   70) = (   0.3846154  -0.0550709   0.0000000), wk =   0.0236686
        k(   71) = (   0.3846154   0.0373061   0.0000000), wk =   0.0236686
        k(   72) = (   0.3846154   0.1296830   0.0000000), wk =   0.0236686
        k(   73) = (   0.4615385   0.2664719   0.0000000), wk =   0.0236686
        k(   74) = (   0.4615385   0.3588489   0.0000000), wk =   0.0236686
        k(   75) = (   0.4615385   0.4512258   0.0000000), wk =   0.0236686
        k(   76) = (   0.4615385   0.5436027   0.0000000), wk =   0.0236686
        k(   77) = (   0.4615385   0.6359797   0.0000000), wk =   0.0236686
        k(   78) = (   0.4615385   0.7283566   0.0000000), wk =   0.0236686
        k(   79) = (   0.4615385   0.8207336   0.0000000), wk =   0.0236686
        k(   80) = (   0.4615385  -0.2877897   0.0000000), wk =   0.0236686
        k(   81) = (   0.4615385  -0.1954128   0.0000000), wk =   0.0236686
        k(   82) = (   0.4615385  -0.1030358   0.0000000), wk =   0.0236686
        k(   83) = (   0.4615385  -0.0106589   0.0000000), wk =   0.0236686
        k(   84) = (   0.4615385   0.0817181   0.0000000), wk =   0.0236686
        k(   85) = (   0.4615385   0.1740950   0.0000000), wk =   0.0236686

                       cryst. coord.
        k(    1) = (   0.0000000   0.0000000   0.0000000), wk =   0.0118343
        k(    2) = (   0.0000000   0.0769231   0.0000000), wk =   0.0236686
        k(    3) = (   0.0000000   0.1538462   0.0000000), wk =   0.0236686
        k(    4) = (   0.0000000   0.2307692   0.0000000), wk =   0.0236686
        k(    5) = (   0.0000000   0.3076923   0.0000000), wk =   0.0236686
        k(    6) = (   0.0000000   0.3846154   0.0000000), wk =   0.0236686
        k(    7) = (   0.0000000   0.4615385   0.0000000), wk =   0.0236686
        k(    8) = (   0.0769231   0.0000000   0.0000000), wk =   0.0236686
        k(    9) = (   0.0769231   0.0769231   0.0000000), wk =   0.0236686
        k(   10) = (   0.0769231   0.1538462   0.0000000), wk =   0.0236686
        k(   11) = (   0.0769231   0.2307692   0.0000000), wk =   0.0236686
        k(   12) = (   0.0769231   0.3076923   0.0000000), wk =   0.0236686
        k(   13) = (   0.0769231   0.3846154   0.0000000), wk =   0.0236686
        k(   14) = (   0.0769231   0.4615385   0.0000000), wk =   0.0236686
        k(   15) = (   0.0769231  -0.4615385   0.0000000), wk =   0.0236686
        k(   16) = (   0.0769231  -0.3846154   0.0000000), wk =   0.0236686
        k(   17) = (   0.0769231  -0.3076923   0.0000000), wk =   0.0236686
        k(   18) = (   0.0769231  -0.2307692   0.0000000), wk =   0.0236686
        k(   19) = (   0.0769231  -0.1538462   0.0000000), wk =   0.0236686
        k(   20) = (   0.0769231  -0.0769231   0.0000000), wk =   0.0236686
        k(   21) = (   0.1538462   0.0000000   0.0000000), wk =   0.0236686
        k(   22) = (   0.1538462   0.0769231   0.0000000), wk =   0.0236686
        k(   23) = (   0.1538462   0.1538462   0.0000000), wk =   0.0236686
        k(   24) = (   0.1538462   0.2307692   0.0000000), wk =   0.0236686
        k(   25) = (   0.1538462   0.3076923   0.0000000), wk =   0.0236686
        k(   26) = (   0.1538462   0.3846154   0.0000000), wk =   0.0236686
        k(   27) = (   0.1538462   0.4615385   0.0000000), wk =   0.0236686
        k(   28) = (   0.1538462  -0.4615385   0.0000000), wk =   0.0236686
        k(   29) = (   0.1538462  -0.3846154   0.0000000), wk =   0.0236686
        k(   30) = (   0.1538462  -0.3076923   0.0000000), wk =   0.0236686
        k(   31) = (   0.1538462  -0.2307692   0.0000000), wk =   0.0236686
        k(   32) = (   0.1538462  -0.1538462   0.0000000), wk =   0.0236686
        k(   33) = (   0.1538462  -0.0769231   0.0000000), wk =   0.0236686
        k(   34) = (   0.2307692  -0.0000000   0.0000000), wk =   0.0236686
        k(   35) = (   0.2307692   0.0769231   0.0000000), wk =   0.0236686
        k(   36) = (   0.2307692   0.1538462   0.0000000), wk =   0.0236686
        k(   37) = (   0.2307692   0.2307692   0.0000000), wk =   0.0236686
        k(   38) = (   0.2307692   0.3076923   0.0000000), wk =   0.0236686
        k(   39) = (   0.2307692   0.3846154   0.0000000), wk =   0.0236686
        k(   40) = (   0.2307692   0.4615385   0.0000000), wk =   0.0236686
        k(   41) = (   0.2307692  -0.4615385   0.0000000), wk =   0.0236686
        k(   42) = (   0.2307692  -0.3846154   0.0000000), wk =   0.0236686
        k(   43) = (   0.2307692  -0.3076923   0.0000000), wk =   0.0236686
        k(   44) = (   0.2307692  -0.2307692   0.0000000), wk =   0.0236686
        k(   45) = (   0.2307692  -0.1538462   0.0000000), wk =   0.0236686
        k(   46) = (   0.2307692  -0.0769231   0.0000000), wk =   0.0236686
        k(   47) = (   0.3076923   0.0000000   0.0000000), wk =   0.0236686
        k(   48) = (   0.3076923   0.0769231   0.0000000), wk =   0.0236686
        k(   49) = (   0.3076923   0.1538462   0.0000000), wk =   0.0236686
        k(   50) = (   0.3076923   0.2307692   0.0000000), wk =   0.0236686
        k(   51) = (   0.3076923   0.3076923   0.0000000), wk =   0.0236686
        k(   52) = (   0.3076923   0.3846154   0.0000000), wk =   0.0236686
        k(   53) = (   0.3076923   0.4615385   0.0000000), wk =   0.0236686
        k(   54) = (   0.3076923  -0.4615385   0.0000000), wk =   0.0236686
        k(   55) = (   0.3076923  -0.3846154   0.0000000), wk =   0.0236686
        k(   56) = (   0.3076923  -0.3076923   0.0000000), wk =   0.0236686
        k(   57) = (   0.3076923  -0.2307692   0.0000000), wk =   0.0236686
        k(   58) = (   0.3076923  -0.1538462   0.0000000), wk =   0.0236686
        k(   59) = (   0.3076923  -0.0769231   0.0000000), wk =   0.0236686
        k(   60) = (   0.3846154  -0.0000000   0.0000000), wk =   0.0236686
        k(   61) = (   0.3846154   0.0769231   0.0000000), wk =   0.0236686
        k(   62) = (   0.3846154   0.1538462   0.0000000), wk =   0.0236686
        k(   63) = (   0.3846154   0.2307692   0.0000000), wk =   0.0236686
        k(   64) = (   0.3846154   0.3076923   0.0000000), wk =   0.0236686
        k(   65) = (   0.3846154   0.3846154   0.0000000), wk =   0.0236686
        k(   66) = (   0.3846154   0.4615385   0.0000000), wk =   0.0236686
        k(   67) = (   0.3846154  -0.4615385   0.0000000), wk =   0.0236686
        k(   68) = (   0.3846154  -0.3846154   0.0000000), wk =   0.0236686
        k(   69) = (   0.3846154  -0.3076923   0.0000000), wk =   0.0236686
        k(   70) = (   0.3846154  -0.2307692   0.0000000), wk =   0.0236686
        k(   71) = (   0.3846154  -0.1538462   0.0000000), wk =   0.0236686
        k(   72) = (   0.3846154  -0.0769231   0.0000000), wk =   0.0236686
        k(   73) = (   0.4615385  -0.0000000   0.0000000), wk =   0.0236686
        k(   74) = (   0.4615385   0.0769231   0.0000000), wk =   0.0236686
        k(   75) = (   0.4615385   0.1538462   0.0000000), wk =   0.0236686
        k(   76) = (   0.4615385   0.2307692   0.0000000), wk =   0.0236686
        k(   77) = (   0.4615385   0.3076923   0.0000000), wk =   0.0236686
        k(   78) = (   0.4615385   0.3846154   0.0000000), wk =   0.0236686
        k(   79) = (   0.4615385   0.4615385   0.0000000), wk =   0.0236686
        k(   80) = (   0.4615385  -0.4615385   0.0000000), wk =   0.0236686
        k(   81) = (   0.4615385  -0.3846154   0.0000000), wk =   0.0236686
        k(   82) = (   0.4615385  -0.3076923   0.0000000), wk =   0.0236686
        k(   83) = (   0.4615385  -0.2307692   0.0000000), wk =   0.0236686
        k(   84) = (   0.4615385  -0.1538462   0.0000000), wk =   0.0236686
        k(   85) = (   0.4615385  -0.0769231   0.0000000), wk =   0.0236686

     Dense  grid:   198065 G-vectors     FFT dimensions: (  45,  45, 225)

     Dynamical RAM for                 wfc:       0.45 MB

     Dynamical RAM for     wfc (w. buffer):      19.74 MB

     Dynamical RAM for                 EXX:     642.92 MB

     Dynamical RAM for           str. fact:       0.07 MB

     Dynamical RAM for           local pot:       0.00 MB

     Dynamical RAM for          nlocal pot:       0.40 MB

     Dynamical RAM for                qrad:       2.85 MB

     Dynamical RAM for          rho,v,vnew:       0.25 MB

     Dynamical RAM for               rhoin:       0.08 MB

     Dynamical RAM for            rho*nmix:       0.57 MB

     Dynamical RAM for           G-vectors:       0.15 MB

     Dynamical RAM for          h,s,v(r/c):       1.83 MB

     Dynamical RAM for          <psi|beta>:       0.14 MB

     Dynamical RAM for                 psi:       0.90 MB

     Dynamical RAM for                hpsi:       0.90 MB

     Dynamical RAM for      wfcinit/wfcrot:       1.13 MB

     Estimated static dynamical RAM per process >     666.81 MB

     Estimated max dynamical RAM per process >     671.15 MB

     Estimated total dynamical RAM >     110.06 GB
     EXX: ACE will be initialized later

     Initial potential from superposition of free atoms

     starting charge      77.7638, renormalised to      78.0000

     negative rho (up, down):  6.641E-04 0.000E+00
     Starting wfcs are random

     total cpu time spent up to now is        3.5 secs

     Self-consistent Calculation

     iteration #  1     ecut=    70.00 Ry     beta= 0.70
     Davidson diagonalization with overlap

---- Real-time Memory Report at c_bands before calling an iterative solver
           210 MiB given to the printing process from OS
             0 MiB allocation reported by mallinfo(arena+hblkhd)
         97549 MiB available memory on the node where the printing process lives
------------------
     ethr =  1.00E-02,  avg # of iterations =  9.1

     Threshold (ethr) on eigenvalues was too large:
     Diagonalizing with lowered threshold

     Davidson diagonalization with overlap

---- Real-time Memory Report at c_bands before calling an iterative solver
           216 MiB given to the printing process from OS
             0 MiB allocation reported by mallinfo(arena+hblkhd)
         97460 MiB available memory on the node where the printing process lives
------------------
     ethr =  1.28E-04,  avg # of iterations = 10.0

     negative rho (up, down):  5.553E-05 0.000E+00

     total cpu time spent up to now is       54.7 secs

     total energy              =    -806.57645209 Ry
     estimated scf accuracy    <       0.08804462 Ry

     iteration #  2     ecut=    70.00 Ry     beta= 0.70
     Davidson diagonalization with overlap

---- Real-time Memory Report at c_bands before calling an iterative solver
           216 MiB given to the printing process from OS
             0 MiB allocation reported by mallinfo(arena+hblkhd)
         97460 MiB available memory on the node where the printing process lives
------------------
     ethr =  1.13E-04,  avg # of iterations = 10.3

     negative rho (up, down):  4.524E-05 0.000E+00

     total cpu time spent up to now is       74.5 secs

     total energy              =    -806.50916536 Ry
     estimated scf accuracy    <       0.60584700 Ry

     iteration #  3     ecut=    70.00 Ry     beta= 0.70
     Davidson diagonalization with overlap

---- Real-time Memory Report at c_bands before calling an iterative solver
           217 MiB given to the printing process from OS
             0 MiB allocation reported by mallinfo(arena+hblkhd)
         97446 MiB available memory on the node where the printing process lives
------------------
     c_bands:  1 eigenvalues not converged
     c_bands:  1 eigenvalues not converged
     ethr =  1.13E-04,  avg # of iterations = 11.5

     negative rho (up, down):  2.762E-05 0.000E+00

     total cpu time spent up to now is       94.8 secs

     total energy              =    -806.58736238 Ry
     estimated scf accuracy    <       0.26457645 Ry

     iteration #  4     ecut=    70.00 Ry     beta= 0.70
     Davidson diagonalization with overlap

---- Real-time Memory Report at c_bands before calling an iterative solver
           217 MiB given to the printing process from OS
             0 MiB allocation reported by mallinfo(arena+hblkhd)
         97442 MiB available memory on the node where the printing process lives
------------------
     ethr =  1.13E-04,  avg # of iterations =  5.8

     negative rho (up, down):  3.359E-06 0.000E+00

     total cpu time spent up to now is      109.0 secs

     total energy              =    -806.61503706 Ry
     estimated scf accuracy    <       0.00233995 Ry

     iteration #  5     ecut=    70.00 Ry     beta= 0.70
     Davidson diagonalization with overlap

---- Real-time Memory Report at c_bands before calling an iterative solver
           217 MiB given to the printing process from OS
             0 MiB allocation reported by mallinfo(arena+hblkhd)
         97441 MiB available memory on the node where the printing process lives
------------------
     ethr =  3.00E-06,  avg # of iterations =  8.7

     negative rho (up, down):  2.186E-06 0.000E+00

     total cpu time spent up to now is      127.9 secs

     total energy              =    -806.61500938 Ry
     estimated scf accuracy    <       0.00169055 Ry

     iteration #  6     ecut=    70.00 Ry     beta= 0.70
     Davidson diagonalization with overlap

---- Real-time Memory Report at c_bands before calling an iterative solver
           217 MiB given to the printing process from OS
             0 MiB allocation reported by mallinfo(arena+hblkhd)
         97439 MiB available memory on the node where the printing process lives
------------------
     ethr =  2.17E-06,  avg # of iterations =  8.6

     total cpu time spent up to now is      144.6 secs

     total energy              =    -806.61506328 Ry
     estimated scf accuracy    <       0.00663267 Ry

     iteration #  7     ecut=    70.00 Ry     beta= 0.70
     Davidson diagonalization with overlap

---- Real-time Memory Report at c_bands before calling an iterative solver
           217 MiB given to the printing process from OS
             0 MiB allocation reported by mallinfo(arena+hblkhd)
         97439 MiB available memory on the node where the printing process lives
------------------
     ethr =  2.17E-06,  avg # of iterations =  7.4

     total cpu time spent up to now is      159.2 secs

     total energy              =    -806.61542614 Ry
     estimated scf accuracy    <       0.00000836 Ry

     iteration #  8     ecut=    70.00 Ry     beta= 0.70
     Davidson diagonalization with overlap

---- Real-time Memory Report at c_bands before calling an iterative solver
           217 MiB given to the printing process from OS
             0 MiB allocation reported by mallinfo(arena+hblkhd)
         97437 MiB available memory on the node where the printing process lives
------------------
     c_bands:  1 eigenvalues not converged
     c_bands:  1 eigenvalues not converged
     c_bands:  1 eigenvalues not converged
     c_bands:  1 eigenvalues not converged
     c_bands:  1 eigenvalues not converged
     ethr =  1.07E-08,  avg # of iterations = 14.1

     total cpu time spent up to now is      181.0 secs

     total energy              =    -806.61542777 Ry
     estimated scf accuracy    <       0.00000031 Ry

     iteration #  9     ecut=    70.00 Ry     beta= 0.70
     Davidson diagonalization with overlap

---- Real-time Memory Report at c_bands before calling an iterative solver
           217 MiB given to the printing process from OS
             0 MiB allocation reported by mallinfo(arena+hblkhd)
         97435 MiB available memory on the node where the printing process lives
------------------
     c_bands:  1 eigenvalues not converged
     c_bands:  1 eigenvalues not converged
     c_bands:  1 eigenvalues not converged
     ethr =  4.00E-10,  avg # of iterations = 11.4

     total cpu time spent up to now is      200.3 secs

     total energy              =    -806.61542776 Ry
     estimated scf accuracy    <       0.00000069 Ry

     iteration # 10     ecut=    70.00 Ry     beta= 0.70
     Davidson diagonalization with overlap

---- Real-time Memory Report at c_bands before calling an iterative solver
           218 MiB given to the printing process from OS
             0 MiB allocation reported by mallinfo(arena+hblkhd)
         97433 MiB available memory on the node where the printing process lives
------------------
     c_bands:  1 eigenvalues not converged
     ethr =  4.00E-10,  avg # of iterations =  6.4

     total cpu time spent up to now is      215.8 secs

     End of self-consistent calculation

          k = 0.0000 0.0000 0.0000 ( 24691 PWs)   bands (ev):

   -34.8366 -34.8364 -34.8362 -34.8360 -34.8027 -34.8026 -34.7961 -34.7959
   -34.7862 -34.7861 -34.7332 -34.7292 -34.7153 -34.6913 -34.6897 -27.6198
   -27.6196 -27.6188 -27.6185 -27.6125 -27.6122 -27.6082 -27.6081 -27.6055
   -27.6052 -10.7449 -10.2040  -9.1323  -6.4005  -5.0633  -0.2889  -0.1150
     0.0799   0.1671   0.3148   0.6428   0.6851   0.8637   1.0879   1.9833
     2.5657   2.7059   3.4336   3.6991   3.7844   6.1063   6.2886   6.9157
     7.2037   7.4675   7.7541   8.2539   8.4538   8.5526   8.5890   9.1069
     9.3766   9.5709   9.9205   9.9766  10.4150  10.7812  11.2600  11.3296
    11.3689  11.5893  12.7352  12.7396  13.5854  13.8761  14.0935  14.0944
    14.3341  14.9274  15.3926  15.7314  15.8570  15.9508  16.0417  16.2311
    16.5376  16.6814  16.7423  16.8081  16.9944  17.0793  17.1449  17.1942
    17.3782  17.4506  17.5162  17.6776  17.7442  17.9768  18.6289  18.6740
    18.7705  18.9791  19.0794  19.1478

     occupation numbers 
     1.0000   1.0000   1.0000   1.0000   1.0000   1.0000   1.0000   1.0000
     1.0000   1.0000   1.0000   1.0000   1.0000   1.0000   1.0000   1.0000
     1.0000   1.0000   1.0000   1.0000   1.0000   1.0000   1.0000   1.0000
     1.0000   1.0000   1.0000   1.0000   1.0000   1.0000   1.0000   1.0000
     1.0000   1.0000   1.0000   1.0000   1.0000   1.0000   1.0000   0.0000
     0.0000   0.0000   0.0000   0.0000   0.0000   0.0000   0.0000   0.0000
     0.0000   0.0000   0.0000   0.0000   0.0000   0.0000   0.0000   0.0000
     0.0000   0.0000   0.0000   0.0000   0.0000   0.0000   0.0000   0.0000
     0.0000   0.0000   0.0000   0.0000   0.0000   0.0000   0.0000   0.0000
     0.0000   0.0000   0.0000   0.0000   0.0000   0.0000   0.0000   0.0000
     0.0000   0.0000   0.0000   0.0000   0.0000   0.0000   0.0000   0.0000
     0.0000   0.0000   0.0000   0.0000   0.0000   0.0000   0.0000   0.0000
     0.0000   0.0000   0.0000   0.0000

          k = 0.0000 0.0924 0.0000 ( 24705 PWs)   bands (ev):

   -34.8366 -34.8364 -34.8361 -34.8359 -34.8027 -34.8026 -34.7961 -34.7959
   -34.7862 -34.7860 -34.7332 -34.7292 -34.7153 -34.6913 -34.6897 -27.6199
   -27.6196 -27.6185 -27.6182 -27.6124 -27.6121 -27.6083 -27.6080 -27.6057
   -27.6054 -10.6936 -10.1569  -9.1041  -6.4095  -5.1482  -0.5310  -0.3550
    -0.1259  -0.0162   0.0503   0.3547   0.7727   1.0060   1.4147   2.1250
     2.6495   2.8079   3.4587   3.7758   4.0624   6.1929   6.3097   6.8910
     7.2739   7.4117   7.4955   8.3346   8.4362   8.5622   8.6789   9.1499
     9.5541   9.5995  10.1721  10.2438  10.6282  10.6718  10.8867  11.4197
    11.7588  12.0792  12.7418  12.9336  13.2473  13.3947  14.0625  14.2650
    14.6699  14.9466  15.0921  15.3059  15.8368  15.8830  16.0153  16.1321
    16.1958  16.2583  16.4550  16.5274  16.6619  16.7880  17.1354  17.5423
    17.7270  17.8443  17.9147  18.0187  18.1204  18.1564  18.2488  18.4168
    18.5616  18.6838  19.1172  19.4213

     occupation numbers 
     1.0000   1.0000   1.0000   1.0000   1.0000   1.0000   1.0000   1.0000
     1.0000   1.0000   1.0000   1.0000   1.0000   1.0000   1.0000   1.0000
     1.0000   1.0000   1.0000   1.0000   1.0000   1.0000   1.0000   1.0000
     1.0000   1.0000   1.0000   1.0000   1.0000   1.0000   1.0000   1.0000
     1.0000   1.0000   1.0000   1.0000   1.0000   1.0000   1.0000   0.0000
     0.0000   0.0000   0.0000   0.0000   0.0000   0.0000   0.0000   0.0000
     0.0000   0.0000   0.0000   0.0000   0.0000   0.0000   0.0000   0.0000
     0.0000   0.0000   0.0000   0.0000   0.0000   0.0000   0.0000   0.0000
     0.0000   0.0000   0.0000   0.0000   0.0000   0.0000   0.0000   0.0000
     0.0000   0.0000   0.0000   0.0000   0.0000   0.0000   0.0000   0.0000
     0.0000   0.0000   0.0000   0.0000   0.0000   0.0000   0.0000   0.0000
     0.0000   0.0000   0.0000   0.0000   0.0000   0.0000   0.0000   0.0000
     0.0000   0.0000   0.0000   0.0000

          k = 0.0000 0.1848 0.0000 ( 24729 PWs)   bands (ev):

   -34.8366 -34.8364 -34.8359 -34.8357 -34.8027 -34.8026 -34.7962 -34.7959
   -34.7861 -34.7859 -34.7331 -34.7292 -34.7153 -34.6911 -34.6896 -27.6200
   -27.6197 -27.6179 -27.6176 -27.6121 -27.6118 -27.6084 -27.6080 -27.6062
   -27.6058 -10.5411 -10.0184  -9.0252  -6.4493  -5.3987  -1.2563  -0.7008
    -0.5720  -0.4243  -0.1973   0.0985   0.8168   1.0343   1.4319   2.3902
     2.8715   3.2161   3.6483   4.0439   4.5369   6.2515   6.4225   6.7126
     7.2040   7.5843   7.6692   8.2424   8.5571   8.6515   8.7755   9.4337
     9.5562   9.8082  10.3850  10.6774  10.9248  11.0620  11.5285  11.7326
    12.0935  12.1725  12.7149  13.1278  13.2348  13.4357  13.8510  14.0305
    14.4652  14.5992  14.7219  14.9965  15.3889  15.4762  15.6181  15.6874
    15.8492  16.0009  16.4338  16.5802  16.7585  17.0253  17.2122  17.4302
    17.6172  17.6900  17.8522  17.9815  18.2127  18.5691  18.7655  18.9963
    19.2364  19.2877  19.4404  19.5956

     occupation numbers 
     1.0000   1.0000   1.0000   1.0000   1.0000   1.0000   1.0000   1.0000
     1.0000   1.0000   1.0000   1.0000   1.0000   1.0000   1.0000   1.0000
     1.0000   1.0000   1.0000   1.0000   1.0000   1.0000   1.0000   1.0000
     1.0000   1.0000   1.0000   1.0000   1.0000   1.0000   1.0000   1.0000
     1.0000   1.0000   1.0000   1.0000   1.0000   1.0000   1.0000   0.0000
     0.0000   0.0000   0.0000   0.0000   0.0000   0.0000   0.0000   0.0000
     0.0000   0.0000   0.0000   0.0000   0.0000   0.0000   0.0000   0.0000
     0.0000   0.0000   0.0000   0.0000   0.0000   0.0000   0.0000   0.0000
     0.0000   0.0000   0.0000   0.0000   0.0000   0.0000   0.0000   0.0000
     0.0000   0.0000   0.0000   0.0000   0.0000   0.0000   0.0000   0.0000
     0.0000   0.0000   0.0000   0.0000   0.0000   0.0000   0.0000   0.0000
     0.0000   0.0000   0.0000   0.0000   0.0000   0.0000   0.0000   0.0000
     0.0000   0.0000   0.0000   0.0000

          k = 0.0000 0.2771 0.0000 ( 24766 PWs)   bands (ev):

   -34.8366 -34.8364 -34.8356 -34.8354 -34.8028 -34.8027 -34.7962 -34.7960
   -34.7859 -34.7857 -34.7330 -34.7292 -34.7154 -34.6909 -34.6894 -27.6202
   -27.6199 -27.6171 -27.6168 -27.6117 -27.6114 -27.6085 -27.6079 -27.6069
   -27.6064 -10.2933  -9.7976  -8.9134  -6.5562  -5.7867  -1.9639  -1.1309
    -1.0514  -0.7440  -0.4749   0.1030   0.4824   0.7723   1.4824   2.4926
     3.0704   3.5752   4.0222   4.3569   5.0198   5.8964   6.6727   6.9118
     7.4067   7.8721   8.1752   8.2356   8.5488   8.7540   9.2365   9.7205
     9.9284   9.9602  10.4362  11.0937  11.4953  11.5447  11.9520  11.9957
    12.2210  12.4029  12.9251  13.1150  13.2275  13.5617  13.6093  13.8966
    14.1641  14.2997  14.6451  14.9832  15.0998  15.1741  15.2408  15.4037
    15.6912  16.0660  16.1743  16.4450  16.9413  17.0619  17.1483  17.1643
    17.3151  17.6242  17.9991  18.0547  18.2309  18.4358  18.4854  18.6122
    18.8483  19.3798  19.4641  19.5731

     occupation numbers 
     1.0000   1.0000   1.0000   1.0000   1.0000   1.0000   1.0000   1.0000
     1.0000   1.0000   1.0000   1.0000   1.0000   1.0000   1.0000   1.0000
     1.0000   1.0000   1.0000   1.0000   1.0000   1.0000   1.0000   1.0000
     1.0000   1.0000   1.0000   1.0000   1.0000   1.0000   1.0000   1.0000
     1.0000   1.0000   1.0000   1.0000   1.0000   1.0000   1.0000   0.0000
     0.0000   0.0000   0.0000   0.0000   0.0000   0.0000   0.0000   0.0000
     0.0000   0.0000   0.0000   0.0000   0.0000   0.0000   0.0000   0.0000
     0.0000   0.0000   0.0000   0.0000   0.0000   0.0000   0.0000   0.0000
     0.0000   0.0000   0.0000   0.0000   0.0000   0.0000   0.0000   0.0000
     0.0000   0.0000   0.0000   0.0000   0.0000   0.0000   0.0000   0.0000
     0.0000   0.0000   0.0000   0.0000   0.0000   0.0000   0.0000   0.0000
     0.0000   0.0000   0.0000   0.0000   0.0000   0.0000   0.0000   0.0000
     0.0000   0.0000   0.0000   0.0000

          k = 0.0000 0.3695 0.0000 ( 24803 PWs)   bands (ev):

   -34.8366 -34.8364 -34.8353 -34.8351 -34.8028 -34.8027 -34.7963 -34.7961
   -34.7858 -34.7856 -34.7329 -34.7293 -34.7155 -34.6908 -34.6892 -27.6204
   -27.6201 -27.6162 -27.6159 -27.6113 -27.6111 -27.6085 -27.6079 -27.6075
   -27.6071  -9.9620  -9.5149  -8.8048  -6.7747  -6.2339  -2.5232  -1.5614
    -1.3457  -0.9553  -0.7214  -0.1420   0.3326   0.6757   1.1957   2.5687
     3.2045   3.6867   4.2261   4.6547   5.4765   5.5636   6.9766   7.2326
     7.7510   8.1466   8.4125   8.8079   8.9809   9.2248   9.7914   9.8732
    10.1544  10.4695  10.5552  10.9848  11.5677  11.6378  11.9986  12.1483
    12.5857  12.6294  12.6589  12.9793  13.2824  13.8213  13.9235  14.1890
    14.4544  14.5349  14.5945  14.6745  14.8670  15.0360  15.1152  15.3687
    15.7088  15.9760  16.2312  16.3876  16.4518  16.5579  16.7516  16.8281
    16.9581  17.0116  17.2853  17.4336  17.8233  18.0329  18.1972  18.2553
    18.7228  19.1476  19.4460  19.6818

     occupation numbers 
     1.0000   1.0000   1.0000   1.0000   1.0000   1.0000   1.0000   1.0000
     1.0000   1.0000   1.0000   1.0000   1.0000   1.0000   1.0000   1.0000
     1.0000   1.0000   1.0000   1.0000   1.0000   1.0000   1.0000   1.0000
     1.0000   1.0000   1.0000   1.0000   1.0000   1.0000   1.0000   1.0000
     1.0000   1.0000   1.0000   1.0000   1.0000   1.0000   1.0000   0.0000
     0.0000   0.0000   0.0000   0.0000   0.0000   0.0000   0.0000   0.0000
     0.0000   0.0000   0.0000   0.0000   0.0000   0.0000   0.0000   0.0000
     0.0000   0.0000   0.0000   0.0000   0.0000   0.0000   0.0000   0.0000
     0.0000   0.0000   0.0000   0.0000   0.0000   0.0000   0.0000   0.0000
     0.0000   0.0000   0.0000   0.0000   0.0000   0.0000   0.0000   0.0000
     0.0000   0.0000   0.0000   0.0000   0.0000   0.0000   0.0000   0.0000
     0.0000   0.0000   0.0000   0.0000   0.0000   0.0000   0.0000   0.0000
     0.0000   0.0000   0.0000   0.0000

          k = 0.0000 0.4619 0.0000 ( 24805 PWs)   bands (ev):

   -34.8366 -34.8364 -34.8350 -34.8348 -34.8028 -34.8027 -34.7964 -34.7961
   -34.7856 -34.7854 -34.7328 -34.7293 -34.7156 -34.6906 -34.6890 -27.6205
   -27.6202 -27.6154 -27.6152 -27.6111 -27.6109 -27.6084 -27.6080 -27.6077
   -27.6076  -9.5722  -9.2145  -8.7628  -7.0971  -6.6234  -2.9046  -1.7762
    -1.5519  -1.1896  -0.9050  -0.3736   0.4023   0.5804   0.8701   2.5708
     3.2560   3.6058   4.3880   4.8700   5.2618   5.7821   7.0397   7.7403
     8.0746   8.7213   8.9467   9.2194   9.4463   9.7487  10.0133  10.2736
    10.4292  10.7407  10.9036  11.1939  11.2319  11.3714  11.6651  12.1702
    12.5838  12.9940  13.0843  13.2430  13.4357  13.6116  13.6832  13.8584
    14.2673  14.3155  14.3722  14.6299  14.7855  14.8819  15.2995  15.5593
    15.5914  15.7893  15.9248  16.2134  16.2206  16.3415  16.4655  16.5706
    16.7627  16.9616  17.1432  17.2123  17.4540  18.0129  18.2654  18.5954
    18.8454  18.9715  19.2547  19.5484

     occupation numbers 
     1.0000   1.0000   1.0000   1.0000   1.0000   1.0000   1.0000   1.0000
     1.0000   1.0000   1.0000   1.0000   1.0000   1.0000   1.0000   1.0000
     1.0000   1.0000   1.0000   1.0000   1.0000   1.0000   1.0000   1.0000
     1.0000   1.0000   1.0000   1.0000   1.0000   1.0000   1.0000   1.0000
     1.0000   1.0000   1.0000   1.0000   1.0000   1.0000   1.0000   0.0000
     0.0000   0.0000   0.0000   0.0000   0.0000   0.0000   0.0000   0.0000
     0.0000   0.0000   0.0000   0.0000   0.0000   0.0000   0.0000   0.0000
     0.0000   0.0000   0.0000   0.0000   0.0000   0.0000   0.0000   0.0000
     0.0000   0.0000   0.0000   0.0000   0.0000   0.0000   0.0000   0.0000
     0.0000   0.0000   0.0000   0.0000   0.0000   0.0000   0.0000   0.0000
     0.0000   0.0000   0.0000   0.0000   0.0000   0.0000   0.0000   0.0000
     0.0000   0.0000   0.0000   0.0000   0.0000   0.0000   0.0000   0.0000
     0.0000   0.0000   0.0000   0.0000

          k = 0.0000 0.5543 0.0000 ( 24786 PWs)   bands (ev):

   -34.8366 -34.8364 -34.8349 -34.8347 -34.8028 -34.8027 -34.7964 -34.7962
   -34.7855 -34.7854 -34.7328 -34.7293 -34.7156 -34.6906 -34.6889 -27.6206
   -27.6203 -27.6150 -27.6148 -27.6110 -27.6108 -27.6084 -27.6082 -27.6079
   -27.6076  -9.1773  -8.9931  -8.8758  -7.3638  -6.8588  -3.1010  -1.7917
    -1.6601  -1.4267  -1.0011  -0.4272   0.4372   0.5131   0.6987   2.5120
     3.2675   3.5946   4.4145   4.9753   5.1483   5.8149   7.1257   8.2733
     8.4678   8.8444   8.9823   9.4590   9.6054  10.0934  10.3848  10.4761
    10.8136  11.0460  11.1461  11.3253  11.4409  11.6837  11.8497  12.2217
    12.3910  12.4894  12.6763  12.7669  13.1860  13.5102  13.6298  13.9645
    14.0607  14.1452  14.2870  14.5013  14.5422  14.9029  14.9129  15.0900
    15.2250  15.3264  15.7422  16.1325  16.2071  16.4389  16.7141  16.9624
    17.2444  17.4353  17.5979  17.7488  17.8464  18.0024  18.4745  18.4967
    18.7415  18.9766  19.2196  19.3351

     occupation numbers 
     1.0000   1.0000   1.0000   1.0000   1.0000   1.0000   1.0000   1.0000
     1.0000   1.0000   1.0000   1.0000   1.0000   1.0000   1.0000   1.0000
     1.0000   1.0000   1.0000   1.0000   1.0000   1.0000   1.0000   1.0000
     1.0000   1.0000   1.0000   1.0000   1.0000   1.0000   1.0000   1.0000
     1.0000   1.0000   1.0000   1.0000   1.0000   1.0000   1.0000   0.0000
     0.0000   0.0000   0.0000   0.0000   0.0000   0.0000   0.0000   0.0000
     0.0000   0.0000   0.0000   0.0000   0.0000   0.0000   0.0000   0.0000
     0.0000   0.0000   0.0000   0.0000   0.0000   0.0000   0.0000   0.0000
     0.0000   0.0000   0.0000   0.0000   0.0000   0.0000   0.0000   0.0000
     0.0000   0.0000   0.0000   0.0000   0.0000   0.0000   0.0000   0.0000
     0.0000   0.0000   0.0000   0.0000   0.0000   0.0000   0.0000   0.0000
     0.0000   0.0000   0.0000   0.0000   0.0000   0.0000   0.0000   0.0000
     0.0000   0.0000   0.0000   0.0000

          k = 0.0769 0.0444 0.0000 ( 24716 PWs)   bands (ev):

   -34.8366 -34.8364 -34.8362 -34.8360 -34.8027 -34.8026 -34.7961 -34.7959
   -34.7862 -34.7860 -34.7332 -34.7292 -34.7153 -34.6913 -34.6897 -27.6197
   -27.6195 -27.6187 -27.6184 -27.6125 -27.6122 -27.6084 -27.6081 -27.6056
   -27.6052 -10.6973 -10.1610  -9.1076  -6.4144  -5.1601  -0.6389  -0.4574
    -0.0849   0.0298   0.2602   0.2958   0.9373   0.9956   1.3604   2.3168
     2.4825   2.7881   3.6147   3.7554   3.9195   6.1883   6.2909   6.8659
     7.0670   7.4693   7.8152   8.2160   8.4690   8.5055   8.8111   9.0533
     9.5772   9.7611   9.9457  10.1988  10.6278  10.6726  11.0512  11.1145
    11.9528  12.0231  12.5955  12.8549  13.2399  13.6597  14.0320  14.3119
    14.4865  14.7508  15.1945  15.3500  15.5372  15.6785  15.8467  16.2306
    16.4040  16.4888  16.6680  16.7605  16.9194  16.9857  17.0895  17.3130
    17.5476  17.7227  17.8652  18.1616  18.1820  18.3868  18.4583  18.5340
    18.5745  18.7944  18.8898  19.0002

     occupation numbers 
     1.0000   1.0000   1.0000   1.0000   1.0000   1.0000   1.0000   1.0000
     1.0000   1.0000   1.0000   1.0000   1.0000   1.0000   1.0000   1.0000
     1.0000   1.0000   1.0000   1.0000   1.0000   1.0000   1.0000   1.0000
     1.0000   1.0000   1.0000   1.0000   1.0000   1.0000   1.0000   1.0000
     1.0000   1.0000   1.0000   1.0000   1.0000   1.0000   1.0000   0.0000
     0.0000   0.0000   0.0000   0.0000   0.0000   0.0000   0.0000   0.0000
     0.0000   0.0000   0.0000   0.0000   0.0000   0.0000   0.0000   0.0000
     0.0000   0.0000   0.0000   0.0000   0.0000   0.0000   0.0000   0.0000
     0.0000   0.0000   0.0000   0.0000   0.0000   0.0000   0.0000   0.0000
     0.0000   0.0000   0.0000   0.0000   0.0000   0.0000   0.0000   0.0000
     0.0000   0.0000   0.0000   0.0000   0.0000   0.0000   0.0000   0.0000
     0.0000   0.0000   0.0000   0.0000   0.0000   0.0000   0.0000   0.0000
     0.0000   0.0000   0.0000   0.0000

          k = 0.0769 0.1368 0.0000 ( 24736 PWs)   bands (ev):

   -34.8366 -34.8364 -34.8360 -34.8358 -34.8027 -34.8027 -34.7961 -34.7959
   -34.7862 -34.7860 -34.7331 -34.7292 -34.7153 -34.6911 -34.6897 -27.6198
   -27.6195 -27.6184 -27.6181 -27.6123 -27.6120 -27.6085 -27.6081 -27.6059
   -27.6054 -10.5973 -10.0703  -9.0559  -6.4414  -5.3331  -1.0842  -0.7307
    -0.5217  -0.2085   0.0386   0.2775   0.6569   1.2977   1.4340   2.4877
     2.6470   3.0779   3.7498   3.8546   4.3324   6.2995   6.3449   6.7457
     6.9883   7.5230   7.8845   8.2468   8.3545   8.6223   8.8384   9.3541
     9.6077   9.8732  10.1921  10.5469  10.7817  10.9544  11.1096  11.3842
    12.2821  12.3139  12.7408  12.9176  13.1905  13.4448  13.6146  14.1545
    14.5699  14.6533  14.8225  15.0340  15.2716  15.3993  15.6164  16.1636
    16.2750  16.3631  16.5947  16.7702  16.8235  17.1179  17.2266  17.3454
    17.4075  17.5941  17.6537  17.6943  18.1130  18.8614  18.9884  19.1459
    19.1973  19.3483  19.3740  19.4204

     occupation numbers 
     1.0000   1.0000   1.0000   1.0000   1.0000   1.0000   1.0000   1.0000
     1.0000   1.0000   1.0000   1.0000   1.0000   1.0000   1.0000   1.0000
     1.0000   1.0000   1.0000   1.0000   1.0000   1.0000   1.0000   1.0000
     1.0000   1.0000   1.0000   1.0000   1.0000   1.0000   1.0000   1.0000
     1.0000   1.0000   1.0000   1.0000   1.0000   1.0000   1.0000   0.0000
     0.0000   0.0000   0.0000   0.0000   0.0000   0.0000   0.0000   0.0000
     0.0000   0.0000   0.0000   0.0000   0.0000   0.0000   0.0000   0.0000
     0.0000   0.0000   0.0000   0.0000   0.0000   0.0000   0.0000   0.0000
     0.0000   0.0000   0.0000   0.0000   0.0000   0.0000   0.0000   0.0000
     0.0000   0.0000   0.0000   0.0000   0.0000   0.0000   0.0000   0.0000
     0.0000   0.0000   0.0000   0.0000   0.0000   0.0000   0.0000   0.0000
     0.0000   0.0000   0.0000   0.0000   0.0000   0.0000   0.0000   0.0000
     0.0000   0.0000   0.0000   0.0000

          k = 0.0769 0.2292 0.0000 ( 24764 PWs)   bands (ev):

   -34.8366 -34.8364 -34.8358 -34.8356 -34.8028 -34.8027 -34.7962 -34.7960
   -34.7860 -34.7858 -34.7330 -34.7293 -34.7154 -34.6909 -34.6896 -27.6199
   -27.6197 -27.6177 -27.6174 -27.6120 -27.6117 -27.6086 -27.6080 -27.6064
   -27.6059 -10.3988  -9.8923  -8.9612  -6.5144  -5.6559  -1.6290  -1.2923
    -0.8010  -0.6144  -0.2508   0.0542   0.5875   1.0765   1.5249   2.6771
     2.8257   3.4745   3.9716   4.2530   4.7961   6.1969   6.5434   6.6985
     7.0715   7.7569   8.2089   8.2440   8.3028   8.6880   9.2087   9.6472
     9.7051  10.0671  10.4950  10.7514  11.1231  11.2828  11.8207  12.0537
    12.3059  12.5441  12.8468  13.0023  13.0976  13.4476  13.5985  13.9879
    14.0743  14.1808  14.3607  14.5544  15.2811  15.3758  15.8128  15.8179
    15.9801  16.2224  16.2909  16.4772  16.6381  16.9114  16.9182  17.3194
    17.5446  17.7953  18.1908  18.3628  18.4117  18.5707  18.5873  18.8105
    18.8762  19.0230  19.1946  19.2383

     occupation numbers 
     1.0000   1.0000   1.0000   1.0000   1.0000   1.0000   1.0000   1.0000
     1.0000   1.0000   1.0000   1.0000   1.0000   1.0000   1.0000   1.0000
     1.0000   1.0000   1.0000   1.0000   1.0000   1.0000   1.0000   1.0000
     1.0000   1.0000   1.0000   1.0000   1.0000   1.0000   1.0000   1.0000
     1.0000   1.0000   1.0000   1.0000   1.0000   1.0000   1.0000   0.0000
     0.0000   0.0000   0.0000   0.0000   0.0000   0.0000   0.0000   0.0000
     0.0000   0.0000   0.0000   0.0000   0.0000   0.0000   0.0000   0.0000
     0.0000   0.0000   0.0000   0.0000   0.0000   0.0000   0.0000   0.0000
     0.0000   0.0000   0.0000   0.0000   0.0000   0.0000   0.0000   0.0000
     0.0000   0.0000   0.0000   0.0000   0.0000   0.0000   0.0000   0.0000
     0.0000   0.0000   0.0000   0.0000   0.0000   0.0000   0.0000   0.0000
     0.0000   0.0000   0.0000   0.0000   0.0000   0.0000   0.0000   0.0000
     0.0000   0.0000   0.0000   0.0000

          k = 0.0769 0.3215 0.0000 ( 24782 PWs)   bands (ev):

   -34.8366 -34.8364 -34.8355 -34.8353 -34.8028 -34.8027 -34.7962 -34.7960
   -34.7859 -34.7857 -34.7329 -34.7293 -34.7155 -34.6907 -34.6895 -27.6201
   -27.6198 -27.6168 -27.6165 -27.6117 -27.6113 -27.6087 -27.6080 -27.6070
   -27.6065 -10.1100  -9.6405  -8.8482  -6.6713  -6.0808  -2.2297  -1.6381
    -1.1079  -0.9836  -0.6181  -0.0766   0.5404   0.7230   1.4118   2.7897
     2.9828   3.6703   4.3144   4.5454   5.2837   5.8382   6.8161   7.0732
     7.4239   7.8824   8.1751   8.5484   8.8650   9.0920   9.5486   9.9198
    10.0085  10.1890  10.7751  11.0070  11.3067  11.9054  12.1159  12.1967
    12.5069  12.5858  12.6102  12.8431  13.1526  13.4610  13.7688  13.8922
    13.9397  14.3030  14.6001  14.7986  14.9320  15.1545  15.4205  15.5534
    15.7547  15.8455  16.1119  16.2270  16.4621  16.5236  16.7795  17.3105
    17.4467  17.6641  17.7915  17.8941  18.2076  18.3777  18.4628  18.5447
    18.7817  19.0612  19.2615  19.2963

     occupation numbers 
     1.0000   1.0000   1.0000   1.0000   1.0000   1.0000   1.0000   1.0000
     1.0000   1.0000   1.0000   1.0000   1.0000   1.0000   1.0000   1.0000
     1.0000   1.0000   1.0000   1.0000   1.0000   1.0000   1.0000   1.0000
     1.0000   1.0000   1.0000   1.0000   1.0000   1.0000   1.0000   1.0000
     1.0000   1.0000   1.0000   1.0000   1.0000   1.0000   1.0000   0.0000
     0.0000   0.0000   0.0000   0.0000   0.0000   0.0000   0.0000   0.0000
     0.0000   0.0000   0.0000   0.0000   0.0000   0.0000   0.0000   0.0000
     0.0000   0.0000   0.0000   0.0000   0.0000   0.0000   0.0000   0.0000
     0.0000   0.0000   0.0000   0.0000   0.0000   0.0000   0.0000   0.0000
     0.0000   0.0000   0.0000   0.0000   0.0000   0.0000   0.0000   0.0000
     0.0000   0.0000   0.0000   0.0000   0.0000   0.0000   0.0000   0.0000
     0.0000   0.0000   0.0000   0.0000   0.0000   0.0000   0.0000   0.0000
     0.0000   0.0000   0.0000   0.0000

          k = 0.0769 0.4139 0.0000 ( 24803 PWs)   bands (ev):

   -34.8366 -34.8364 -34.8352 -34.8350 -34.8028 -34.8027 -34.7963 -34.7961
   -34.7857 -34.7855 -34.7328 -34.7293 -34.7155 -34.6906 -34.6893 -27.6203
   -27.6200 -27.6159 -27.6157 -27.6114 -27.6111 -27.6086 -27.6079 -27.6075
   -27.6071  -9.7482  -9.3442  -8.7624  -6.9412  -6.5102  -2.7036  -1.7792
    -1.5109  -1.2777  -0.7411  -0.2917   0.3557   0.6519   1.1629   2.8308
     3.0200   3.7220   4.5255   4.7515   5.4934   5.7023   7.0684   7.4823
     7.9017   8.1294   8.6565   8.9917   9.3729   9.4803   9.8186  10.2424
    10.4698  10.5685  10.8982  11.1007  11.2768  11.5549  11.8183  12.2678
    12.4579  12.7092  12.9443  13.0828  13.2756  13.3161  13.5974  13.7610
    13.8075  14.5331  14.5853  14.8160  14.9521  15.2510  15.4167  15.4915
    15.6493  15.7970  15.9835  16.1097  16.3795  16.5326  16.6471  16.7888
    16.8122  17.2996  17.4698  17.5614  18.0075  18.0874  18.1773  18.5600
    18.8084  18.9767  19.0402  19.1213

     occupation numbers 
     1.0000   1.0000   1.0000   1.0000   1.0000   1.0000   1.0000   1.0000
     1.0000   1.0000   1.0000   1.0000   1.0000   1.0000   1.0000   1.0000
     1.0000   1.0000   1.0000   1.0000   1.0000   1.0000   1.0000   1.0000
     1.0000   1.0000   1.0000   1.0000   1.0000   1.0000   1.0000   1.0000
     1.0000   1.0000   1.0000   1.0000   1.0000   1.0000   1.0000   0.0000
     0.0000   0.0000   0.0000   0.0000   0.0000   0.0000   0.0000   0.0000
     0.0000   0.0000   0.0000   0.0000   0.0000   0.0000   0.0000   0.0000
     0.0000   0.0000   0.0000   0.0000   0.0000   0.0000   0.0000   0.0000
     0.0000   0.0000   0.0000   0.0000   0.0000   0.0000   0.0000   0.0000
     0.0000   0.0000   0.0000   0.0000   0.0000   0.0000   0.0000   0.0000
     0.0000   0.0000   0.0000   0.0000   0.0000   0.0000   0.0000   0.0000
     0.0000   0.0000   0.0000   0.0000   0.0000   0.0000   0.0000   0.0000
     0.0000   0.0000   0.0000   0.0000

          k = 0.0769 0.5063 0.0000 ( 24792 PWs)   bands (ev):

   -34.8366 -34.8364 -34.8350 -34.8348 -34.8028 -34.8027 -34.7964 -34.7961
   -34.7856 -34.7854 -34.7328 -34.7293 -34.7156 -34.6905 -34.6891 -27.6204
   -27.6201 -27.6153 -27.6151 -27.6112 -27.6109 -27.6085 -27.6080 -27.6077
   -27.6076  -9.3497  -9.0676  -8.7798  -7.2602  -6.8297  -2.9943  -1.8019
    -1.7518  -1.4882  -0.8634  -0.4799   0.3392   0.6068   0.9274   2.8349
     3.0172   3.6527   4.6726   4.8381   5.3237   5.8374   7.1112   8.0327
     8.2591   8.8895   9.0273   9.1679   9.6243   9.7154  10.2396  10.4749
    10.7583  10.8304  10.9184  11.1309  11.4735  11.6079  11.7737  12.0699
    12.1422  12.5209  12.7812  12.8737  13.1414  13.4442  13.6027  13.9371
    13.9908  14.3251  14.3865  14.5934  14.8314  14.9948  15.3354  15.3841
    15.6028  15.6785  15.8630  16.0063  16.5345  16.5772  16.7821  16.9095
    17.0783  17.2589  17.4031  17.6824  17.7641  18.0447  18.1077  18.5210
    18.7877  18.8406  19.1209  19.3601

     occupation numbers 
     1.0000   1.0000   1.0000   1.0000   1.0000   1.0000   1.0000   1.0000
     1.0000   1.0000   1.0000   1.0000   1.0000   1.0000   1.0000   1.0000
     1.0000   1.0000   1.0000   1.0000   1.0000   1.0000   1.0000   1.0000
     1.0000   1.0000   1.0000   1.0000   1.0000   1.0000   1.0000   1.0000
     1.0000   1.0000   1.0000   1.0000   1.0000   1.0000   1.0000   0.0000
     0.0000   0.0000   0.0000   0.0000   0.0000   0.0000   0.0000   0.0000
     0.0000   0.0000   0.0000   0.0000   0.0000   0.0000   0.0000   0.0000
     0.0000   0.0000   0.0000   0.0000   0.0000   0.0000   0.0000   0.0000
     0.0000   0.0000   0.0000   0.0000   0.0000   0.0000   0.0000   0.0000
     0.0000   0.0000   0.0000   0.0000   0.0000   0.0000   0.0000   0.0000
     0.0000   0.0000   0.0000   0.0000   0.0000   0.0000   0.0000   0.0000
     0.0000   0.0000   0.0000   0.0000   0.0000   0.0000   0.0000   0.0000
     0.0000   0.0000   0.0000   0.0000

          k = 0.0769 0.5987 0.0000 ( 24771 PWs)   bands (ev):

   -34.8366 -34.8364 -34.8349 -34.8347 -34.8028 -34.8027 -34.7964 -34.7962
   -34.7855 -34.7853 -34.7328 -34.7293 -34.7156 -34.6906 -34.6889 -27.6205
   -27.6202 -27.6151 -27.6148 -27.6110 -27.6108 -27.6084 -27.6082 -27.6079
   -27.6076  -8.9998  -8.9707  -8.9384  -7.4147  -6.9531  -3.0941  -1.8963
    -1.6827  -1.5948  -0.9669  -0.5156   0.4305   0.4913   0.8498   2.7990
     3.0499   3.5918   4.7092   4.8561   5.2892   5.8043   7.1646   8.4077
     8.6588   8.6894   8.8746   9.5570   9.7384   9.8022  10.2958  10.3874
    10.6482  10.9498  11.0554  11.3487  11.6435  11.8188  11.8464  12.1117
    12.2128  12.5301  12.6950  12.8468  13.1316  13.3266  13.7102  13.7549
    13.9347  14.1738  14.4264  14.4739  14.6650  14.9019  15.0014  15.2794
    15.5022  15.5697  15.7676  15.9340  16.1427  16.5215  16.6402  17.0591
    17.5614  17.6716  17.7821  17.9827  18.1559  18.3350  18.4651  18.5402
    18.6754  18.8300  18.8871  19.0403

     occupation numbers 
     1.0000   1.0000   1.0000   1.0000   1.0000   1.0000   1.0000   1.0000
     1.0000   1.0000   1.0000   1.0000   1.0000   1.0000   1.0000   1.0000
     1.0000   1.0000   1.0000   1.0000   1.0000   1.0000   1.0000   1.0000
     1.0000   1.0000   1.0000   1.0000   1.0000   1.0000   1.0000   1.0000
     1.0000   1.0000   1.0000   1.0000   1.0000   1.0000   1.0000   0.0000
     0.0000   0.0000   0.0000   0.0000   0.0000   0.0000   0.0000   0.0000
     0.0000   0.0000   0.0000   0.0000   0.0000   0.0000   0.0000   0.0000
     0.0000   0.0000   0.0000   0.0000   0.0000   0.0000   0.0000   0.0000
     0.0000   0.0000   0.0000   0.0000   0.0000   0.0000   0.0000   0.0000
     0.0000   0.0000   0.0000   0.0000   0.0000   0.0000   0.0000   0.0000
     0.0000   0.0000   0.0000   0.0000   0.0000   0.0000   0.0000   0.0000
     0.0000   0.0000   0.0000   0.0000   0.0000   0.0000   0.0000   0.0000
     0.0000   0.0000   0.0000   0.0000

          k = 0.0769-0.5098 0.0000 ( 24772 PWs)   bands (ev):

   -34.8366 -34.8364 -34.8350 -34.8347 -34.8028 -34.8027 -34.7964 -34.7962
   -34.7856 -34.7854 -34.7328 -34.7293 -34.7156 -34.6906 -34.6889 -27.6205
   -27.6202 -27.6153 -27.6150 -27.6110 -27.6108 -27.6083 -27.6081 -27.6080
   -27.6076  -9.3357  -9.0577  -8.7820  -7.2656  -6.8262  -3.0011  -1.7990
    -1.7837  -1.4489  -0.8997  -0.4469   0.3624   0.5494   0.9357   2.8191
     3.0085   3.6240   4.6741   4.7990   5.3105   5.8006   7.0898   8.0407
     8.2886   8.6485   8.9318   9.1673   9.5493   9.6495  10.1514  10.3711
    10.7346  10.8736  11.2395  11.3398  11.5191  11.5749  12.0330  12.1640
    12.4702  12.6572  12.8082  12.9300  13.2449  13.5550  13.6391  13.8196
    13.9851  14.2006  14.3911  14.5709  14.7145  15.1165  15.2122  15.3225
    15.4670  15.7495  15.8476  15.9304  16.3202  16.4398  16.6067  17.0727
    17.2230  17.2472  17.4596  17.6279  17.7447  18.1149  18.2080  18.5792
    18.6808  18.8785  19.0773  19.2838

     occupation numbers 
     1.0000   1.0000   1.0000   1.0000   1.0000   1.0000   1.0000   1.0000
     1.0000   1.0000   1.0000   1.0000   1.0000   1.0000   1.0000   1.0000
     1.0000   1.0000   1.0000   1.0000   1.0000   1.0000   1.0000   1.0000
     1.0000   1.0000   1.0000   1.0000   1.0000   1.0000   1.0000   1.0000
     1.0000   1.0000   1.0000   1.0000   1.0000   1.0000   1.0000   0.0000
     0.0000   0.0000   0.0000   0.0000   0.0000   0.0000   0.0000   0.0000
     0.0000   0.0000   0.0000   0.0000   0.0000   0.0000   0.0000   0.0000
     0.0000   0.0000   0.0000   0.0000   0.0000   0.0000   0.0000   0.0000
     0.0000   0.0000   0.0000   0.0000   0.0000   0.0000   0.0000   0.0000
     0.0000   0.0000   0.0000   0.0000   0.0000   0.0000   0.0000   0.0000
     0.0000   0.0000   0.0000   0.0000   0.0000   0.0000   0.0000   0.0000
     0.0000   0.0000   0.0000   0.0000   0.0000   0.0000   0.0000   0.0000
     0.0000   0.0000   0.0000   0.0000

          k = 0.0769-0.4175 0.0000 ( 24767 PWs)   bands (ev):

   -34.8366 -34.8364 -34.8352 -34.8349 -34.8028 -34.8027 -34.7963 -34.7961
   -34.7857 -34.7855 -34.7329 -34.7293 -34.7156 -34.6908 -34.6890 -27.6204
   -27.6201 -27.6158 -27.6156 -27.6110 -27.6108 -27.6084 -27.6079 -27.6078
   -27.6074  -9.7340  -9.3307  -8.7575  -6.9448  -6.5009  -2.7167  -1.8000
    -1.5172  -1.2321  -0.7898  -0.2404   0.3715   0.5800   1.1454   2.8227
     2.9855   3.6483   4.4819   4.7488   5.4699   5.6383   7.0273   7.4847
     7.8512   7.9271   8.6548   8.8861   9.3586   9.4888  10.1509  10.2750
    10.4539  10.6588  10.9565  11.0826  11.4276  11.5944  11.7369  12.2803
    12.4980  12.7810  13.0059  13.1253  13.3278  13.4265  13.6316  13.8265
    13.8563  14.5694  14.7483  15.0474  15.2550  15.2994  15.3882  15.6107
    15.6483  15.7341  15.9395  16.1629  16.2037  16.4700  16.4764  16.6257
    16.8346  17.1138  17.3554  17.5956  17.9261  18.0098  18.2173  18.3748
    18.6925  19.0410  19.1792  19.4293

     occupation numbers 
     1.0000   1.0000   1.0000   1.0000   1.0000   1.0000   1.0000   1.0000
     1.0000   1.0000   1.0000   1.0000   1.0000   1.0000   1.0000   1.0000
     1.0000   1.0000   1.0000   1.0000   1.0000   1.0000   1.0000   1.0000
     1.0000   1.0000   1.0000   1.0000   1.0000   1.0000   1.0000   1.0000
     1.0000   1.0000   1.0000   1.0000   1.0000   1.0000   1.0000   0.0000
     0.0000   0.0000   0.0000   0.0000   0.0000   0.0000   0.0000   0.0000
     0.0000   0.0000   0.0000   0.0000   0.0000   0.0000   0.0000   0.0000
     0.0000   0.0000   0.0000   0.0000   0.0000   0.0000   0.0000   0.0000
     0.0000   0.0000   0.0000   0.0000   0.0000   0.0000   0.0000   0.0000
     0.0000   0.0000   0.0000   0.0000   0.0000   0.0000   0.0000   0.0000
     0.0000   0.0000   0.0000   0.0000   0.0000   0.0000   0.0000   0.0000
     0.0000   0.0000   0.0000   0.0000   0.0000   0.0000   0.0000   0.0000
     0.0000   0.0000   0.0000   0.0000

          k = 0.0769-0.3251 0.0000 ( 24783 PWs)   bands (ev):

   -34.8366 -34.8364 -34.8354 -34.8352 -34.8028 -34.8027 -34.7963 -34.7961
   -34.7858 -34.7856 -34.7330 -34.7293 -34.7155 -34.6909 -34.6892 -27.6202
   -27.6200 -27.6166 -27.6163 -27.6113 -27.6111 -27.6085 -27.6080 -27.6073
   -27.6069 -10.0977  -9.6277  -8.8401  -6.6675  -6.0659  -2.2487  -1.6343
    -1.1313  -0.9439  -0.6470  -0.0124   0.4695   0.6871   1.3660   2.7329
     2.9411   3.6195   4.2026   4.6056   5.2519   5.7973   6.7626   7.0426
     7.3609   7.8469   8.1705   8.4793   9.0142   9.2386   9.6722   9.9183
    10.0140  10.2426  10.8690  11.0454  11.1903  11.8671  12.0669  12.2389
    12.4944  12.5710  12.7333  12.8457  13.1408  13.4627  13.9031  14.0001
    14.0519  14.2567  14.5573  14.8138  14.9619  15.2270  15.4503  15.6915
    15.9103  16.0518  16.1976  16.2899  16.4635  16.7373  16.9818  17.3382
    17.4270  17.6708  17.7330  17.8221  17.9661  18.1702  18.3290  18.6081
    18.6510  18.9083  19.0096  19.2619

     occupation numbers 
     1.0000   1.0000   1.0000   1.0000   1.0000   1.0000   1.0000   1.0000
     1.0000   1.0000   1.0000   1.0000   1.0000   1.0000   1.0000   1.0000
     1.0000   1.0000   1.0000   1.0000   1.0000   1.0000   1.0000   1.0000
     1.0000   1.0000   1.0000   1.0000   1.0000   1.0000   1.0000   1.0000
     1.0000   1.0000   1.0000   1.0000   1.0000   1.0000   1.0000   0.0000
     0.0000   0.0000   0.0000   0.0000   0.0000   0.0000   0.0000   0.0000
     0.0000   0.0000   0.0000   0.0000   0.0000   0.0000   0.0000   0.0000
     0.0000   0.0000   0.0000   0.0000   0.0000   0.0000   0.0000   0.0000
     0.0000   0.0000   0.0000   0.0000   0.0000   0.0000   0.0000   0.0000
     0.0000   0.0000   0.0000   0.0000   0.0000   0.0000   0.0000   0.0000
     0.0000   0.0000   0.0000   0.0000   0.0000   0.0000   0.0000   0.0000
     0.0000   0.0000   0.0000   0.0000   0.0000   0.0000   0.0000   0.0000
     0.0000   0.0000   0.0000   0.0000

          k = 0.0769-0.2327 0.0000 ( 24736 PWs)   bands (ev):

   -34.8366 -34.8364 -34.8358 -34.8355 -34.8027 -34.8027 -34.7962 -34.7960
   -34.7860 -34.7858 -34.7331 -34.7292 -34.7154 -34.6911 -34.6894 -27.6201
   -27.6198 -27.6174 -27.6172 -27.6117 -27.6115 -27.6084 -27.6080 -27.6066
   -27.6062 -10.3895  -9.8821  -8.9533  -6.5061  -5.6369  -1.6380  -1.2660
    -0.7929  -0.6098  -0.2902   0.0838   0.5213   0.9945   1.4980   2.4999
     2.8406   3.4934   3.8463   4.3746   4.7837   6.1617   6.5429   6.6477
     7.0726   7.7566   8.1951   8.2599   8.4327   8.7300   9.1969   9.6582
     9.7022  10.1093  10.4422  10.8125  11.1357  11.2735  11.8705  12.0724
    12.3521  12.6097  12.7306  13.0661  13.1199  13.4559  13.6587  14.0403
    14.0804  14.2984  14.4383  14.5612  15.2288  15.3286  15.7914  15.8210
    16.0993  16.2077  16.3042  16.4980  16.6018  16.7370  17.0035  17.0882
    17.8721  17.9601  18.1926  18.2561  18.3738  18.5240  18.6648  18.7868
    18.9670  19.1167  19.1749  19.2746

     occupation numbers 
     1.0000   1.0000   1.0000   1.0000   1.0000   1.0000   1.0000   1.0000
     1.0000   1.0000   1.0000   1.0000   1.0000   1.0000   1.0000   1.0000
     1.0000   1.0000   1.0000   1.0000   1.0000   1.0000   1.0000   1.0000
     1.0000   1.0000   1.0000   1.0000   1.0000   1.0000   1.0000   1.0000
     1.0000   1.0000   1.0000   1.0000   1.0000   1.0000   1.0000   0.0000
     0.0000   0.0000   0.0000   0.0000   0.0000   0.0000   0.0000   0.0000
     0.0000   0.0000   0.0000   0.0000   0.0000   0.0000   0.0000   0.0000
     0.0000   0.0000   0.0000   0.0000   0.0000   0.0000   0.0000   0.0000
     0.0000   0.0000   0.0000   0.0000   0.0000   0.0000   0.0000   0.0000
     0.0000   0.0000   0.0000   0.0000   0.0000   0.0000   0.0000   0.0000
     0.0000   0.0000   0.0000   0.0000   0.0000   0.0000   0.0000   0.0000
     0.0000   0.0000   0.0000   0.0000   0.0000   0.0000   0.0000   0.0000
     0.0000   0.0000   0.0000   0.0000

          k = 0.0769-0.1403 0.0000 ( 24679 PWs)   bands (ev):

   -34.8366 -34.8364 -34.8360 -34.8358 -34.8027 -34.8026 -34.7962 -34.7959
   -34.7861 -34.7859 -34.7331 -34.7292 -34.7153 -34.6912 -34.6895 -27.6199
   -27.6197 -27.6182 -27.6179 -27.6121 -27.6119 -27.6084 -27.6081 -27.6060
   -27.6057 -10.5915 -10.0639  -9.0504  -6.4340  -5.3161  -1.0311  -0.7066
    -0.4537  -0.2717  -0.0385   0.2567   0.5676   1.2770   1.3890   2.3050
     2.7680   3.0129   3.7079   3.9724   4.3455   6.3186   6.3440   6.7233
     7.0347   7.5452   7.8281   8.2488   8.3781   8.6927   8.7310   9.3987
     9.5704   9.8545  10.1348  10.5722  10.8289  11.0535  11.1379  11.5163
    12.1694  12.4040  12.6331  12.9963  13.1886  13.3924  13.7880  14.1056
    14.5342  14.8817  14.9352  15.1015  15.2392  15.3735  15.6285  15.9750
    16.1503  16.4048  16.6899  16.7704  16.8186  17.0054  17.0559  17.1633
    17.2536  17.3986  17.5338  17.6154  18.3619  18.7798  18.9548  18.9830
    19.0451  19.3421  19.6436  19.6734

     occupation numbers 
     1.0000   1.0000   1.0000   1.0000   1.0000   1.0000   1.0000   1.0000
     1.0000   1.0000   1.0000   1.0000   1.0000   1.0000   1.0000   1.0000
     1.0000   1.0000   1.0000   1.0000   1.0000   1.0000   1.0000   1.0000
     1.0000   1.0000   1.0000   1.0000   1.0000   1.0000   1.0000   1.0000
     1.0000   1.0000   1.0000   1.0000   1.0000   1.0000   1.0000   0.0000
     0.0000   0.0000   0.0000   0.0000   0.0000   0.0000   0.0000   0.0000
     0.0000   0.0000   0.0000   0.0000   0.0000   0.0000   0.0000   0.0000
     0.0000   0.0000   0.0000   0.0000   0.0000   0.0000   0.0000   0.0000
     0.0000   0.0000   0.0000   0.0000   0.0000   0.0000   0.0000   0.0000
     0.0000   0.0000   0.0000   0.0000   0.0000   0.0000   0.0000   0.0000
     0.0000   0.0000   0.0000   0.0000   0.0000   0.0000   0.0000   0.0000
     0.0000   0.0000   0.0000   0.0000   0.0000   0.0000   0.0000   0.0000
     0.0000   0.0000   0.0000   0.0000

          k = 0.0769-0.0480 0.0000 ( 24707 PWs)   bands (ev):

   -34.8366 -34.8364 -34.8362 -34.8360 -34.8027 -34.8026 -34.7961 -34.7959
   -34.7862 -34.7860 -34.7332 -34.7292 -34.7153 -34.6913 -34.6897 -27.6198
   -27.6195 -27.6186 -27.6183 -27.6124 -27.6121 -27.6083 -27.6081 -27.6056
   -27.6053 -10.6954 -10.1588  -9.1057  -6.4115  -5.1532  -0.5842  -0.3191
    -0.2315  -0.0010   0.1841   0.3435   0.8228   1.0212   1.3903   2.1915
     2.5888   2.8037   3.5476   3.7308   4.0154   6.1901   6.3016   6.8704
     7.1589   7.4738   7.6448   8.2740   8.4218   8.5865   8.7470   9.0573
     9.5920   9.6498  10.0703  10.2262  10.6500  10.7269  10.9093  11.2256
    11.8496  12.0857  12.6984  12.8497  13.3005  13.4731  14.1414  14.2868
    14.4310  14.9069  15.1853  15.4450  15.5887  15.8482  15.9215  16.0289
    16.2712  16.3540  16.4841  16.5607  16.8578  16.9735  17.2429  17.4516
    17.6299  17.6819  17.8160  17.9735  18.1636  18.2333  18.4626  18.6504
    18.7304  18.8303  18.8693  19.0731

     occupation numbers 
     1.0000   1.0000   1.0000   1.0000   1.0000   1.0000   1.0000   1.0000
     1.0000   1.0000   1.0000   1.0000   1.0000   1.0000   1.0000   1.0000
     1.0000   1.0000   1.0000   1.0000   1.0000   1.0000   1.0000   1.0000
     1.0000   1.0000   1.0000   1.0000   1.0000   1.0000   1.0000   1.0000
     1.0000   1.0000   1.0000   1.0000   1.0000   1.0000   1.0000   0.0000
     0.0000   0.0000   0.0000   0.0000   0.0000   0.0000   0.0000   0.0000
     0.0000   0.0000   0.0000   0.0000   0.0000   0.0000   0.0000   0.0000
     0.0000   0.0000   0.0000   0.0000   0.0000   0.0000   0.0000   0.0000
     0.0000   0.0000   0.0000   0.0000   0.0000   0.0000   0.0000   0.0000
     0.0000   0.0000   0.0000   0.0000   0.0000   0.0000   0.0000   0.0000
     0.0000   0.0000   0.0000   0.0000   0.0000   0.0000   0.0000   0.0000
     0.0000   0.0000   0.0000   0.0000   0.0000   0.0000   0.0000   0.0000
     0.0000   0.0000   0.0000   0.0000

          k = 0.1538 0.0888 0.0000 ( 24710 PWs)   bands (ev):

   -34.8365 -34.8363 -34.8361 -34.8359 -34.8028 -34.8027 -34.7961 -34.7959
   -34.7862 -34.7860 -34.7331 -34.7292 -34.7153 -34.6912 -34.6897 -27.6194
   -27.6192 -27.6186 -27.6184 -27.6124 -27.6120 -27.6087 -27.6082 -27.6056
   -27.6052 -10.5560 -10.0346  -9.0391  -6.4691  -5.4380  -1.4103  -0.7616
    -0.5264  -0.3894   0.0438   0.1573   1.0184   1.1308   1.4099   2.5939
     2.9938   3.0611   3.7377   4.0285   4.3446   6.1593   6.3909   6.6706
     7.1611   7.5485   8.0678   8.1270   8.3788   8.6720   9.1491   9.2972
     9.4990   9.9774  10.2254  10.4752  10.8937  11.2086  11.2774  11.4456
    12.0682  12.3580  12.7272  12.9487  13.0789  13.5032  13.6017  14.0554
    14.2432  14.4071  14.7159  15.2241  15.4004  15.7370  15.8577  15.9162
    16.0311  16.2539  16.3675  16.4077  16.5866  16.8762  17.3784  17.4667
    17.8057  17.9654  18.1072  18.2533  18.3033  18.6581  18.7464  18.8363
    18.8868  19.1153  19.1681  19.3224

     occupation numbers 
     1.0000   1.0000   1.0000   1.0000   1.0000   1.0000   1.0000   1.0000
     1.0000   1.0000   1.0000   1.0000   1.0000   1.0000   1.0000   1.0000
     1.0000   1.0000   1.0000   1.0000   1.0000   1.0000   1.0000   1.0000
     1.0000   1.0000   1.0000   1.0000   1.0000   1.0000   1.0000   1.0000
     1.0000   1.0000   1.0000   1.0000   1.0000   1.0000   1.0000   0.0000
     0.0000   0.0000   0.0000   0.0000   0.0000   0.0000   0.0000   0.0000
     0.0000   0.0000   0.0000   0.0000   0.0000   0.0000   0.0000   0.0000
     0.0000   0.0000   0.0000   0.0000   0.0000   0.0000   0.0000   0.0000
     0.0000   0.0000   0.0000   0.0000   0.0000   0.0000   0.0000   0.0000
     0.0000   0.0000   0.0000   0.0000   0.0000   0.0000   0.0000   0.0000
     0.0000   0.0000   0.0000   0.0000   0.0000   0.0000   0.0000   0.0000
     0.0000   0.0000   0.0000   0.0000   0.0000   0.0000   0.0000   0.0000
     0.0000   0.0000   0.0000   0.0000

          k = 0.1538 0.1812 0.0000 ( 24753 PWs)   bands (ev):

   -34.8365 -34.8363 -34.8359 -34.8357 -34.8028 -34.8027 -34.7961 -34.7959
   -34.7861 -34.7859 -34.7330 -34.7293 -34.7153 -34.6910 -34.6897 -27.6196
   -27.6193 -27.6182 -27.6179 -27.6122 -27.6118 -27.6088 -27.6082 -27.6060
   -27.6054 -10.4099  -9.9046  -8.9723  -6.5317  -5.6808  -1.7582  -1.1685
    -0.8951  -0.4527  -0.2745   0.1712   0.6716   1.1212   1.5692   2.6315
     3.1090   3.3499   3.8738   4.5093   4.5643   6.0897   6.5408   6.6775
     7.0995   7.7071   8.0837   8.2260   8.6153   8.7066   9.2240   9.6213
     9.8146   9.9410  10.4472  10.7842  11.0689  11.2739  11.7679  11.8325
    12.2822  12.3947  12.8277  12.9985  13.2562  13.3655  13.6159  13.6514
    13.8307  14.2656  14.7329  14.9140  15.3223  15.3551  15.4823  15.6841
    15.9177  16.4451  16.5858  16.7667  16.8862  16.9759  17.1956  17.2295
    17.5645  17.7837  18.0511  18.1501  18.2095  18.3942  18.4105  18.5387
    18.7869  18.9199  19.1327  19.3125

     occupation numbers 
     1.0000   1.0000   1.0000   1.0000   1.0000   1.0000   1.0000   1.0000
     1.0000   1.0000   1.0000   1.0000   1.0000   1.0000   1.0000   1.0000
     1.0000   1.0000   1.0000   1.0000   1.0000   1.0000   1.0000   1.0000
     1.0000   1.0000   1.0000   1.0000   1.0000   1.0000   1.0000   1.0000
     1.0000   1.0000   1.0000   1.0000   1.0000   1.0000   1.0000   0.0000
     0.0000   0.0000   0.0000   0.0000   0.0000   0.0000   0.0000   0.0000
     0.0000   0.0000   0.0000   0.0000   0.0000   0.0000   0.0000   0.0000
     0.0000   0.0000   0.0000   0.0000   0.0000   0.0000   0.0000   0.0000
     0.0000   0.0000   0.0000   0.0000   0.0000   0.0000   0.0000   0.0000
     0.0000   0.0000   0.0000   0.0000   0.0000   0.0000   0.0000   0.0000
     0.0000   0.0000   0.0000   0.0000   0.0000   0.0000   0.0000   0.0000
     0.0000   0.0000   0.0000   0.0000   0.0000   0.0000   0.0000   0.0000
     0.0000   0.0000   0.0000   0.0000

          k = 0.1538 0.2736 0.0000 ( 24738 PWs)   bands (ev):

   -34.8365 -34.8363 -34.8356 -34.8354 -34.8028 -34.8027 -34.7962 -34.7960
   -34.7859 -34.7858 -34.7329 -34.7293 -34.7154 -34.6908 -34.6896 -27.6197
   -27.6195 -27.6175 -27.6172 -27.6120 -27.6115 -27.6089 -27.6082 -27.6065
   -27.6058 -10.1700  -9.6950  -8.8751  -6.6532  -6.0452  -1.9980  -1.8479
    -1.0460  -0.8484  -0.5823  -0.1282   0.6276   1.1885   1.3420   2.7468
     3.3472   3.5343   4.0180   4.8381   5.0743   6.2785   6.3533   6.8970
     7.2186   7.8145   8.0347   8.2353   9.0412   9.2742   9.6657   9.7272
     9.9998  10.3491  10.6245  10.7636  11.6333  11.8084  11.9007  12.1140
    12.3866  12.5094  12.8004  12.9546  13.1477  13.2973  13.3980  13.5509
    14.0858  14.3430  14.4241  14.6979  15.0170  15.1559  15.3852  15.6031
    15.6527  15.9686  16.1495  16.4324  16.6169  17.0320  17.4175  17.5344
    17.6629  17.7139  17.8589  17.9195  17.9732  18.2392  18.3753  18.4812
    18.5658  18.9642  19.2497  19.5450

     occupation numbers 
     1.0000   1.0000   1.0000   1.0000   1.0000   1.0000   1.0000   1.0000
     1.0000   1.0000   1.0000   1.0000   1.0000   1.0000   1.0000   1.0000
     1.0000   1.0000   1.0000   1.0000   1.0000   1.0000   1.0000   1.0000
     1.0000   1.0000   1.0000   1.0000   1.0000   1.0000   1.0000   1.0000
     1.0000   1.0000   1.0000   1.0000   1.0000   1.0000   1.0000   0.0000
     0.0000   0.0000   0.0000   0.0000   0.0000   0.0000   0.0000   0.0000
     0.0000   0.0000   0.0000   0.0000   0.0000   0.0000   0.0000   0.0000
     0.0000   0.0000   0.0000   0.0000   0.0000   0.0000   0.0000   0.0000
     0.0000   0.0000   0.0000   0.0000   0.0000   0.0000   0.0000   0.0000
     0.0000   0.0000   0.0000   0.0000   0.0000   0.0000   0.0000   0.0000
     0.0000   0.0000   0.0000   0.0000   0.0000   0.0000   0.0000   0.0000
     0.0000   0.0000   0.0000   0.0000   0.0000   0.0000   0.0000   0.0000
     0.0000   0.0000   0.0000   0.0000

          k = 0.1538 0.3660 0.0000 ( 24767 PWs)   bands (ev):

   -34.8365 -34.8363 -34.8354 -34.8351 -34.8028 -34.8027 -34.7963 -34.7960
   -34.7858 -34.7856 -34.7328 -34.7293 -34.7155 -34.6906 -34.6895 -27.6199
   -27.6196 -27.6166 -27.6164 -27.6117 -27.6113 -27.6088 -27.6081 -27.6070
   -27.6064  -9.8486  -9.4252  -8.7766  -6.8544  -6.4756  -2.4051  -2.1062
    -1.3897  -1.1786  -0.8332  -0.3753   0.6544   0.8585   1.2704   2.8636
     3.4054   3.6059   4.3827   5.0299   5.4423   6.0219   6.7944   7.3277
     7.3803   7.8335   8.4611   8.4686   9.2790   9.3937  10.1237  10.1938
    10.4709  10.6386  10.7290  11.3963  11.6178  11.7793  11.8344  12.1163
    12.4678  12.5456  12.7169  12.7854  12.9033  13.0101  13.6473  13.8657
    14.1701  14.3036  14.3706  14.5748  14.6682  14.8841  14.9926  15.4609
    15.7676  15.8666  16.2822  16.4933  16.5951  16.9224  17.0650  17.2392
    17.4859  17.4944  17.5398  17.8008  18.1883  18.3833  18.7286  18.8757
    18.9328  19.2307  19.3258  19.4151

     occupation numbers 
     1.0000   1.0000   1.0000   1.0000   1.0000   1.0000   1.0000   1.0000
     1.0000   1.0000   1.0000   1.0000   1.0000   1.0000   1.0000   1.0000
     1.0000   1.0000   1.0000   1.0000   1.0000   1.0000   1.0000   1.0000
     1.0000   1.0000   1.0000   1.0000   1.0000   1.0000   1.0000   1.0000
     1.0000   1.0000   1.0000   1.0000   1.0000   1.0000   1.0000   0.0000
     0.0000   0.0000   0.0000   0.0000   0.0000   0.0000   0.0000   0.0000
     0.0000   0.0000   0.0000   0.0000   0.0000   0.0000   0.0000   0.0000
     0.0000   0.0000   0.0000   0.0000   0.0000   0.0000   0.0000   0.0000
     0.0000   0.0000   0.0000   0.0000   0.0000   0.0000   0.0000   0.0000
     0.0000   0.0000   0.0000   0.0000   0.0000   0.0000   0.0000   0.0000
     0.0000   0.0000   0.0000   0.0000   0.0000   0.0000   0.0000   0.0000
     0.0000   0.0000   0.0000   0.0000   0.0000   0.0000   0.0000   0.0000
     0.0000   0.0000   0.0000   0.0000

          k = 0.1538 0.4583 0.0000 ( 24785 PWs)   bands (ev):

[...]
     0.0000   0.0000   0.0000   0.0000

          k = 0.4615 0.7284 0.0000 ( 24732 PWs)   bands (ev):

   -36.6415 -36.6411 -36.6360 -36.6355 -36.6000 -36.5996 -36.5866 -36.5863
   -36.5776 -36.5772 -36.3622 -36.3586 -36.3411 -36.3098 -36.3068 -29.3535
   -29.3526 -29.3478 -29.3471 -29.3417 -29.3412 -29.3299 -29.3290 -29.3242
   -29.3219 -11.1335 -10.9701 -10.7612  -9.2459  -8.8402  -4.2947  -3.3537
    -3.2145  -2.6907  -2.0297  -1.9364  -0.4676  -0.1215   0.4433   2.7049
     3.2341   3.3615   4.5734   5.0028   5.6276   6.1964   7.6136   8.3051
     8.5754   8.9483   9.1366   9.4465   9.7140   9.9429  10.1557  10.4300
    10.5592  10.7676  11.0655  11.6759  11.6992  12.0610  12.1874  12.4552
    12.5778  12.8524  13.0054  13.2404  13.3057  13.6997  14.1212  14.3210
    14.4698  14.6453  14.9674  15.1171  15.3016  15.6675  15.6940  15.9848
    16.3742  16.4508  16.9985  17.1281  17.1757  17.3424  17.5593  17.6286
    17.9146  18.1372  18.3253  18.3848  18.5676  18.7245  18.8385  19.1130
    19.2111  19.3630  19.5986  19.8857

     occupation numbers 
     1.0000   1.0000   1.0000   1.0000   1.0000   1.0000   1.0000   1.0000
     1.0000   1.0000   1.0000   1.0000   1.0000   1.0000   1.0000   1.0000
     1.0000   1.0000   1.0000   1.0000   1.0000   1.0000   1.0000   1.0000
     1.0000   1.0000   1.0000   1.0000   1.0000   1.0000   1.0000   1.0000
     1.0000   1.0000   1.0000   1.0000   1.0000   1.0000   1.0000   0.0000
     0.0000   0.0000   0.0000   0.0000   0.0000   0.0000   0.0000   0.0000
     0.0000   0.0000   0.0000   0.0000   0.0000   0.0000   0.0000   0.0000
     0.0000   0.0000   0.0000   0.0000   0.0000   0.0000   0.0000   0.0000
     0.0000   0.0000   0.0000   0.0000   0.0000   0.0000   0.0000   0.0000
     0.0000   0.0000   0.0000   0.0000   0.0000   0.0000   0.0000   0.0000
     0.0000   0.0000   0.0000   0.0000   0.0000   0.0000   0.0000   0.0000
     0.0000   0.0000   0.0000   0.0000   0.0000   0.0000   0.0000   0.0000
     0.0000   0.0000   0.0000   0.0000

          k = 0.4615 0.8207 0.0000 ( 24724 PWs)   bands (ev):

   -36.6411 -36.6407 -36.6335 -36.6330 -36.6007 -36.6003 -36.5884 -36.5881
   -36.5796 -36.5792 -36.3627 -36.3599 -36.3355 -36.3103 -36.3049 -29.3585
   -29.3577 -29.3520 -29.3513 -29.3431 -29.3417 -29.3306 -29.3298 -29.3217
   -29.3195 -11.0597 -11.0269 -10.9324  -9.2689  -8.6736  -4.4288  -3.0865
    -2.9278  -2.7318  -2.1343  -1.5432  -0.4242  -0.3527   0.2693   2.7000
     2.8230   3.3339   4.6207   4.6943   5.6591   5.7297   7.4513   8.4572
     8.7097   8.7528   8.9147   9.7181   9.7722   9.8806  10.4774  10.5407
    11.0449  11.2936  11.5073  11.7649  11.9582  12.1472  12.4044  12.5386
    12.6333  12.6876  13.1760  13.2282  13.7306  13.8797  14.1207  14.3631
    14.4435  14.7432  14.7797  14.7982  15.1427  15.2671  15.4477  15.7939
    15.9679  16.0208  16.2983  16.5017  16.8565  17.0638  17.1408  17.5560
    17.9799  18.1683  18.3970  18.4645  18.6111  18.7253  18.7940  19.0620
    19.1562  19.2919  19.3526  19.5961

     occupation numbers 
     1.0000   1.0000   1.0000   1.0000   1.0000   1.0000   1.0000   1.0000
     1.0000   1.0000   1.0000   1.0000   1.0000   1.0000   1.0000   1.0000
     1.0000   1.0000   1.0000   1.0000   1.0000   1.0000   1.0000   1.0000
     1.0000   1.0000   1.0000   1.0000   1.0000   1.0000   1.0000   1.0000
     1.0000   1.0000   1.0000   1.0000   1.0000   1.0000   1.0000   0.0000
     0.0000   0.0000   0.0000   0.0000   0.0000   0.0000   0.0000   0.0000
     0.0000   0.0000   0.0000   0.0000   0.0000   0.0000   0.0000   0.0000
     0.0000   0.0000   0.0000   0.0000   0.0000   0.0000   0.0000   0.0000
     0.0000   0.0000   0.0000   0.0000   0.0000   0.0000   0.0000   0.0000
     0.0000   0.0000   0.0000   0.0000   0.0000   0.0000   0.0000   0.0000
     0.0000   0.0000   0.0000   0.0000   0.0000   0.0000   0.0000   0.0000
     0.0000   0.0000   0.0000   0.0000   0.0000   0.0000   0.0000   0.0000
     0.0000   0.0000   0.0000   0.0000

          k = 0.4615-0.2878 0.0000 ( 24758 PWs)   bands (ev):

   -36.6424 -36.6419 -36.6341 -36.6337 -36.6019 -36.6015 -36.5881 -36.5878
   -36.5790 -36.5786 -36.3641 -36.3599 -36.3334 -36.3129 -36.3058 -29.3595
   -29.3587 -29.3534 -29.3530 -29.3438 -29.3413 -29.3316 -29.3302 -29.3206
   -29.3186 -11.2327 -11.0728 -10.8714  -9.2179  -8.5673  -4.4403  -2.9716
    -2.8359  -2.6544  -2.1186  -1.4533  -0.4174  -0.3369   0.1227   2.4390
     2.9876   3.3412   4.4551   4.6909   5.5600   5.7060   7.3862   8.2757
     8.5423   8.8888   9.0857   9.4573   9.8603  10.0900  10.5090  10.7916
    11.1262  11.4094  11.5203  11.8367  12.0086  12.0313  12.2614  12.4178
    12.7537  12.9285  13.2395  13.4531  13.6376  13.9913  14.1532  14.3619
    14.4487  14.5873  14.6585  14.9084  15.0357  15.1896  15.3381  15.4643
    15.6788  15.9360  16.3808  16.7082  16.7610  17.0267  17.2425  17.4313
    17.6940  17.9280  18.0152  18.1585  18.4048  18.6345  18.8181  18.8519
    19.0650  19.6756  19.7593  19.7904

     occupation numbers 
     1.0000   1.0000   1.0000   1.0000   1.0000   1.0000   1.0000   1.0000
     1.0000   1.0000   1.0000   1.0000   1.0000   1.0000   1.0000   1.0000
     1.0000   1.0000   1.0000   1.0000   1.0000   1.0000   1.0000   1.0000
     1.0000   1.0000   1.0000   1.0000   1.0000   1.0000   1.0000   1.0000
     1.0000   1.0000   1.0000   1.0000   1.0000   1.0000   1.0000   0.0000
     0.0000   0.0000   0.0000   0.0000   0.0000   0.0000   0.0000   0.0000
     0.0000   0.0000   0.0000   0.0000   0.0000   0.0000   0.0000   0.0000
     0.0000   0.0000   0.0000   0.0000   0.0000   0.0000   0.0000   0.0000
     0.0000   0.0000   0.0000   0.0000   0.0000   0.0000   0.0000   0.0000
     0.0000   0.0000   0.0000   0.0000   0.0000   0.0000   0.0000   0.0000
     0.0000   0.0000   0.0000   0.0000   0.0000   0.0000   0.0000   0.0000
     0.0000   0.0000   0.0000   0.0000   0.0000   0.0000   0.0000   0.0000
     0.0000   0.0000   0.0000   0.0000

          k = 0.4615-0.1954 0.0000 ( 24696 PWs)   bands (ev):

   -36.6421 -36.6417 -36.6349 -36.6344 -36.5998 -36.5993 -36.5906 -36.5903
   -36.5792 -36.5788 -36.3613 -36.3591 -36.3371 -36.3121 -36.3067 -29.3587
   -29.3578 -29.3517 -29.3510 -29.3438 -29.3428 -29.3309 -29.3301 -29.3224
   -29.3202 -11.4116 -11.1376 -10.7433  -9.1110  -8.5578  -4.3289  -3.0339
    -2.9234  -2.6729  -2.0220  -1.5239  -0.4985  -0.2412   0.3372   2.7195
     2.8118   3.3927   4.5463   4.7118   5.5940   5.8691   7.3943   8.0141
     8.3360   9.0414   9.2750   9.2805   9.8270  10.1550  10.4508  10.6368
    11.0695  11.1145  11.2857  11.5267  11.7465  11.9509  12.2230  12.4806
    12.6132  12.7604  13.1091  13.1919  13.4691  13.8271  13.9395  14.3560
    14.4340  14.6455  14.8594  15.1705  15.3446  15.4642  15.8276  15.8631
    16.0759  16.2279  16.3084  16.6800  16.9984  17.0655  17.2198  17.4258
    17.6199  17.7349  18.1083  18.1247  18.4051  18.5450  18.6282  18.9953
    19.2490  19.2814  19.5424  19.8939

     occupation numbers 
     1.0000   1.0000   1.0000   1.0000   1.0000   1.0000   1.0000   1.0000
     1.0000   1.0000   1.0000   1.0000   1.0000   1.0000   1.0000   1.0000
     1.0000   1.0000   1.0000   1.0000   1.0000   1.0000   1.0000   1.0000
     1.0000   1.0000   1.0000   1.0000   1.0000   1.0000   1.0000   1.0000
     1.0000   1.0000   1.0000   1.0000   1.0000   1.0000   1.0000   0.0000
     0.0000   0.0000   0.0000   0.0000   0.0000   0.0000   0.0000   0.0000
     0.0000   0.0000   0.0000   0.0000   0.0000   0.0000   0.0000   0.0000
     0.0000   0.0000   0.0000   0.0000   0.0000   0.0000   0.0000   0.0000
     0.0000   0.0000   0.0000   0.0000   0.0000   0.0000   0.0000   0.0000
     0.0000   0.0000   0.0000   0.0000   0.0000   0.0000   0.0000   0.0000
     0.0000   0.0000   0.0000   0.0000   0.0000   0.0000   0.0000   0.0000
     0.0000   0.0000   0.0000   0.0000   0.0000   0.0000   0.0000   0.0000
     0.0000   0.0000   0.0000   0.0000

          k = 0.4615-0.1030 0.0000 ( 24744 PWs)   bands (ev):

   -36.6432 -36.6428 -36.6375 -36.6371 -36.6014 -36.6010 -36.5888 -36.5885
   -36.5785 -36.5781 -36.3621 -36.3580 -36.3452 -36.3124 -36.3096 -29.3532
   -29.3523 -29.3467 -29.3461 -29.3428 -29.3421 -29.3312 -29.3303 -29.3253
   -29.3234 -11.5317 -11.1867 -10.6609  -8.9635  -8.6223  -4.1037  -3.3778
    -2.8901  -2.7419  -2.0191  -1.7306  -0.3993  -0.0525   0.5111   2.6472
     3.2575   3.5003   4.4016   5.0023   5.5548   6.3548   7.5204   7.8078
     8.2472   8.4997   8.9660   9.1955   9.7300   9.8960  10.2914  10.6012
    10.9534  11.1403  11.1862  11.5137  11.7211  11.9729  12.0521  12.5251
    12.6404  12.7525  13.0050  13.1371  13.4159  13.4938  13.8177  14.0586
    14.2389  14.3602  14.6806  15.0309  15.2215  15.7667  15.9251  15.9912
    16.5528  16.6575  16.8898  16.9607  17.0134  17.1287  17.5945  17.6432
    17.8686  18.0226  18.0779  18.3897  18.5176  18.8190  19.0289  19.1698
    19.3826  19.7545  20.0191  20.0899

     occupation numbers 
     1.0000   1.0000   1.0000   1.0000   1.0000   1.0000   1.0000   1.0000
     1.0000   1.0000   1.0000   1.0000   1.0000   1.0000   1.0000   1.0000
     1.0000   1.0000   1.0000   1.0000   1.0000   1.0000   1.0000   1.0000
     1.0000   1.0000   1.0000   1.0000   1.0000   1.0000   1.0000   1.0000
     1.0000   1.0000   1.0000   1.0000   1.0000   1.0000   1.0000   0.0000
     0.0000   0.0000   0.0000   0.0000   0.0000   0.0000   0.0000   0.0000
     0.0000   0.0000   0.0000   0.0000   0.0000   0.0000   0.0000   0.0000
     0.0000   0.0000   0.0000   0.0000   0.0000   0.0000   0.0000   0.0000
     0.0000   0.0000   0.0000   0.0000   0.0000   0.0000   0.0000   0.0000
     0.0000   0.0000   0.0000   0.0000   0.0000   0.0000   0.0000   0.0000
     0.0000   0.0000   0.0000   0.0000   0.0000   0.0000   0.0000   0.0000
     0.0000   0.0000   0.0000   0.0000   0.0000   0.0000   0.0000   0.0000
     0.0000   0.0000   0.0000   0.0000

          k = 0.4615-0.0107 0.0000 ( 24760 PWs)   bands (ev):

   -36.6467 -36.6463 -36.6300 -36.6296 -36.5999 -36.5996 -36.5903 -36.5899
   -36.5777 -36.5774 -36.3609 -36.3552 -36.3474 -36.3107 -36.3087 -29.3498
   -29.3491 -29.3469 -29.3464 -29.3427 -29.3414 -29.3358 -29.3342 -29.3327
   -29.3312 -11.5767 -11.2103 -10.6341  -8.8822  -8.6828  -3.8337  -3.7386
    -2.8522  -2.5008  -2.3955  -1.7080  -0.2637   0.2428   0.3134   3.0335
     3.1546   3.5009   4.5684   5.1465   5.4194   7.1112   7.2919   7.6739
     7.8252   8.3537   8.7780   8.9360   9.6838   9.7624  10.3882  10.6417
    10.8277  10.9473  11.4390  11.5608  11.6133  12.1992  12.2380  12.3296
    12.3954  12.7841  12.9022  13.2639  13.3223  13.7275  13.9923  14.0654
    14.1041  14.3670  14.4659  14.7270  14.9839  15.3774  15.8584  16.2467
    16.5224  16.7071  16.9510  16.9976  17.0538  17.4361  17.6963  17.7703
    18.1084  18.1898  18.4756  18.7120  19.0551  19.1172  19.2712  19.3305
    19.5111  19.7091  19.9880  20.0432

     occupation numbers 
     1.0000   1.0000   1.0000   1.0000   1.0000   1.0000   1.0000   1.0000
     1.0000   1.0000   1.0000   1.0000   1.0000   1.0000   1.0000   1.0000
     1.0000   1.0000   1.0000   1.0000   1.0000   1.0000   1.0000   1.0000
     1.0000   1.0000   1.0000   1.0000   1.0000   1.0000   1.0000   1.0000
     1.0000   1.0000   1.0000   1.0000   1.0000   1.0000   1.0000   0.0000
     0.0000   0.0000   0.0000   0.0000   0.0000   0.0000   0.0000   0.0000
     0.0000   0.0000   0.0000   0.0000   0.0000   0.0000   0.0000   0.0000
     0.0000   0.0000   0.0000   0.0000   0.0000   0.0000   0.0000   0.0000
     0.0000   0.0000   0.0000   0.0000   0.0000   0.0000   0.0000   0.0000
     0.0000   0.0000   0.0000   0.0000   0.0000   0.0000   0.0000   0.0000
     0.0000   0.0000   0.0000   0.0000   0.0000   0.0000   0.0000   0.0000
     0.0000   0.0000   0.0000   0.0000   0.0000   0.0000   0.0000   0.0000
     0.0000   0.0000   0.0000   0.0000

          k = 0.4615 0.0817 0.0000 ( 24746 PWs)   bands (ev):

   -36.6451 -36.6447 -36.6378 -36.6374 -36.5987 -36.5983 -36.5927 -36.5924
   -36.5795 -36.5792 -36.3623 -36.3538 -36.3511 -36.3130 -36.3097 -29.3503
   -29.3497 -29.3478 -29.3472 -29.3429 -29.3420 -29.3341 -29.3330 -29.3225
   -29.3206 -11.5555 -11.2195 -10.6952  -8.9958  -8.6092  -4.1039  -3.3609
    -2.8403  -2.7057  -2.0347  -1.6672  -0.3534  -0.0173   0.6041   2.7886
     3.3585   3.4727   4.4487   5.1102   5.5189   6.4259   7.4917   7.7730
     8.2370   8.3142   8.9163   9.0814   9.6361   9.8988  10.2375  10.5286
    10.9752  11.0063  11.2480  11.4231  11.7617  12.1511  12.2481  12.5277
    12.7557  12.9277  13.0999  13.1673  13.3880  13.4254  13.7951  14.0132
    14.1472  14.4248  14.8186  15.0762  15.2879  15.6825  15.8168  15.9560
    16.4047  16.6196  16.8407  17.0308  17.0630  17.0869  17.5646  17.7190
    17.9091  18.0417  18.1201  18.2479  18.3052  18.5621  18.9266  19.1476
    19.2125  19.7615  19.8892  19.9857

     occupation numbers 
     1.0000   1.0000   1.0000   1.0000   1.0000   1.0000   1.0000   1.0000
     1.0000   1.0000   1.0000   1.0000   1.0000   1.0000   1.0000   1.0000
     1.0000   1.0000   1.0000   1.0000   1.0000   1.0000   1.0000   1.0000
     1.0000   1.0000   1.0000   1.0000   1.0000   1.0000   1.0000   1.0000
     1.0000   1.0000   1.0000   1.0000   1.0000   1.0000   1.0000   0.0000
     0.0000   0.0000   0.0000   0.0000   0.0000   0.0000   0.0000   0.0000
     0.0000   0.0000   0.0000   0.0000   0.0000   0.0000   0.0000   0.0000
     0.0000   0.0000   0.0000   0.0000   0.0000   0.0000   0.0000   0.0000
     0.0000   0.0000   0.0000   0.0000   0.0000   0.0000   0.0000   0.0000
     0.0000   0.0000   0.0000   0.0000   0.0000   0.0000   0.0000   0.0000
     0.0000   0.0000   0.0000   0.0000   0.0000   0.0000   0.0000   0.0000
     0.0000   0.0000   0.0000   0.0000   0.0000   0.0000   0.0000   0.0000
     0.0000   0.0000   0.0000   0.0000

          k = 0.4615 0.1741 0.0000 ( 24787 PWs)   bands (ev):

   -36.6455 -36.6450 -36.6372 -36.6368 -36.5968 -36.5965 -36.5952 -36.5947
   -36.5799 -36.5795 -36.3597 -36.3539 -36.3465 -36.3143 -36.3087 -29.3555
   -29.3549 -29.3525 -29.3517 -29.3438 -29.3423 -29.3332 -29.3324 -29.3184
   -29.3164 -11.4600 -11.1998 -10.8003  -9.1452  -8.5547  -4.3228  -3.0618
    -2.8296  -2.5852  -1.9553  -1.4654  -0.4184  -0.1671   0.4893   2.8768
     2.9804   3.4118   4.5844   4.8655   5.6094   5.8939   7.3374   7.9629
     8.3018   8.9349   9.1302   9.2141   9.7589  10.0350  10.3771  10.5096
    10.9096  11.1479  11.4317  11.6046  11.7834  12.0594  12.1786  12.5988
    12.6741  12.7638  13.1592  13.2598  13.6623  13.8496  14.0410  14.3289
    14.4312  14.5928  14.8762  15.1389  15.3449  15.4078  15.7404  15.9790
    16.1551  16.2334  16.3847  16.6069  16.8316  17.0174  17.0856  17.2776
    17.3906  17.5666  17.9454  18.0614  18.1485  18.6566  18.7671  18.9675
    19.1899  19.3014  19.4890  19.5904

     occupation numbers 
     1.0000   1.0000   1.0000   1.0000   1.0000   1.0000   1.0000   1.0000
     1.0000   1.0000   1.0000   1.0000   1.0000   1.0000   1.0000   1.0000
     1.0000   1.0000   1.0000   1.0000   1.0000   1.0000   1.0000   1.0000
     1.0000   1.0000   1.0000   1.0000   1.0000   1.0000   1.0000   1.0000
     1.0000   1.0000   1.0000   1.0000   1.0000   1.0000   1.0000   0.0000
     0.0000   0.0000   0.0000   0.0000   0.0000   0.0000   0.0000   0.0000
     0.0000   0.0000   0.0000   0.0000   0.0000   0.0000   0.0000   0.0000
     0.0000   0.0000   0.0000   0.0000   0.0000   0.0000   0.0000   0.0000
     0.0000   0.0000   0.0000   0.0000   0.0000   0.0000   0.0000   0.0000
     0.0000   0.0000   0.0000   0.0000   0.0000   0.0000   0.0000   0.0000
     0.0000   0.0000   0.0000   0.0000   0.0000   0.0000   0.0000   0.0000
     0.0000   0.0000   0.0000   0.0000   0.0000   0.0000   0.0000   0.0000
     0.0000   0.0000   0.0000   0.0000

     highest occupied, lowest unoccupied level (ev):     0.7864    1.7905

!    total energy              =    -805.31924987 Ry
     estimated scf accuracy    <       0.00000007 Ry

     convergence has been achieved in   4 iterations

     Using ACE for calculation of exact exchange
     ACE projected onto   100 (nbndproj) and applied to   100 (nbnd) bands

!!   total energy              =    -805.31924996 Ry
     Harris-Foulkes estimate   =    -805.31924852 Ry
     est. exchange err (dexx)  =       0.00000009 Ry
     - averaged Fock potential =      22.93604550 Ry
     + Fock energy (ACE)       =     -11.46803249 Ry

     EXX self-consistency reached

     Writing all to output data dir tmp/Sb2Te3-uatsx-c4-4.0.save/ :
     XML data file, charge density, pseudopotentials, collected wavefunctions

     init_run     :      3.06s CPU      3.14s WALL (       1 calls)
     electrons    :    796.97s CPU    807.66s WALL (       6 calls)

     Called by init_run:
     aceinit0     :      0.00s CPU      0.00s WALL (       1 calls)
     wfcinit      :      2.83s CPU      2.89s WALL (       1 calls)
     wfcinit:wfcr :      2.75s CPU      2.81s WALL (      43 calls)
     potinit      :      0.01s CPU      0.01s WALL (       1 calls)
     hinit0       :      0.16s CPU      0.17s WALL (       1 calls)

     Called by electrons:
     c_bands      :    753.24s CPU    762.44s WALL (      41 calls)
     sum_band     :     42.91s CPU     43.80s WALL (      41 calls)
     v_of_rho     :      0.40s CPU      0.41s WALL (      42 calls)
     v_h          :      0.03s CPU      0.03s WALL (      42 calls)
     v_xc         :      0.37s CPU      0.38s WALL (      42 calls)
     mix_rho      :      0.05s CPU      0.05s WALL (      41 calls)
     energy_londo :      0.05s CPU      0.06s WALL (       6 calls)

     Called by c_bands:
     init_us_2    :      0.99s CPU      1.03s WALL (    3569 calls)
     cegterg      :    680.87s CPU    689.27s WALL (    1778 calls)

     Called by sum_band:
     sum_band:wei :      0.00s CPU      0.00s WALL (      41 calls)
     sum_band:loo :     42.74s CPU     43.64s WALL (      41 calls)
     sum_band:buf :      0.54s CPU      0.58s WALL (    1763 calls)
     sum_band:ini :      0.49s CPU      0.52s WALL (    1763 calls)

     Called by *egterg:
     cdiaghg      :    265.37s CPU    266.83s WALL (   17692 calls)
     cegterg:over :     36.98s CPU     37.39s WALL (   16187 calls)
     cegterg:upda :      9.95s CPU     10.08s WALL (   16187 calls)
     cegterg:last :     13.26s CPU     13.38s WALL (    4944 calls)
     h_psi        :    326.63s CPU    332.76s WALL (   18008 calls)
     g_psi        :      1.44s CPU      1.46s WALL (   16187 calls)

     Called by h_psi:
     h_psi:calbec :     17.92s CPU     18.16s WALL (   18008 calls)
     vloc_psi     :    282.91s CPU    288.52s WALL (   18008 calls)
     add_vuspsi   :      4.91s CPU      4.97s WALL (   18008 calls)

     General routines
     calbec       :     37.22s CPU     37.71s WALL (   32209 calls)
     fft          :      0.51s CPU      0.51s WALL (     413 calls)
     ffts         :      0.03s CPU      0.03s WALL (      41 calls)
     fftw         :    310.81s CPU    316.99s WALL ( 1350422 calls)
     fftc         :   2770.08s CPU   2803.79s WALL ( 5160000 calls)
     fftcw        :     26.88s CPU     27.27s WALL (   77400 calls)

     Parallel routines

     EXX routines
     exx_grid     :      0.04s CPU      0.04s WALL (       1 calls)
     exxinit      :    145.68s CPU    147.20s WALL (       6 calls)
     vexx         :   3118.73s CPU   3157.00s WALL (     258 calls)
     matcalc      :     19.45s CPU     19.67s WALL (   14201 calls)
     aceupdate    :      0.25s CPU      0.25s WALL (     258 calls)
     vexxace      :     23.54s CPU     23.80s WALL (   13470 calls)
     aceinit      :   3119.78s CPU   3158.08s WALL (     258 calls)

     PWSCF        :      1h11m CPU      1h13m WALL


   This run was terminated on:   6:38:19  20May2025            

=------------------------------------------------------------------------------=
   JOB DONE.
=------------------------------------------------------------------------------=
