
     Program PWSCF v.7.3.1 starts on 20May2025 at  6:54:23 

     This program is part of the open-source Quantum ESPRESSO suite
     for quantum simulation of materials; please cite
         "P. Giannozzi et al., J. Phys.:Condens. Matter 21 395502 (2009);
         "P. Giannozzi et al., J. Phys.:Condens. Matter 29 465901 (2017);
         "P. Giannozzi et al., J. Chem. Phys. 152 154105 (2020);
          URL http://www.quantum-espresso.org", 
     in publications or presentations arising from this work. More details at
     http://www.quantum-espresso.org/quote

     Parallel version (MPI & OpenMP), running on     168 processor cores
     Number of MPI processes:               168
     Threads/MPI process:                     1

     MPI processes distributed on     7 nodes
     94437 MiB available memory on the printing compute node when the environment starts

     Waiting for input...
     Reading input from standard input

     Current dimensions of program PWSCF are:
     Max number of different atomic species (ntypx) = 10
     Max number of k-points (npk) =  40000
     Max angular momentum in pseudopotentials (lmaxx) =  4

     IMPORTANT: XC functional enforced from input :
     Exchange-correlation= GAUP
                           (   1   4  20   4   0   0   0)
     EXX-fraction              =        0.24
     Any further DFT definition will be discarded
     Please, verify this is what you really want


     K-points division:     npool     =       2
     R & G space division:  proc/nbgrp/npool/nimage =      84
     Subspace diagonalization in iterative solution of the eigenvalue problem:
     a serial algorithm will be used

     EXX: q-point mesh:     1    1    1
     EXX: setup a grid of 85 q-points centered on each k-point
     (k+q)-points:
   0.0000000   0.0000000   0.0000000         1    1
   0.0000000   0.0932652   0.0000000         2    1
   0.0000000   0.1865304   0.0000000         3    1
   0.0000000   0.2797955   0.0000000         4    1
   0.0000000   0.3730607   0.0000000         5    1
   0.0000000   0.4663259   0.0000000         6    1
   0.0000000   0.5595911   0.0000000         7    1
   0.0769231   0.0444120   0.0000000         8    1
   0.0769231   0.1376772   0.0000000         9    1
   0.0769231   0.2309423   0.0000000        10    1
   0.0769231   0.3242075   0.0000000        11    1
   0.0769231   0.4174727   0.0000000        12    1
   0.0769231   0.5107379   0.0000000        13    1
   0.0769231   0.6040030   0.0000000        14    1
   0.0769231  -0.5151791   0.0000000        15    1
   0.0769231  -0.4219139   0.0000000        16    1
   0.0769231  -0.3286487   0.0000000        17    1
   0.0769231  -0.2353835   0.0000000        18    1
   0.0769231  -0.1421184   0.0000000        19    1
   0.0769231  -0.0488532   0.0000000        20    1
   0.1538462   0.0888240   0.0000000        21    1
   0.1538462   0.1820892   0.0000000        22    1
   0.1538462   0.2753543   0.0000000        23    1
   0.1538462   0.3686195   0.0000000        24    1
   0.1538462   0.4618847   0.0000000        25    1
   0.1538462   0.5551499   0.0000000        26    1
   0.1538462   0.6484150   0.0000000        27    1
   0.1538462  -0.4707671   0.0000000        28    1
   0.1538462  -0.3775019   0.0000000        29    1
   0.1538462  -0.2842367   0.0000000        30    1
   0.1538462  -0.1909716   0.0000000        31    1
   0.1538462  -0.0977064   0.0000000        32    1
   0.1538462  -0.0044412   0.0000000        33    1
   0.2307692   0.1332360   0.0000000        34    1
   0.2307692   0.2265011   0.0000000        35    1
   0.2307692   0.3197663   0.0000000        36    1
   0.2307692   0.4130315   0.0000000        37    1
   0.2307692   0.5062967   0.0000000        38    1
   0.2307692   0.5995618   0.0000000        39    1
   0.2307692   0.6928270   0.0000000        40    1
   0.2307692  -0.4263551   0.0000000        41    1
   0.2307692  -0.3330899   0.0000000        42    1
   0.2307692  -0.2398247   0.0000000        43    1
   0.2307692  -0.1465596   0.0000000        44    1
   0.2307692  -0.0532944   0.0000000        45    1
   0.2307692   0.0399708   0.0000000        46    1
   0.3076923   0.1776480   0.0000000        47    1
   0.3076923   0.2709131   0.0000000        48    1
   0.3076923   0.3641783   0.0000000        49    1
   0.3076923   0.4574435   0.0000000        50    1
   0.3076923   0.5507087   0.0000000        51    1
   0.3076923   0.6439738   0.0000000        52    1
   0.3076923   0.7372390   0.0000000        53    1
   0.3076923  -0.3819431   0.0000000        54    1
   0.3076923  -0.2886779   0.0000000        55    1
   0.3076923  -0.1954128   0.0000000        56    1
   0.3076923  -0.1021476   0.0000000        57    1
   0.3076923  -0.0088824   0.0000000        58    1
   0.3076923   0.0843828   0.0000000        59    1
   0.3846154   0.2220599   0.0000000        60    1
   0.3846154   0.3153251   0.0000000        61    1
   0.3846154   0.4085903   0.0000000        62    1
   0.3846154   0.5018555   0.0000000        63    1
   0.3846154   0.5951206   0.0000000        64    1
   0.3846154   0.6883858   0.0000000        65    1
   0.3846154   0.7816510   0.0000000        66    1
   0.3846154  -0.3375311   0.0000000        67    1
   0.3846154  -0.2442659   0.0000000        68    1
   0.3846154  -0.1510008   0.0000000        69    1
   0.3846154  -0.0577356   0.0000000        70    1
   0.3846154   0.0355296   0.0000000        71    1
   0.3846154   0.1287948   0.0000000        72    1
   0.4615385   0.2664719   0.0000000        73    1
   0.4615385   0.3597371   0.0000000        74    1
   0.4615385   0.4530023   0.0000000        75    1
   0.4615385   0.5462675   0.0000000        76    1
   0.4615385   0.6395326   0.0000000        77    1
   0.4615385   0.7327978   0.0000000        78    1
   0.4615385   0.8260630   0.0000000        79    1
   0.4615385  -0.2931191   0.0000000        80    1
   0.4615385  -0.1998539   0.0000000        81    1
   0.4615385  -0.1065888   0.0000000        82    1
   0.4615385  -0.0133236   0.0000000        83    1
   0.4615385   0.0799416   0.0000000        84    1
   0.4615385   0.1732068   0.0000000        85    1

     Parallelization info
     --------------------
     sticks:   dense  smooth     PW     G-vecs:    dense   smooth      PW
     Min          15      15      4                 2349     2349     358
     Max          16      16      5                 2392     2392     397
     Sum        1343    1343    395               200001   200001   31739

     Using Slab Decomposition



     bravais-lattice index     =            0
     lattice parameter (alat)  =       8.5529  a.u.
     unit-cell volume          =    2526.9262 (a.u.)^3
     number of atoms/cell      =            5
     number of atomic types    =            2
     number of electrons       =        78.00
     number of Kohn-Sham states=          100
     kinetic-energy cutoff     =      70.0000  Ry
     charge density cutoff     =     280.0000  Ry
     cutoff for Fock operator  =     280.0000  Ry
     scf convergence threshold =      1.0E-07
     mixing beta               =       0.7000
     number of iterations used =            8  plain     mixing
     Exchange-correlation= GAUP
                           (   1   4  20   4   0   0   0)
     EXX-fraction              =        0.24

     celldm(1)=   8.552915  celldm(2)=   0.000000  celldm(3)=   0.000000
     celldm(4)=   0.000000  celldm(5)=   0.000000  celldm(6)=   0.000000

     crystal axes: (cart. coord. in units of alat)
               a(1) = (   1.000000   0.000000   0.000000 )  
               a(2) = (  -0.476190   0.824778   0.000000 )  
               a(3) = (   0.000000   0.000000   4.896807 )  

     reciprocal axes: (cart. coord. in units 2 pi/alat)
               b(1) = (  1.000000  0.577356 -0.000000 )  
               b(2) = (  0.000000  1.212447  0.000000 )  
               b(3) = (  0.000000 -0.000000  0.204215 )  


     PseudoPot. # 1 for Sb read from file:
     /zfs-home/202401017n/pseudos/Sb_ONCV_PBE-1.2.upf
     MD5 check sum: 0417cd6c0fe8ce4611e2b23135f1abd9
     Pseudo is Norm-conserving, Zval = 15.0
     Generated using ONCVPSP code by D. R. Hamann
     Using radial grid of  602 points,  6 beta functions with: 
                l(1) =   0
                l(2) =   0
                l(3) =   1
                l(4) =   1
                l(5) =   2
                l(6) =   2

     PseudoPot. # 2 for Te read from file:
     /zfs-home/202401017n/pseudos/Te_ONCV_PBE-1.2.upf
     MD5 check sum: dd4de4dac1e38587f63aaf3700bb29d3
     Pseudo is Norm-conserving, Zval = 16.0
     Generated using ONCVPSP code by D. R. Hamann
     Using radial grid of  602 points,  6 beta functions with: 
                l(1) =   0
                l(2) =   0
                l(3) =   1
                l(4) =   1
                l(5) =   2
                l(6) =   2

     atomic species   valence    mass     pseudopotential
     Sb               15.00   121.76000     Sb( 1.00)
     Te               16.00   127.60000     Te( 1.00)

     No symmetry found


                                    s                        frac. trans.

      isym =  1     identity                                     

 cryst.   s( 1) = (     1          0          0      )
                  (     0          1          0      )
                  (     0          0          1      )

 cart.    s( 1) = (  1.0000000  0.0000000  0.0000000 )
                  (  0.0000000  1.0000000  0.0000000 )
                  (  0.0000000  0.0000000  1.0000000 )


   Cartesian axes

     site n.     atom                  positions (alat units)
         1        Sb     tau(   1) = (   0.5941563   0.4140600   2.8819763  )
         2        Te     tau(   2) = (   0.5757813   0.3831770   1.6487259  )
         3        Sb     tau(   3) = (   0.0713597   0.1150985   2.0147862  )
         4        Te     tau(   4) = (   0.0896521   0.1461334   3.2480478  )
         5        Te     tau(   5) = (   0.0946223   0.6770376   2.4483865  )

     -------------------------------------------------
     Parameters for Dispersion (Grimme-D2) Correction:
     -------------------------------------------------
       atom      VdW radius       C_6     

        Sb         3.555       1333.532
        Te         3.575       1101.101

   Crystallographic axes

     site n.     atom                  positions (cryst. coord.)
         1        Sb     tau(   1) = (  0.8332162  0.5020259  0.5885420  )
         2        Te     tau(   2) = (  0.7970108  0.4645820  0.3366941  )
         3        Sb     tau(   3) = (  0.1378125  0.1395508  0.4114490  )
         4        Te     tau(   4) = (  0.1740231  0.1771791  0.6632992  )
         5        Te     tau(   5) = (  0.4855140  0.8208724  0.4999966  )

     number of k points=    85
                       cart. coord. in units 2pi/alat
        k(    1) = (   0.0000000   0.0000000   0.0000000), wk =   0.0118343
        k(    2) = (   0.0000000   0.0932652   0.0000000), wk =   0.0236686
        k(    3) = (   0.0000000   0.1865304   0.0000000), wk =   0.0236686
        k(    4) = (   0.0000000   0.2797955   0.0000000), wk =   0.0236686
        k(    5) = (   0.0000000   0.3730607   0.0000000), wk =   0.0236686
        k(    6) = (   0.0000000   0.4663259   0.0000000), wk =   0.0236686
        k(    7) = (   0.0000000   0.5595911   0.0000000), wk =   0.0236686
        k(    8) = (   0.0769231   0.0444120   0.0000000), wk =   0.0236686
        k(    9) = (   0.0769231   0.1376772   0.0000000), wk =   0.0236686
        k(   10) = (   0.0769231   0.2309423   0.0000000), wk =   0.0236686
        k(   11) = (   0.0769231   0.3242075   0.0000000), wk =   0.0236686
        k(   12) = (   0.0769231   0.4174727   0.0000000), wk =   0.0236686
        k(   13) = (   0.0769231   0.5107379   0.0000000), wk =   0.0236686
        k(   14) = (   0.0769231   0.6040030   0.0000000), wk =   0.0236686
        k(   15) = (   0.0769231  -0.5151791   0.0000000), wk =   0.0236686
        k(   16) = (   0.0769231  -0.4219139   0.0000000), wk =   0.0236686
        k(   17) = (   0.0769231  -0.3286487   0.0000000), wk =   0.0236686
        k(   18) = (   0.0769231  -0.2353835   0.0000000), wk =   0.0236686
        k(   19) = (   0.0769231  -0.1421184   0.0000000), wk =   0.0236686
        k(   20) = (   0.0769231  -0.0488532   0.0000000), wk =   0.0236686
        k(   21) = (   0.1538462   0.0888240   0.0000000), wk =   0.0236686
        k(   22) = (   0.1538462   0.1820892   0.0000000), wk =   0.0236686
        k(   23) = (   0.1538462   0.2753543   0.0000000), wk =   0.0236686
        k(   24) = (   0.1538462   0.3686195   0.0000000), wk =   0.0236686
        k(   25) = (   0.1538462   0.4618847   0.0000000), wk =   0.0236686
        k(   26) = (   0.1538462   0.5551499   0.0000000), wk =   0.0236686
        k(   27) = (   0.1538462   0.6484150   0.0000000), wk =   0.0236686
        k(   28) = (   0.1538462  -0.4707671   0.0000000), wk =   0.0236686
        k(   29) = (   0.1538462  -0.3775019   0.0000000), wk =   0.0236686
        k(   30) = (   0.1538462  -0.2842367   0.0000000), wk =   0.0236686
        k(   31) = (   0.1538462  -0.1909716   0.0000000), wk =   0.0236686
        k(   32) = (   0.1538462  -0.0977064   0.0000000), wk =   0.0236686
        k(   33) = (   0.1538462  -0.0044412   0.0000000), wk =   0.0236686
        k(   34) = (   0.2307692   0.1332360   0.0000000), wk =   0.0236686
        k(   35) = (   0.2307692   0.2265011   0.0000000), wk =   0.0236686
        k(   36) = (   0.2307692   0.3197663   0.0000000), wk =   0.0236686
        k(   37) = (   0.2307692   0.4130315   0.0000000), wk =   0.0236686
        k(   38) = (   0.2307692   0.5062967   0.0000000), wk =   0.0236686
        k(   39) = (   0.2307692   0.5995618   0.0000000), wk =   0.0236686
        k(   40) = (   0.2307692   0.6928270   0.0000000), wk =   0.0236686
        k(   41) = (   0.2307692  -0.4263551   0.0000000), wk =   0.0236686
        k(   42) = (   0.2307692  -0.3330899   0.0000000), wk =   0.0236686
        k(   43) = (   0.2307692  -0.2398247   0.0000000), wk =   0.0236686
        k(   44) = (   0.2307692  -0.1465596   0.0000000), wk =   0.0236686
        k(   45) = (   0.2307692  -0.0532944   0.0000000), wk =   0.0236686
        k(   46) = (   0.2307692   0.0399708   0.0000000), wk =   0.0236686
        k(   47) = (   0.3076923   0.1776480   0.0000000), wk =   0.0236686
        k(   48) = (   0.3076923   0.2709131   0.0000000), wk =   0.0236686
        k(   49) = (   0.3076923   0.3641783   0.0000000), wk =   0.0236686
        k(   50) = (   0.3076923   0.4574435   0.0000000), wk =   0.0236686
        k(   51) = (   0.3076923   0.5507087   0.0000000), wk =   0.0236686
        k(   52) = (   0.3076923   0.6439738   0.0000000), wk =   0.0236686
        k(   53) = (   0.3076923   0.7372390   0.0000000), wk =   0.0236686
        k(   54) = (   0.3076923  -0.3819431   0.0000000), wk =   0.0236686
        k(   55) = (   0.3076923  -0.2886779   0.0000000), wk =   0.0236686
        k(   56) = (   0.3076923  -0.1954128   0.0000000), wk =   0.0236686
        k(   57) = (   0.3076923  -0.1021476   0.0000000), wk =   0.0236686
        k(   58) = (   0.3076923  -0.0088824   0.0000000), wk =   0.0236686
        k(   59) = (   0.3076923   0.0843828   0.0000000), wk =   0.0236686
        k(   60) = (   0.3846154   0.2220599   0.0000000), wk =   0.0236686
        k(   61) = (   0.3846154   0.3153251   0.0000000), wk =   0.0236686
        k(   62) = (   0.3846154   0.4085903   0.0000000), wk =   0.0236686
        k(   63) = (   0.3846154   0.5018555   0.0000000), wk =   0.0236686
        k(   64) = (   0.3846154   0.5951206   0.0000000), wk =   0.0236686
        k(   65) = (   0.3846154   0.6883858   0.0000000), wk =   0.0236686
        k(   66) = (   0.3846154   0.7816510   0.0000000), wk =   0.0236686
        k(   67) = (   0.3846154  -0.3375311   0.0000000), wk =   0.0236686
        k(   68) = (   0.3846154  -0.2442659   0.0000000), wk =   0.0236686
        k(   69) = (   0.3846154  -0.1510008   0.0000000), wk =   0.0236686
        k(   70) = (   0.3846154  -0.0577356   0.0000000), wk =   0.0236686
        k(   71) = (   0.3846154   0.0355296   0.0000000), wk =   0.0236686
        k(   72) = (   0.3846154   0.1287948   0.0000000), wk =   0.0236686
        k(   73) = (   0.4615385   0.2664719   0.0000000), wk =   0.0236686
        k(   74) = (   0.4615385   0.3597371   0.0000000), wk =   0.0236686
        k(   75) = (   0.4615385   0.4530023   0.0000000), wk =   0.0236686
        k(   76) = (   0.4615385   0.5462675   0.0000000), wk =   0.0236686
        k(   77) = (   0.4615385   0.6395326   0.0000000), wk =   0.0236686
        k(   78) = (   0.4615385   0.7327978   0.0000000), wk =   0.0236686
        k(   79) = (   0.4615385   0.8260630   0.0000000), wk =   0.0236686
        k(   80) = (   0.4615385  -0.2931191   0.0000000), wk =   0.0236686
        k(   81) = (   0.4615385  -0.1998539   0.0000000), wk =   0.0236686
        k(   82) = (   0.4615385  -0.1065888   0.0000000), wk =   0.0236686
        k(   83) = (   0.4615385  -0.0133236   0.0000000), wk =   0.0236686
        k(   84) = (   0.4615385   0.0799416   0.0000000), wk =   0.0236686
        k(   85) = (   0.4615385   0.1732068   0.0000000), wk =   0.0236686

                       cryst. coord.
        k(    1) = (   0.0000000   0.0000000   0.0000000), wk =   0.0118343
        k(    2) = (   0.0000000   0.0769231   0.0000000), wk =   0.0236686
        k(    3) = (   0.0000000   0.1538462   0.0000000), wk =   0.0236686
        k(    4) = (   0.0000000   0.2307692   0.0000000), wk =   0.0236686
        k(    5) = (   0.0000000   0.3076923   0.0000000), wk =   0.0236686
        k(    6) = (   0.0000000   0.3846154   0.0000000), wk =   0.0236686
        k(    7) = (   0.0000000   0.4615385   0.0000000), wk =   0.0236686
        k(    8) = (   0.0769231   0.0000000   0.0000000), wk =   0.0236686
        k(    9) = (   0.0769231   0.0769231   0.0000000), wk =   0.0236686
        k(   10) = (   0.0769231   0.1538462   0.0000000), wk =   0.0236686
        k(   11) = (   0.0769231   0.2307692   0.0000000), wk =   0.0236686
        k(   12) = (   0.0769231   0.3076923   0.0000000), wk =   0.0236686
        k(   13) = (   0.0769231   0.3846154   0.0000000), wk =   0.0236686
        k(   14) = (   0.0769231   0.4615385   0.0000000), wk =   0.0236686
        k(   15) = (   0.0769231  -0.4615385   0.0000000), wk =   0.0236686
        k(   16) = (   0.0769231  -0.3846154   0.0000000), wk =   0.0236686
        k(   17) = (   0.0769231  -0.3076923   0.0000000), wk =   0.0236686
        k(   18) = (   0.0769231  -0.2307692   0.0000000), wk =   0.0236686
        k(   19) = (   0.0769231  -0.1538462   0.0000000), wk =   0.0236686
        k(   20) = (   0.0769231  -0.0769231   0.0000000), wk =   0.0236686
        k(   21) = (   0.1538462   0.0000000   0.0000000), wk =   0.0236686
        k(   22) = (   0.1538462   0.0769231   0.0000000), wk =   0.0236686
        k(   23) = (   0.1538462   0.1538462   0.0000000), wk =   0.0236686
        k(   24) = (   0.1538462   0.2307692   0.0000000), wk =   0.0236686
        k(   25) = (   0.1538462   0.3076923   0.0000000), wk =   0.0236686
        k(   26) = (   0.1538462   0.3846154   0.0000000), wk =   0.0236686
        k(   27) = (   0.1538462   0.4615385   0.0000000), wk =   0.0236686
        k(   28) = (   0.1538462  -0.4615385   0.0000000), wk =   0.0236686
        k(   29) = (   0.1538462  -0.3846154   0.0000000), wk =   0.0236686
        k(   30) = (   0.1538462  -0.3076923   0.0000000), wk =   0.0236686
        k(   31) = (   0.1538462  -0.2307692   0.0000000), wk =   0.0236686
        k(   32) = (   0.1538462  -0.1538462   0.0000000), wk =   0.0236686
        k(   33) = (   0.1538462  -0.0769231   0.0000000), wk =   0.0236686
        k(   34) = (   0.2307692  -0.0000000   0.0000000), wk =   0.0236686
        k(   35) = (   0.2307692   0.0769231   0.0000000), wk =   0.0236686
        k(   36) = (   0.2307692   0.1538462   0.0000000), wk =   0.0236686
        k(   37) = (   0.2307692   0.2307692   0.0000000), wk =   0.0236686
        k(   38) = (   0.2307692   0.3076923   0.0000000), wk =   0.0236686
        k(   39) = (   0.2307692   0.3846154   0.0000000), wk =   0.0236686
        k(   40) = (   0.2307692   0.4615385   0.0000000), wk =   0.0236686
        k(   41) = (   0.2307692  -0.4615385   0.0000000), wk =   0.0236686
        k(   42) = (   0.2307692  -0.3846154   0.0000000), wk =   0.0236686
        k(   43) = (   0.2307692  -0.3076923   0.0000000), wk =   0.0236686
        k(   44) = (   0.2307692  -0.2307692   0.0000000), wk =   0.0236686
        k(   45) = (   0.2307692  -0.1538462   0.0000000), wk =   0.0236686
        k(   46) = (   0.2307692  -0.0769231   0.0000000), wk =   0.0236686
        k(   47) = (   0.3076923   0.0000000   0.0000000), wk =   0.0236686
        k(   48) = (   0.3076923   0.0769231   0.0000000), wk =   0.0236686
        k(   49) = (   0.3076923   0.1538462   0.0000000), wk =   0.0236686
        k(   50) = (   0.3076923   0.2307692   0.0000000), wk =   0.0236686
        k(   51) = (   0.3076923   0.3076923   0.0000000), wk =   0.0236686
        k(   52) = (   0.3076923   0.3846154   0.0000000), wk =   0.0236686
        k(   53) = (   0.3076923   0.4615385   0.0000000), wk =   0.0236686
        k(   54) = (   0.3076923  -0.4615385   0.0000000), wk =   0.0236686
        k(   55) = (   0.3076923  -0.3846154   0.0000000), wk =   0.0236686
        k(   56) = (   0.3076923  -0.3076923   0.0000000), wk =   0.0236686
        k(   57) = (   0.3076923  -0.2307692   0.0000000), wk =   0.0236686
        k(   58) = (   0.3076923  -0.1538462   0.0000000), wk =   0.0236686
        k(   59) = (   0.3076923  -0.0769231   0.0000000), wk =   0.0236686
        k(   60) = (   0.3846154   0.0000000   0.0000000), wk =   0.0236686
        k(   61) = (   0.3846154   0.0769231   0.0000000), wk =   0.0236686
        k(   62) = (   0.3846154   0.1538462   0.0000000), wk =   0.0236686
        k(   63) = (   0.3846154   0.2307692   0.0000000), wk =   0.0236686
        k(   64) = (   0.3846154   0.3076923   0.0000000), wk =   0.0236686
        k(   65) = (   0.3846154   0.3846154   0.0000000), wk =   0.0236686
        k(   66) = (   0.3846154   0.4615385   0.0000000), wk =   0.0236686
        k(   67) = (   0.3846154  -0.4615385   0.0000000), wk =   0.0236686
        k(   68) = (   0.3846154  -0.3846154   0.0000000), wk =   0.0236686
        k(   69) = (   0.3846154  -0.3076923   0.0000000), wk =   0.0236686
        k(   70) = (   0.3846154  -0.2307692   0.0000000), wk =   0.0236686
        k(   71) = (   0.3846154  -0.1538462   0.0000000), wk =   0.0236686
        k(   72) = (   0.3846154  -0.0769231   0.0000000), wk =   0.0236686
        k(   73) = (   0.4615385  -0.0000000   0.0000000), wk =   0.0236686
        k(   74) = (   0.4615385   0.0769231   0.0000000), wk =   0.0236686
        k(   75) = (   0.4615385   0.1538462   0.0000000), wk =   0.0236686
        k(   76) = (   0.4615385   0.2307692   0.0000000), wk =   0.0236686
        k(   77) = (   0.4615385   0.3076923   0.0000000), wk =   0.0236686
        k(   78) = (   0.4615385   0.3846154   0.0000000), wk =   0.0236686
        k(   79) = (   0.4615385   0.4615385   0.0000000), wk =   0.0236686
        k(   80) = (   0.4615385  -0.4615385   0.0000000), wk =   0.0236686
        k(   81) = (   0.4615385  -0.3846154   0.0000000), wk =   0.0236686
        k(   82) = (   0.4615385  -0.3076923   0.0000000), wk =   0.0236686
        k(   83) = (   0.4615385  -0.2307692   0.0000000), wk =   0.0236686
        k(   84) = (   0.4615385  -0.1538462   0.0000000), wk =   0.0236686
        k(   85) = (   0.4615385  -0.0769231   0.0000000), wk =   0.0236686

     Dense  grid:   200001 G-vectors     FFT dimensions: (  45,  45, 225)

     Dynamical RAM for                 wfc:       0.45 MB

     Dynamical RAM for     wfc (w. buffer):      19.94 MB

     Dynamical RAM for                 EXX:     649.21 MB

     Dynamical RAM for           str. fact:       0.07 MB

     Dynamical RAM for           local pot:       0.00 MB

     Dynamical RAM for          nlocal pot:       0.41 MB

     Dynamical RAM for                qrad:       2.85 MB

     Dynamical RAM for          rho,v,vnew:       0.25 MB

     Dynamical RAM for               rhoin:       0.08 MB

     Dynamical RAM for            rho*nmix:       0.58 MB

     Dynamical RAM for           G-vectors:       0.15 MB

     Dynamical RAM for          h,s,v(r/c):       1.83 MB

     Dynamical RAM for          <psi|beta>:       0.14 MB

     Dynamical RAM for                 psi:       0.91 MB

     Dynamical RAM for                hpsi:       0.91 MB

     Dynamical RAM for      wfcinit/wfcrot:       1.14 MB

     Estimated static dynamical RAM per process >     673.30 MB

     Estimated max dynamical RAM per process >     677.66 MB

     Estimated total dynamical RAM >     111.13 GB
     EXX: ACE will be initialized later

     Initial potential from superposition of free atoms

     starting charge      77.7638, renormalised to      78.0000

     negative rho (up, down):  6.675E-04 0.000E+00
     Starting wfcs are random

     total cpu time spent up to now is        3.4 secs

     Self-consistent Calculation

     iteration #  1     ecut=    70.00 Ry     beta= 0.70
     Davidson diagonalization with overlap

---- Real-time Memory Report at c_bands before calling an iterative solver
           209 MiB given to the printing process from OS
             0 MiB allocation reported by mallinfo(arena+hblkhd)
         93772 MiB available memory on the node where the printing process lives
------------------
     ethr =  1.00E-02,  avg # of iterations =  9.1

     Threshold (ethr) on eigenvalues was too large:
     Diagonalizing with lowered threshold

     Davidson diagonalization with overlap

---- Real-time Memory Report at c_bands before calling an iterative solver
           214 MiB given to the printing process from OS
             0 MiB allocation reported by mallinfo(arena+hblkhd)
         93676 MiB available memory on the node where the printing process lives
------------------
     ethr =  1.32E-04,  avg # of iterations = 10.1

     negative rho (up, down):  5.551E-05 0.000E+00

     total cpu time spent up to now is       53.9 secs

     total energy              =    -806.57217076 Ry
     estimated scf accuracy    <       0.09039829 Ry

     iteration #  2     ecut=    70.00 Ry     beta= 0.70
     Davidson diagonalization with overlap

---- Real-time Memory Report at c_bands before calling an iterative solver
           215 MiB given to the printing process from OS
             0 MiB allocation reported by mallinfo(arena+hblkhd)
         93673 MiB available memory on the node where the printing process lives
------------------
     ethr =  1.16E-04,  avg # of iterations = 10.2

     negative rho (up, down):  4.534E-05 0.000E+00

     total cpu time spent up to now is       73.5 secs

     total energy              =    -806.50162801 Ry
     estimated scf accuracy    <       0.63972481 Ry

     iteration #  3     ecut=    70.00 Ry     beta= 0.70
     Davidson diagonalization with overlap

---- Real-time Memory Report at c_bands before calling an iterative solver
           215 MiB given to the printing process from OS
             0 MiB allocation reported by mallinfo(arena+hblkhd)
         93663 MiB available memory on the node where the printing process lives
------------------
     c_bands:  1 eigenvalues not converged
     c_bands:  1 eigenvalues not converged
     c_bands:  1 eigenvalues not converged
     ethr =  1.16E-04,  avg # of iterations = 11.8

     negative rho (up, down):  2.765E-05 0.000E+00

     total cpu time spent up to now is       93.8 secs

     total energy              =    -806.58442883 Ry
     estimated scf accuracy    <       0.26377993 Ry

     iteration #  4     ecut=    70.00 Ry     beta= 0.70
     Davidson diagonalization with overlap

---- Real-time Memory Report at c_bands before calling an iterative solver
           216 MiB given to the printing process from OS
             0 MiB allocation reported by mallinfo(arena+hblkhd)
         93661 MiB available memory on the node where the printing process lives
------------------
     ethr =  1.16E-04,  avg # of iterations =  6.3

     negative rho (up, down):  3.376E-06 0.000E+00

     total cpu time spent up to now is      108.3 secs

     total energy              =    -806.61212697 Ry
     estimated scf accuracy    <       0.00233319 Ry

     iteration #  5     ecut=    70.00 Ry     beta= 0.70
     Davidson diagonalization with overlap

---- Real-time Memory Report at c_bands before calling an iterative solver
           216 MiB given to the printing process from OS
             0 MiB allocation reported by mallinfo(arena+hblkhd)
         93659 MiB available memory on the node where the printing process lives
------------------
     c_bands:  1 eigenvalues not converged
     ethr =  2.99E-06,  avg # of iterations =  8.8

     negative rho (up, down):  2.362E-06 0.000E+00

     total cpu time spent up to now is      127.0 secs

     total energy              =    -806.61203811 Ry
     estimated scf accuracy    <       0.00241919 Ry

     iteration #  6     ecut=    70.00 Ry     beta= 0.70
     Davidson diagonalization with overlap

---- Real-time Memory Report at c_bands before calling an iterative solver
           216 MiB given to the printing process from OS
             0 MiB allocation reported by mallinfo(arena+hblkhd)
         93657 MiB available memory on the node where the printing process lives
------------------
     ethr =  2.99E-06,  avg # of iterations =  8.2

     total cpu time spent up to now is      142.5 secs

     total energy              =    -806.61223857 Ry
     estimated scf accuracy    <       0.00507121 Ry

     iteration #  7     ecut=    70.00 Ry     beta= 0.70
     Davidson diagonalization with overlap

---- Real-time Memory Report at c_bands before calling an iterative solver
           216 MiB given to the printing process from OS
             0 MiB allocation reported by mallinfo(arena+hblkhd)
         93653 MiB available memory on the node where the printing process lives
------------------
     ethr =  2.99E-06,  avg # of iterations =  6.2

     total cpu time spent up to now is      155.3 secs

     total energy              =    -806.61251749 Ry
     estimated scf accuracy    <       0.00000804 Ry

     iteration #  8     ecut=    70.00 Ry     beta= 0.70
     Davidson diagonalization with overlap

---- Real-time Memory Report at c_bands before calling an iterative solver
           216 MiB given to the printing process from OS
             0 MiB allocation reported by mallinfo(arena+hblkhd)
         93651 MiB available memory on the node where the printing process lives
------------------
     c_bands:  1 eigenvalues not converged
     c_bands:  1 eigenvalues not converged
     ethr =  1.03E-08,  avg # of iterations = 13.2

     total cpu time spent up to now is      178.0 secs

     total energy              =    -806.61251906 Ry
     estimated scf accuracy    <       0.00000040 Ry

     iteration #  9     ecut=    70.00 Ry     beta= 0.70
     Davidson diagonalization with overlap

---- Real-time Memory Report at c_bands before calling an iterative solver
           216 MiB given to the printing process from OS
             0 MiB allocation reported by mallinfo(arena+hblkhd)
         93649 MiB available memory on the node where the printing process lives
------------------
     c_bands:  1 eigenvalues not converged
     ethr =  5.08E-10,  avg # of iterations =  9.4

     total cpu time spent up to now is      196.4 secs

     total energy              =    -806.61251908 Ry
     estimated scf accuracy    <       0.00000082 Ry

     iteration # 10     ecut=    70.00 Ry     beta= 0.70
     Davidson diagonalization with overlap

---- Real-time Memory Report at c_bands before calling an iterative solver
           217 MiB given to the printing process from OS
             0 MiB allocation reported by mallinfo(arena+hblkhd)
         93647 MiB available memory on the node where the printing process lives
------------------
     ethr =  5.08E-10,  avg # of iterations =  5.7

     total cpu time spent up to now is      210.9 secs

     End of self-consistent calculation

          k = 0.0000 0.0000 0.0000 ( 24991 PWs)   bands (ev):

   -34.9028 -34.9026 -34.9023 -34.9021 -34.8667 -34.8666 -34.8587 -34.8584
   -34.8488 -34.8486 -34.8010 -34.7985 -34.7811 -34.7612 -34.7586 -27.6948
   -27.6945 -27.6931 -27.6928 -27.6876 -27.6873 -27.6827 -27.6826 -27.6793
   -27.6790 -10.7844 -10.2402  -9.1722  -6.4503  -5.1404  -0.3968  -0.1772
    -0.0424   0.1183   0.2411   0.5597   0.5737   0.7715   1.0038   1.8319
     2.4709   2.6421   3.2900   3.6210   3.7242   6.0530   6.2306   6.8846
     7.0527   7.3946   7.7233   8.1686   8.3774   8.4310   8.5007   9.0874
     9.2753   9.5123   9.8727   9.9015  10.3621  10.6581  11.1852  11.2303
    11.3597  11.5476  12.6680  12.7029  13.4509  13.7525  14.0187  14.0706
    14.3058  14.8586  15.2192  15.5488  15.7699  15.9029  15.9337  16.1643
    16.4561  16.4644  16.5898  16.6458  16.7769  16.9539  17.0070  17.1008
    17.2503  17.3796  17.4420  17.6022  17.6903  17.8994  18.4461  18.4759
    18.5831  18.7776  18.9789  19.0404

     occupation numbers 
     1.0000   1.0000   1.0000   1.0000   1.0000   1.0000   1.0000   1.0000
     1.0000   1.0000   1.0000   1.0000   1.0000   1.0000   1.0000   1.0000
     1.0000   1.0000   1.0000   1.0000   1.0000   1.0000   1.0000   1.0000
     1.0000   1.0000   1.0000   1.0000   1.0000   1.0000   1.0000   1.0000
     1.0000   1.0000   1.0000   1.0000   1.0000   1.0000   1.0000   0.0000
     0.0000   0.0000   0.0000   0.0000   0.0000   0.0000   0.0000   0.0000
     0.0000   0.0000   0.0000   0.0000   0.0000   0.0000   0.0000   0.0000
     0.0000   0.0000   0.0000   0.0000   0.0000   0.0000   0.0000   0.0000
     0.0000   0.0000   0.0000   0.0000   0.0000   0.0000   0.0000   0.0000
     0.0000   0.0000   0.0000   0.0000   0.0000   0.0000   0.0000   0.0000
     0.0000   0.0000   0.0000   0.0000   0.0000   0.0000   0.0000   0.0000
     0.0000   0.0000   0.0000   0.0000   0.0000   0.0000   0.0000   0.0000
     0.0000   0.0000   0.0000   0.0000

          k = 0.0000 0.0933 0.0000 ( 24962 PWs)   bands (ev):

   -34.9028 -34.9026 -34.9022 -34.9020 -34.8667 -34.8666 -34.8587 -34.8585
   -34.8488 -34.8486 -34.8010 -34.7985 -34.7811 -34.7612 -34.7586 -27.6948
   -27.6946 -27.6929 -27.6926 -27.6875 -27.6872 -27.6827 -27.6825 -27.6795
   -27.6792 -10.7332 -10.1934  -9.1446  -6.4606  -5.2258  -0.6054  -0.4815
    -0.1617  -0.0961  -0.0266   0.2724   0.6605   0.9165   1.3189   1.9775
     2.5515   2.7289   3.3432   3.6934   3.9876   6.1386   6.2513   6.8539
     7.1501   7.3382   7.4230   8.2688   8.3272   8.4556   8.6340   9.1199
     9.4814   9.5068  10.1205  10.1540  10.5264  10.6022  10.8353  11.3954
    11.6656  12.0223  12.6871  12.8910  13.1331  13.3385  13.9649  14.1409
    14.6257  14.8854  14.9407  15.2138  15.6822  15.8123  15.9427  15.9983
    16.0591  16.1468  16.2967  16.4408  16.5389  16.7169  17.0192  17.3539
    17.5410  17.7160  17.7688  17.8887  18.0060  18.0711  18.1555  18.2805
    18.4267  18.5892  19.0575  19.3310

     occupation numbers 
     1.0000   1.0000   1.0000   1.0000   1.0000   1.0000   1.0000   1.0000
     1.0000   1.0000   1.0000   1.0000   1.0000   1.0000   1.0000   1.0000
     1.0000   1.0000   1.0000   1.0000   1.0000   1.0000   1.0000   1.0000
     1.0000   1.0000   1.0000   1.0000   1.0000   1.0000   1.0000   1.0000
     1.0000   1.0000   1.0000   1.0000   1.0000   1.0000   1.0000   0.0000
     0.0000   0.0000   0.0000   0.0000   0.0000   0.0000   0.0000   0.0000
     0.0000   0.0000   0.0000   0.0000   0.0000   0.0000   0.0000   0.0000
     0.0000   0.0000   0.0000   0.0000   0.0000   0.0000   0.0000   0.0000
     0.0000   0.0000   0.0000   0.0000   0.0000   0.0000   0.0000   0.0000
     0.0000   0.0000   0.0000   0.0000   0.0000   0.0000   0.0000   0.0000
     0.0000   0.0000   0.0000   0.0000   0.0000   0.0000   0.0000   0.0000
     0.0000   0.0000   0.0000   0.0000   0.0000   0.0000   0.0000   0.0000
     0.0000   0.0000   0.0000   0.0000

          k = 0.0000 0.1865 0.0000 ( 24964 PWs)   bands (ev):

   -34.9028 -34.9026 -34.9020 -34.9018 -34.8667 -34.8666 -34.8587 -34.8585
   -34.8487 -34.8485 -34.8010 -34.7985 -34.7811 -34.7610 -34.7584 -27.6950
   -27.6947 -27.6923 -27.6920 -27.6872 -27.6870 -27.6828 -27.6824 -27.6800
   -27.6796 -10.5813 -10.0556  -9.0673  -6.5040  -5.4767  -1.3111  -0.8274
    -0.6353  -0.4607  -0.3115   0.0608   0.7056   0.9307   1.3467   2.2418
     2.7721   3.1399   3.5108   3.9686   4.4604   6.2023   6.3657   6.6590
     7.1289   7.4895   7.5583   8.1832   8.4966   8.5599   8.6921   9.3753
     9.5004   9.7154  10.3147  10.5607  10.8721  11.0069  11.4790  11.6726
    11.9996  12.1105  12.6604  13.0143  13.1645  13.3933  13.7937  13.8974
    14.3948  14.4779  14.6626  14.8920  15.2159  15.3081  15.5136  15.5823
    15.7170  15.8627  16.3880  16.5393  16.6953  16.9502  17.0552  17.2498
    17.4484  17.5755  17.7035  17.8867  18.1307  18.3652  18.5502  18.8761
    19.0876  19.1959  19.2599  19.5362

     occupation numbers 
     1.0000   1.0000   1.0000   1.0000   1.0000   1.0000   1.0000   1.0000
     1.0000   1.0000   1.0000   1.0000   1.0000   1.0000   1.0000   1.0000
     1.0000   1.0000   1.0000   1.0000   1.0000   1.0000   1.0000   1.0000
     1.0000   1.0000   1.0000   1.0000   1.0000   1.0000   1.0000   1.0000
     1.0000   1.0000   1.0000   1.0000   1.0000   1.0000   1.0000   0.0000
     0.0000   0.0000   0.0000   0.0000   0.0000   0.0000   0.0000   0.0000
     0.0000   0.0000   0.0000   0.0000   0.0000   0.0000   0.0000   0.0000
     0.0000   0.0000   0.0000   0.0000   0.0000   0.0000   0.0000   0.0000
     0.0000   0.0000   0.0000   0.0000   0.0000   0.0000   0.0000   0.0000
     0.0000   0.0000   0.0000   0.0000   0.0000   0.0000   0.0000   0.0000
     0.0000   0.0000   0.0000   0.0000   0.0000   0.0000   0.0000   0.0000
     0.0000   0.0000   0.0000   0.0000   0.0000   0.0000   0.0000   0.0000
     0.0000   0.0000   0.0000   0.0000

          k = 0.0000 0.2798 0.0000 ( 25021 PWs)   bands (ev):

   -34.9028 -34.9026 -34.9017 -34.9015 -34.8667 -34.8666 -34.8588 -34.8586
   -34.8485 -34.8483 -34.8009 -34.7985 -34.7812 -34.7609 -34.7583 -27.6952
   -27.6949 -27.6914 -27.6912 -27.6869 -27.6866 -27.6828 -27.6823 -27.6806
   -27.6802 -10.3343  -9.8360  -8.9581  -6.6152  -5.8639  -2.0100  -1.1917
    -1.1718  -0.7627  -0.5914   0.0569   0.3944   0.6655   1.3908   2.3638
     2.9645   3.4910   3.8886   4.2774   4.9425   5.8576   6.6132   6.8453
     7.3198   7.8112   8.0448   8.1902   8.4808   8.6672   9.1015   9.6675
     9.8520   9.9015  10.3967  11.0108  11.4008  11.4456  11.8566  11.9293
    12.1777  12.3434  12.8625  13.0638  13.1850  13.4649  13.5034  13.7627
    14.0782  14.1644  14.5307  14.8392  14.9901  15.0096  15.1896  15.2710
    15.6078  15.9532  16.1242  16.3147  16.7917  16.9360  16.9851  17.0088
    17.1949  17.4339  17.8518  17.9473  18.1595  18.3267  18.4160  18.5017
    18.7895  19.2092  19.2743  19.4739

     occupation numbers 
     1.0000   1.0000   1.0000   1.0000   1.0000   1.0000   1.0000   1.0000
     1.0000   1.0000   1.0000   1.0000   1.0000   1.0000   1.0000   1.0000
     1.0000   1.0000   1.0000   1.0000   1.0000   1.0000   1.0000   1.0000
     1.0000   1.0000   1.0000   1.0000   1.0000   1.0000   1.0000   1.0000
     1.0000   1.0000   1.0000   1.0000   1.0000   1.0000   1.0000   0.0000
     0.0000   0.0000   0.0000   0.0000   0.0000   0.0000   0.0000   0.0000
     0.0000   0.0000   0.0000   0.0000   0.0000   0.0000   0.0000   0.0000
     0.0000   0.0000   0.0000   0.0000   0.0000   0.0000   0.0000   0.0000
     0.0000   0.0000   0.0000   0.0000   0.0000   0.0000   0.0000   0.0000
     0.0000   0.0000   0.0000   0.0000   0.0000   0.0000   0.0000   0.0000
     0.0000   0.0000   0.0000   0.0000   0.0000   0.0000   0.0000   0.0000
     0.0000   0.0000   0.0000   0.0000   0.0000   0.0000   0.0000   0.0000
     0.0000   0.0000   0.0000   0.0000

          k = 0.0000 0.3731 0.0000 ( 25054 PWs)   bands (ev):

   -34.9028 -34.9026 -34.9014 -34.9012 -34.8668 -34.8667 -34.8589 -34.8586
   -34.8483 -34.8482 -34.8008 -34.7986 -34.7813 -34.7607 -34.7581 -27.6954
   -27.6951 -27.6906 -27.6903 -27.6865 -27.6863 -27.6828 -27.6822 -27.6813
   -27.6808 -10.0043  -9.5550  -8.8523  -6.8358  -6.3098  -2.5668  -1.5995
    -1.4701  -0.9778  -0.8359  -0.2093   0.2715   0.5718   1.1047   2.4436
     3.1035   3.6245   4.0896   4.5726   5.4063   5.5209   6.9255   7.1722
     7.6939   8.0447   8.3399   8.7004   8.8694   9.1404   9.6776   9.8216
    10.0999  10.3658  10.4987  10.9310  11.4938  11.5198  11.9316  12.0926
    12.4909  12.5619  12.5800  12.9198  13.1387  13.7003  13.8557  14.0844
    14.3075  14.3952  14.5158  14.5970  14.7127  14.9084  14.9615  15.2675
    15.4987  15.8770  16.0558  16.2300  16.3624  16.4606  16.6404  16.6992
    16.8785  16.9412  17.1963  17.3514  17.6937  17.8812  18.0784  18.1852
    18.6307  19.0242  19.3038  19.5331

     occupation numbers 
     1.0000   1.0000   1.0000   1.0000   1.0000   1.0000   1.0000   1.0000
     1.0000   1.0000   1.0000   1.0000   1.0000   1.0000   1.0000   1.0000
     1.0000   1.0000   1.0000   1.0000   1.0000   1.0000   1.0000   1.0000
     1.0000   1.0000   1.0000   1.0000   1.0000   1.0000   1.0000   1.0000
     1.0000   1.0000   1.0000   1.0000   1.0000   1.0000   1.0000   0.0000
     0.0000   0.0000   0.0000   0.0000   0.0000   0.0000   0.0000   0.0000
     0.0000   0.0000   0.0000   0.0000   0.0000   0.0000   0.0000   0.0000
     0.0000   0.0000   0.0000   0.0000   0.0000   0.0000   0.0000   0.0000
     0.0000   0.0000   0.0000   0.0000   0.0000   0.0000   0.0000   0.0000
     0.0000   0.0000   0.0000   0.0000   0.0000   0.0000   0.0000   0.0000
     0.0000   0.0000   0.0000   0.0000   0.0000   0.0000   0.0000   0.0000
     0.0000   0.0000   0.0000   0.0000   0.0000   0.0000   0.0000   0.0000
     0.0000   0.0000   0.0000   0.0000

          k = 0.0000 0.4663 0.0000 ( 25034 PWs)   bands (ev):

   -34.9028 -34.9026 -34.9012 -34.9010 -34.8668 -34.8667 -34.8589 -34.8587
   -34.8482 -34.8480 -34.8007 -34.7986 -34.7814 -34.7605 -34.7579 -27.6955
   -27.6952 -27.6899 -27.6896 -27.6863 -27.6861 -27.6826 -27.6820 -27.6817
   -27.6814  -9.6163  -9.2563  -8.8119  -7.1577  -6.6985  -2.9476  -1.8064
    -1.6751  -1.2141  -1.0214  -0.4313   0.3400   0.4799   0.7790   2.4440
     3.1587   3.5553   4.2609   4.7885   5.2260   5.7142   7.0167   7.6789
     8.0189   8.6075   8.8613   9.1256   9.3769   9.6395   9.9114  10.1921
    10.3335  10.6762  10.8517  11.0902  11.1638  11.3039  11.5448  12.0695
    12.4819  12.9032  12.9453  13.1603  13.3626  13.5088  13.5935  13.7366
    14.0929  14.1749  14.2199  14.4506  14.6412  14.6989  15.2087  15.4651
    15.4822  15.6499  15.8356  16.0865  16.1401  16.2285  16.3570  16.5054
    16.6162  16.8313  17.0403  17.1269  17.3838  17.9576  18.0961  18.4905
    18.7013  18.8616  19.1705  19.4148

     occupation numbers 
     1.0000   1.0000   1.0000   1.0000   1.0000   1.0000   1.0000   1.0000
     1.0000   1.0000   1.0000   1.0000   1.0000   1.0000   1.0000   1.0000
     1.0000   1.0000   1.0000   1.0000   1.0000   1.0000   1.0000   1.0000
     1.0000   1.0000   1.0000   1.0000   1.0000   1.0000   1.0000   1.0000
     1.0000   1.0000   1.0000   1.0000   1.0000   1.0000   1.0000   0.0000
     0.0000   0.0000   0.0000   0.0000   0.0000   0.0000   0.0000   0.0000
     0.0000   0.0000   0.0000   0.0000   0.0000   0.0000   0.0000   0.0000
     0.0000   0.0000   0.0000   0.0000   0.0000   0.0000   0.0000   0.0000
     0.0000   0.0000   0.0000   0.0000   0.0000   0.0000   0.0000   0.0000
     0.0000   0.0000   0.0000   0.0000   0.0000   0.0000   0.0000   0.0000
     0.0000   0.0000   0.0000   0.0000   0.0000   0.0000   0.0000   0.0000
     0.0000   0.0000   0.0000   0.0000   0.0000   0.0000   0.0000   0.0000
     0.0000   0.0000   0.0000   0.0000

          k = 0.0000 0.5596 0.0000 ( 25035 PWs)   bands (ev):

   -34.9028 -34.9026 -34.9010 -34.9008 -34.8668 -34.8667 -34.8589 -34.8587
   -34.8481 -34.8480 -34.8007 -34.7986 -34.7814 -34.7605 -34.7578 -27.6956
   -27.6953 -27.6895 -27.6893 -27.6862 -27.6860 -27.6825 -27.6820 -27.6819
   -27.6817  -9.2239  -9.0360  -8.9238  -7.4240  -6.9334  -3.1430  -1.8306
    -1.7821  -1.4386  -1.1181  -0.4844   0.3800   0.4150   0.6022   2.3850
     3.1718   3.5533   4.2879   4.8947   5.1146   5.7559   7.1108   8.2155
     8.4007   8.7768   8.9043   9.3937   9.5510  10.0025  10.2660  10.3787
    10.6917  10.9554  11.0346  11.2263  11.3050  11.5776  11.7681  12.1277
    12.2603  12.3876  12.5930  12.6829  13.0405  13.3633  13.4954  13.8558
    13.9174  14.0141  14.1947  14.3481  14.4293  14.7530  14.8119  14.9687
    15.1167  15.2411  15.6226  15.9997  16.0779  16.2954  16.5546  16.8367
    17.1090  17.3325  17.5281  17.6276  17.7544  17.9412  18.3976  18.4526
    18.6961  18.8550  19.1226  19.2166

     occupation numbers 
     1.0000   1.0000   1.0000   1.0000   1.0000   1.0000   1.0000   1.0000
     1.0000   1.0000   1.0000   1.0000   1.0000   1.0000   1.0000   1.0000
     1.0000   1.0000   1.0000   1.0000   1.0000   1.0000   1.0000   1.0000
     1.0000   1.0000   1.0000   1.0000   1.0000   1.0000   1.0000   1.0000
     1.0000   1.0000   1.0000   1.0000   1.0000   1.0000   1.0000   0.0000
     0.0000   0.0000   0.0000   0.0000   0.0000   0.0000   0.0000   0.0000
     0.0000   0.0000   0.0000   0.0000   0.0000   0.0000   0.0000   0.0000
     0.0000   0.0000   0.0000   0.0000   0.0000   0.0000   0.0000   0.0000
     0.0000   0.0000   0.0000   0.0000   0.0000   0.0000   0.0000   0.0000
     0.0000   0.0000   0.0000   0.0000   0.0000   0.0000   0.0000   0.0000
     0.0000   0.0000   0.0000   0.0000   0.0000   0.0000   0.0000   0.0000
     0.0000   0.0000   0.0000   0.0000   0.0000   0.0000   0.0000   0.0000
     0.0000   0.0000   0.0000   0.0000

          k = 0.0769 0.0444 0.0000 ( 24955 PWs)   bands (ev):

   -34.9028 -34.9026 -34.9022 -34.9020 -34.8667 -34.8666 -34.8587 -34.8584
   -34.8488 -34.8486 -34.8010 -34.7985 -34.7811 -34.7612 -34.7586 -27.6947
   -27.6944 -27.6930 -27.6927 -27.6876 -27.6873 -27.6828 -27.6826 -27.6793
   -27.6790 -10.7378 -10.1984  -9.1488  -6.4665  -5.2402  -0.7358  -0.5669
    -0.1511  -0.0151   0.1998   0.2084   0.8545   0.9074   1.2506   2.2139
     2.3331   2.7190   3.5299   3.6536   3.8281   6.1324   6.2269   6.8065
     6.9673   7.3909   7.7721   8.1284   8.4027   8.4181   8.7040   9.0191
     9.5125   9.7009   9.8460  10.1057  10.5297  10.6133  10.9822  11.0698
    11.8716  11.9739  12.5111  12.7931  13.1573  13.6314  13.8862  14.2329
    14.3966  14.6699  15.0295  15.2003  15.4625  15.5453  15.7646  16.1515
    16.3254  16.4108  16.5589  16.6603  16.8539  16.8740  16.9894  17.1649
    17.3869  17.5992  17.7058  18.0142  18.0302  18.2504  18.3145  18.3939
    18.4978  18.7166  18.8085  18.9432

     occupation numbers 
     1.0000   1.0000   1.0000   1.0000   1.0000   1.0000   1.0000   1.0000
     1.0000   1.0000   1.0000   1.0000   1.0000   1.0000   1.0000   1.0000
     1.0000   1.0000   1.0000   1.0000   1.0000   1.0000   1.0000   1.0000
     1.0000   1.0000   1.0000   1.0000   1.0000   1.0000   1.0000   1.0000
     1.0000   1.0000   1.0000   1.0000   1.0000   1.0000   1.0000   0.0000
     0.0000   0.0000   0.0000   0.0000   0.0000   0.0000   0.0000   0.0000
     0.0000   0.0000   0.0000   0.0000   0.0000   0.0000   0.0000   0.0000
     0.0000   0.0000   0.0000   0.0000   0.0000   0.0000   0.0000   0.0000
     0.0000   0.0000   0.0000   0.0000   0.0000   0.0000   0.0000   0.0000
     0.0000   0.0000   0.0000   0.0000   0.0000   0.0000   0.0000   0.0000
     0.0000   0.0000   0.0000   0.0000   0.0000   0.0000   0.0000   0.0000
     0.0000   0.0000   0.0000   0.0000   0.0000   0.0000   0.0000   0.0000
     0.0000   0.0000   0.0000   0.0000

          k = 0.0769 0.1377 0.0000 ( 24965 PWs)   bands (ev):

   -34.9028 -34.9026 -34.9021 -34.9019 -34.8667 -34.8666 -34.8587 -34.8585
   -34.8487 -34.8486 -34.8010 -34.7985 -34.7811 -34.7611 -34.7586 -27.6948
   -27.6945 -27.6927 -27.6924 -27.6875 -27.6872 -27.6829 -27.6825 -27.6796
   -27.6792 -10.6386 -10.1087  -9.0987  -6.4967  -5.4147  -1.1705  -0.8151
    -0.6115  -0.2493  -0.0070   0.1919   0.5774   1.1841   1.3539   2.3887
     2.4992   3.0095   3.6374   3.7591   4.2476   6.2298   6.2884   6.6844
     6.9173   7.4571   7.7719   8.1638   8.2801   8.5722   8.7639   9.2997
     9.5157   9.7947  10.1151  10.4666  10.6900  10.8766  11.0526  11.3148
    12.2070  12.2510  12.6664  12.8587  13.0978  13.3613  13.5030  14.0999
    14.4558  14.4784  14.6672  14.9502  15.2247  15.3431  15.5559  16.0317
    16.1390  16.3040  16.4663  16.6405  16.7079  17.0118  17.1487  17.2295
    17.2863  17.5205  17.5738  17.5982  17.9396  18.7322  18.8029  18.9843
    19.0176  19.1344  19.1972  19.2886

     occupation numbers 
     1.0000   1.0000   1.0000   1.0000   1.0000   1.0000   1.0000   1.0000
     1.0000   1.0000   1.0000   1.0000   1.0000   1.0000   1.0000   1.0000
     1.0000   1.0000   1.0000   1.0000   1.0000   1.0000   1.0000   1.0000
     1.0000   1.0000   1.0000   1.0000   1.0000   1.0000   1.0000   1.0000
     1.0000   1.0000   1.0000   1.0000   1.0000   1.0000   1.0000   0.0000
     0.0000   0.0000   0.0000   0.0000   0.0000   0.0000   0.0000   0.0000
     0.0000   0.0000   0.0000   0.0000   0.0000   0.0000   0.0000   0.0000
     0.0000   0.0000   0.0000   0.0000   0.0000   0.0000   0.0000   0.0000
     0.0000   0.0000   0.0000   0.0000   0.0000   0.0000   0.0000   0.0000
     0.0000   0.0000   0.0000   0.0000   0.0000   0.0000   0.0000   0.0000
     0.0000   0.0000   0.0000   0.0000   0.0000   0.0000   0.0000   0.0000
     0.0000   0.0000   0.0000   0.0000   0.0000   0.0000   0.0000   0.0000
     0.0000   0.0000   0.0000   0.0000

          k = 0.0769 0.2309 0.0000 ( 24989 PWs)   bands (ev):

   -34.9028 -34.9026 -34.9019 -34.9017 -34.8667 -34.8666 -34.8587 -34.8585
   -34.8486 -34.8484 -34.8009 -34.7985 -34.7812 -34.7609 -34.7585 -27.6949
   -27.6946 -27.6920 -27.6918 -27.6872 -27.6869 -27.6830 -27.6824 -27.6801
   -27.6796 -10.4412  -9.9322  -9.0066  -6.5740  -5.7371  -1.6806  -1.3810
    -0.8833  -0.6776  -0.2949  -0.0235   0.5145   0.9752   1.4375   2.5803
     2.6968   3.3885   3.8919   4.1193   4.7215   6.1493   6.4765   6.6352
     6.9986   7.6972   8.1049   8.1574   8.2349   8.5919   9.1125   9.5977
     9.6224   9.9961  10.4153  10.6785  11.0322  11.2079  11.7507  11.9925
    12.2087  12.4893  12.7500  12.9019  13.0189  13.3674  13.4964  13.9083
    13.9718  14.0880  14.2066  14.4981  15.1724  15.2385  15.7327  15.7708
    15.8624  16.0964  16.1789  16.3538  16.5004  16.7577  16.8410  17.1611
    17.4002  17.6708  18.0031  18.2336  18.3132  18.4476  18.4951  18.7205
    18.7587  18.9004  19.0337  19.0975

     occupation numbers 
     1.0000   1.0000   1.0000   1.0000   1.0000   1.0000   1.0000   1.0000
     1.0000   1.0000   1.0000   1.0000   1.0000   1.0000   1.0000   1.0000
     1.0000   1.0000   1.0000   1.0000   1.0000   1.0000   1.0000   1.0000
     1.0000   1.0000   1.0000   1.0000   1.0000   1.0000   1.0000   1.0000
     1.0000   1.0000   1.0000   1.0000   1.0000   1.0000   1.0000   0.0000
     0.0000   0.0000   0.0000   0.0000   0.0000   0.0000   0.0000   0.0000
     0.0000   0.0000   0.0000   0.0000   0.0000   0.0000   0.0000   0.0000
     0.0000   0.0000   0.0000   0.0000   0.0000   0.0000   0.0000   0.0000
     0.0000   0.0000   0.0000   0.0000   0.0000   0.0000   0.0000   0.0000
     0.0000   0.0000   0.0000   0.0000   0.0000   0.0000   0.0000   0.0000
     0.0000   0.0000   0.0000   0.0000   0.0000   0.0000   0.0000   0.0000
     0.0000   0.0000   0.0000   0.0000   0.0000   0.0000   0.0000   0.0000
     0.0000   0.0000   0.0000   0.0000

          k = 0.0769 0.3242 0.0000 ( 25034 PWs)   bands (ev):

   -34.9028 -34.9026 -34.9016 -34.9014 -34.8668 -34.8667 -34.8588 -34.8586
   -34.8484 -34.8483 -34.8008 -34.7986 -34.7812 -34.7607 -34.7583 -27.6951
   -27.6948 -27.6912 -27.6909 -27.6869 -27.6866 -27.6830 -27.6823 -27.6807
   -27.6802 -10.1539  -9.6822  -8.8965  -6.7337  -6.1599  -2.2726  -1.7130
    -1.1749  -1.0753  -0.6502  -0.1620   0.4714   0.6370   1.3198   2.6717
     2.8790   3.6023   4.2190   4.4298   5.2083   5.7975   6.7532   7.0098
     7.3486   7.8484   8.1071   8.4784   8.7032   8.9868   9.4454   9.8300
     9.9594  10.1296  10.6641  10.9291  11.2310  11.8463  12.0248  12.1254
    12.4044  12.5068  12.5392  12.7832  13.0583  13.3228  13.6404  13.7814
    13.8339  14.2363  14.5224  14.6887  14.8473  15.0358  15.3237  15.3398
    15.6306  15.6832  15.9465  16.0788  16.3402  16.4022  16.6888  17.2255
    17.3493  17.5602  17.6737  17.7626  18.0736  18.2713  18.3336  18.4236
    18.6574  18.9432  19.1618  19.2153

     occupation numbers 
     1.0000   1.0000   1.0000   1.0000   1.0000   1.0000   1.0000   1.0000
     1.0000   1.0000   1.0000   1.0000   1.0000   1.0000   1.0000   1.0000
     1.0000   1.0000   1.0000   1.0000   1.0000   1.0000   1.0000   1.0000
     1.0000   1.0000   1.0000   1.0000   1.0000   1.0000   1.0000   1.0000
     1.0000   1.0000   1.0000   1.0000   1.0000   1.0000   1.0000   0.0000
     0.0000   0.0000   0.0000   0.0000   0.0000   0.0000   0.0000   0.0000
     0.0000   0.0000   0.0000   0.0000   0.0000   0.0000   0.0000   0.0000
     0.0000   0.0000   0.0000   0.0000   0.0000   0.0000   0.0000   0.0000
     0.0000   0.0000   0.0000   0.0000   0.0000   0.0000   0.0000   0.0000
     0.0000   0.0000   0.0000   0.0000   0.0000   0.0000   0.0000   0.0000
     0.0000   0.0000   0.0000   0.0000   0.0000   0.0000   0.0000   0.0000
     0.0000   0.0000   0.0000   0.0000   0.0000   0.0000   0.0000   0.0000
     0.0000   0.0000   0.0000   0.0000

          k = 0.0769 0.4175 0.0000 ( 25027 PWs)   bands (ev):

   -34.9027 -34.9026 -34.9013 -34.9011 -34.8668 -34.8667 -34.8589 -34.8586
   -34.8483 -34.8481 -34.8007 -34.7986 -34.7813 -34.7605 -34.7581 -27.6953
   -27.6950 -27.6904 -27.6901 -27.6866 -27.6863 -27.6828 -27.6822 -27.6813
   -27.6809  -9.7938  -9.3879  -8.8128  -7.0029  -6.5876  -2.7465  -1.8363
    -1.5827  -1.3635  -0.7789  -0.3791   0.2828   0.5790   1.0660   2.7096
     2.9199   3.6711   4.4168   4.6530   5.4458   5.6425   7.0326   7.4190
     7.8498   8.0499   8.5869   8.9144   9.2868   9.4062   9.6331  10.1801
    10.3945  10.4889  10.7970  11.0070  11.1704  11.4905  11.7534  12.1455
    12.3548  12.5849  12.8405  12.9972  13.1498  13.2116  13.5331  13.6214
    13.7293  14.3545  14.4586  14.6542  14.8324  15.1001  15.2869  15.3910
    15.5336  15.6953  15.8373  15.9777  16.2417  16.4374  16.5879  16.6923
    16.7286  17.2392  17.4074  17.4164  17.8559  17.9765  18.0662  18.4195
    18.6665  18.8450  18.9444  19.0086

     occupation numbers 
     1.0000   1.0000   1.0000   1.0000   1.0000   1.0000   1.0000   1.0000
     1.0000   1.0000   1.0000   1.0000   1.0000   1.0000   1.0000   1.0000
     1.0000   1.0000   1.0000   1.0000   1.0000   1.0000   1.0000   1.0000
     1.0000   1.0000   1.0000   1.0000   1.0000   1.0000   1.0000   1.0000
     1.0000   1.0000   1.0000   1.0000   1.0000   1.0000   1.0000   0.0000
     0.0000   0.0000   0.0000   0.0000   0.0000   0.0000   0.0000   0.0000
     0.0000   0.0000   0.0000   0.0000   0.0000   0.0000   0.0000   0.0000
     0.0000   0.0000   0.0000   0.0000   0.0000   0.0000   0.0000   0.0000
     0.0000   0.0000   0.0000   0.0000   0.0000   0.0000   0.0000   0.0000
     0.0000   0.0000   0.0000   0.0000   0.0000   0.0000   0.0000   0.0000
     0.0000   0.0000   0.0000   0.0000   0.0000   0.0000   0.0000   0.0000
     0.0000   0.0000   0.0000   0.0000   0.0000   0.0000   0.0000   0.0000
     0.0000   0.0000   0.0000   0.0000

          k = 0.0769 0.5107 0.0000 ( 25043 PWs)   bands (ev):

   -34.9028 -34.9026 -34.9011 -34.9009 -34.8668 -34.8667 -34.8589 -34.8587
   -34.8482 -34.8480 -34.8007 -34.7986 -34.7814 -34.7605 -34.7579 -27.6955
   -27.6951 -27.6898 -27.6895 -27.6864 -27.6861 -27.6827 -27.6820 -27.6818
   -27.6814  -9.3975  -9.1125  -8.8297  -7.3206  -6.9058  -3.0370  -1.8767
    -1.8008  -1.5651  -0.9181  -0.5568   0.2703   0.5363   0.8228   2.7031
     2.9268   3.6083   4.5503   4.7581   5.2817   5.7770   7.0929   7.9674
     8.1940   8.8191   8.9626   9.0948   9.5498   9.6504  10.1696  10.4087
    10.6664  10.7048  10.7794  11.0003  11.3630  11.5372  11.6323  11.9289
    11.9981  12.4232  12.6663  12.8066  12.9941  13.3081  13.4753  13.8583
    13.9083  14.1748  14.2810  14.4630  14.7100  14.8666  15.1763  15.2782
    15.4837  15.5616  15.7751  15.8600  16.4369  16.4768  16.6739  16.7910
    16.9487  17.1639  17.3050  17.5859  17.6765  17.9175  17.9610  18.4138
    18.6900  18.7268  19.0554  19.3037

     occupation numbers 
     1.0000   1.0000   1.0000   1.0000   1.0000   1.0000   1.0000   1.0000
     1.0000   1.0000   1.0000   1.0000   1.0000   1.0000   1.0000   1.0000
     1.0000   1.0000   1.0000   1.0000   1.0000   1.0000   1.0000   1.0000
     1.0000   1.0000   1.0000   1.0000   1.0000   1.0000   1.0000   1.0000
     1.0000   1.0000   1.0000   1.0000   1.0000   1.0000   1.0000   0.0000
     0.0000   0.0000   0.0000   0.0000   0.0000   0.0000   0.0000   0.0000
     0.0000   0.0000   0.0000   0.0000   0.0000   0.0000   0.0000   0.0000
     0.0000   0.0000   0.0000   0.0000   0.0000   0.0000   0.0000   0.0000
     0.0000   0.0000   0.0000   0.0000   0.0000   0.0000   0.0000   0.0000
     0.0000   0.0000   0.0000   0.0000   0.0000   0.0000   0.0000   0.0000
     0.0000   0.0000   0.0000   0.0000   0.0000   0.0000   0.0000   0.0000
     0.0000   0.0000   0.0000   0.0000   0.0000   0.0000   0.0000   0.0000
     0.0000   0.0000   0.0000   0.0000

          k = 0.0769 0.6040 0.0000 ( 25026 PWs)   bands (ev):

   -34.9028 -34.9026 -34.9010 -34.9008 -34.8668 -34.8667 -34.8589 -34.8587
   -34.8481 -34.8479 -34.8007 -34.7986 -34.7814 -34.7605 -34.7578 -27.6955
   -27.6952 -27.6895 -27.6893 -27.6863 -27.6860 -27.6826 -27.6820 -27.6819
   -27.6817  -9.0528  -9.0143  -8.9827  -7.4757  -7.0285  -3.1369  -1.9767
    -1.7279  -1.6635  -1.0319  -0.5867   0.3743   0.4091   0.7422   2.6644
     2.9568   3.5507   4.5801   4.7800   5.2476   5.7436   7.1465   8.3552
     8.5809   8.6083   8.8120   9.4981   9.6552   9.7380  10.1500  10.3163
    10.5648  10.8267  10.9533  11.2332  11.5520  11.7176  11.7678  12.0355
    12.0908  12.4516  12.5555  12.6844  13.0162  13.1568  13.5908  13.6232
    13.7837  14.0829  14.3410  14.3999  14.5673  14.8079  14.8673  15.1371
    15.3602  15.4255  15.6453  15.7855  16.0550  16.3666  16.5026  16.9199
    17.4292  17.5537  17.6676  17.8821  18.0541  18.2655  18.4034  18.4433
    18.5859  18.7187  18.7921  18.9536

     occupation numbers 
     1.0000   1.0000   1.0000   1.0000   1.0000   1.0000   1.0000   1.0000
     1.0000   1.0000   1.0000   1.0000   1.0000   1.0000   1.0000   1.0000
     1.0000   1.0000   1.0000   1.0000   1.0000   1.0000   1.0000   1.0000
     1.0000   1.0000   1.0000   1.0000   1.0000   1.0000   1.0000   1.0000
     1.0000   1.0000   1.0000   1.0000   1.0000   1.0000   1.0000   0.0000
     0.0000   0.0000   0.0000   0.0000   0.0000   0.0000   0.0000   0.0000
     0.0000   0.0000   0.0000   0.0000   0.0000   0.0000   0.0000   0.0000
     0.0000   0.0000   0.0000   0.0000   0.0000   0.0000   0.0000   0.0000
     0.0000   0.0000   0.0000   0.0000   0.0000   0.0000   0.0000   0.0000
     0.0000   0.0000   0.0000   0.0000   0.0000   0.0000   0.0000   0.0000
     0.0000   0.0000   0.0000   0.0000   0.0000   0.0000   0.0000   0.0000
     0.0000   0.0000   0.0000   0.0000   0.0000   0.0000   0.0000   0.0000
     0.0000   0.0000   0.0000   0.0000

          k = 0.0769-0.5152 0.0000 ( 25040 PWs)   bands (ev):

   -34.9028 -34.9026 -34.9011 -34.9009 -34.8668 -34.8667 -34.8589 -34.8587
   -34.8481 -34.8480 -34.8007 -34.7986 -34.7814 -34.7605 -34.7578 -27.6955
   -27.6952 -27.6897 -27.6895 -27.6862 -27.6860 -27.6825 -27.6821 -27.6819
   -27.6816  -9.3800  -9.1000  -8.8323  -7.3275  -6.9014  -3.0453  -1.8962
    -1.8145  -1.5219  -0.9610  -0.5172   0.3030   0.4608   0.8335   2.6820
     2.9155   3.5734   4.5474   4.7148   5.2670   5.7304   7.0659   7.9754
     8.2303   8.5035   8.8527   9.0973   9.4531   9.5899  10.0527  10.3021
    10.6704  10.8023  11.1271  11.2504  11.4131  11.5015  11.9474  12.0541
    12.3842  12.5864  12.7336  12.8278  13.1140  13.4123  13.4970  13.7606
    13.8776  14.0838  14.2227  14.4273  14.6018  14.9972  15.0501  15.1983
    15.3270  15.6377  15.7415  15.8010  16.1518  16.2874  16.4981  16.9564
    17.1039  17.1470  17.3861  17.5313  17.6707  18.0112  18.0793  18.4874
    18.5449  18.7515  19.0277  19.1986

     occupation numbers 
     1.0000   1.0000   1.0000   1.0000   1.0000   1.0000   1.0000   1.0000
     1.0000   1.0000   1.0000   1.0000   1.0000   1.0000   1.0000   1.0000
     1.0000   1.0000   1.0000   1.0000   1.0000   1.0000   1.0000   1.0000
     1.0000   1.0000   1.0000   1.0000   1.0000   1.0000   1.0000   1.0000
     1.0000   1.0000   1.0000   1.0000   1.0000   1.0000   1.0000   0.0000
     0.0000   0.0000   0.0000   0.0000   0.0000   0.0000   0.0000   0.0000
     0.0000   0.0000   0.0000   0.0000   0.0000   0.0000   0.0000   0.0000
     0.0000   0.0000   0.0000   0.0000   0.0000   0.0000   0.0000   0.0000
     0.0000   0.0000   0.0000   0.0000   0.0000   0.0000   0.0000   0.0000
     0.0000   0.0000   0.0000   0.0000   0.0000   0.0000   0.0000   0.0000
     0.0000   0.0000   0.0000   0.0000   0.0000   0.0000   0.0000   0.0000
     0.0000   0.0000   0.0000   0.0000   0.0000   0.0000   0.0000   0.0000
     0.0000   0.0000   0.0000   0.0000

          k = 0.0769-0.4219 0.0000 ( 25037 PWs)   bands (ev):

   -34.9028 -34.9026 -34.9013 -34.9011 -34.8668 -34.8667 -34.8589 -34.8587
   -34.8482 -34.8481 -34.8008 -34.7986 -34.7814 -34.7607 -34.7579 -27.6954
   -27.6951 -27.6902 -27.6900 -27.6863 -27.6861 -27.6826 -27.6821 -27.6816
   -27.6812  -9.7762  -9.3709  -8.8066  -7.0076  -6.5759  -2.7626  -1.8637
    -1.5883  -1.3130  -0.8385  -0.3155   0.3087   0.4856   1.0430   2.6902
     2.8839   3.5799   4.3660   4.6498   5.4172   5.5635   6.9787   7.4206
     7.7274   7.8678   8.5877   8.7887   9.2716   9.4304  10.0526  10.2193
    10.3832  10.5885  10.8550  10.9970  11.3465  11.5384  11.6547  12.1610
    12.4104  12.6696  12.9366  13.0491  13.2570  13.3075  13.5687  13.6920
    13.7984  14.4227  14.6095  14.9577  15.1149  15.2213  15.2327  15.4753
    15.5536  15.5832  15.8395  16.0139  16.0638  16.2773  16.4008  16.5308
    16.7567  17.0122  17.2769  17.4744  17.7691  17.9157  18.0761  18.1808
    18.5675  18.9646  19.0793  19.3349

     occupation numbers 
     1.0000   1.0000   1.0000   1.0000   1.0000   1.0000   1.0000   1.0000
     1.0000   1.0000   1.0000   1.0000   1.0000   1.0000   1.0000   1.0000
     1.0000   1.0000   1.0000   1.0000   1.0000   1.0000   1.0000   1.0000
     1.0000   1.0000   1.0000   1.0000   1.0000   1.0000   1.0000   1.0000
     1.0000   1.0000   1.0000   1.0000   1.0000   1.0000   1.0000   0.0000
     0.0000   0.0000   0.0000   0.0000   0.0000   0.0000   0.0000   0.0000
     0.0000   0.0000   0.0000   0.0000   0.0000   0.0000   0.0000   0.0000
     0.0000   0.0000   0.0000   0.0000   0.0000   0.0000   0.0000   0.0000
     0.0000   0.0000   0.0000   0.0000   0.0000   0.0000   0.0000   0.0000
     0.0000   0.0000   0.0000   0.0000   0.0000   0.0000   0.0000   0.0000
     0.0000   0.0000   0.0000   0.0000   0.0000   0.0000   0.0000   0.0000
     0.0000   0.0000   0.0000   0.0000   0.0000   0.0000   0.0000   0.0000
     0.0000   0.0000   0.0000   0.0000

          k = 0.0769-0.3286 0.0000 ( 25033 PWs)   bands (ev):

   -34.9027 -34.9026 -34.9016 -34.9014 -34.8667 -34.8666 -34.8588 -34.8586
   -34.8484 -34.8482 -34.8008 -34.7986 -34.7813 -34.7608 -34.7580 -27.6952
   -27.6949 -27.6909 -27.6907 -27.6865 -27.6863 -27.6827 -27.6823 -27.6811
   -27.6807 -10.1386  -9.6661  -8.8863  -6.7292  -6.1412  -2.2961  -1.7087
    -1.2030  -1.0325  -0.6871  -0.0797   0.3848   0.5912   1.2626   2.5975
     2.8286   3.5423   4.0860   4.5012   5.1698   5.7489   6.6787   6.9732
     7.2785   7.8116   8.1026   8.3931   8.9262   9.1313   9.6049   9.8188
     9.9809  10.1950  10.7695  10.9746  11.0858  11.8012  11.9683  12.1765
    12.4242  12.5154  12.6371  12.7915  13.0386  13.3437  13.7888  13.9092
    13.9674  14.1648  14.4908  14.6899  14.8796  15.1346  15.3708  15.5355
    15.7781  15.8911  16.0337  16.2116  16.3865  16.6528  16.9156  17.1867
    17.3486  17.5493  17.5530  17.7138  17.8045  17.9993  18.2257  18.4059
    18.5306  18.8032  18.8635  19.0779

     occupation numbers 
     1.0000   1.0000   1.0000   1.0000   1.0000   1.0000   1.0000   1.0000
     1.0000   1.0000   1.0000   1.0000   1.0000   1.0000   1.0000   1.0000
     1.0000   1.0000   1.0000   1.0000   1.0000   1.0000   1.0000   1.0000
     1.0000   1.0000   1.0000   1.0000   1.0000   1.0000   1.0000   1.0000
     1.0000   1.0000   1.0000   1.0000   1.0000   1.0000   1.0000   0.0000
     0.0000   0.0000   0.0000   0.0000   0.0000   0.0000   0.0000   0.0000
     0.0000   0.0000   0.0000   0.0000   0.0000   0.0000   0.0000   0.0000
     0.0000   0.0000   0.0000   0.0000   0.0000   0.0000   0.0000   0.0000
     0.0000   0.0000   0.0000   0.0000   0.0000   0.0000   0.0000   0.0000
     0.0000   0.0000   0.0000   0.0000   0.0000   0.0000   0.0000   0.0000
     0.0000   0.0000   0.0000   0.0000   0.0000   0.0000   0.0000   0.0000
     0.0000   0.0000   0.0000   0.0000   0.0000   0.0000   0.0000   0.0000
     0.0000   0.0000   0.0000   0.0000

          k = 0.0769-0.2354 0.0000 ( 25004 PWs)   bands (ev):

   -34.9027 -34.9026 -34.9019 -34.9017 -34.8667 -34.8666 -34.8588 -34.8585
   -34.8486 -34.8484 -34.8009 -34.7985 -34.7812 -34.7610 -34.7582 -27.6951
   -27.6948 -27.6918 -27.6915 -27.6869 -27.6867 -27.6828 -27.6824 -27.6804
   -27.6800 -10.4296  -9.9195  -8.9967  -6.5638  -5.7134  -1.6907  -1.3510
    -0.8603  -0.6954  -0.3438   0.0239   0.4286   0.8743   1.4039   2.3580
     2.7232   3.4046   3.7424   4.2714   4.7063   6.1087   6.4708   6.5772
     7.0023   7.6981   8.1149   8.2173   8.3343   8.6473   9.0868   9.5905
     9.6508  10.0556  10.3344  10.7560  11.0569  11.1969  11.8006  12.0178
    12.2651  12.5567  12.6513  12.9663  13.0351  13.3687  13.5891  13.9799
    14.0220  14.1984  14.3292  14.4437  15.0703  15.2136  15.7398  15.7555
    16.0307  16.0508  16.1557  16.3418  16.5057  16.5756  16.8818  16.9902
    17.7759  17.7859  18.0214  18.0577  18.2484  18.4421  18.5845  18.7349
    18.8750  18.9240  19.1146  19.1645

     occupation numbers 
     1.0000   1.0000   1.0000   1.0000   1.0000   1.0000   1.0000   1.0000
     1.0000   1.0000   1.0000   1.0000   1.0000   1.0000   1.0000   1.0000
     1.0000   1.0000   1.0000   1.0000   1.0000   1.0000   1.0000   1.0000
     1.0000   1.0000   1.0000   1.0000   1.0000   1.0000   1.0000   1.0000
     1.0000   1.0000   1.0000   1.0000   1.0000   1.0000   1.0000   0.0000
     0.0000   0.0000   0.0000   0.0000   0.0000   0.0000   0.0000   0.0000
     0.0000   0.0000   0.0000   0.0000   0.0000   0.0000   0.0000   0.0000
     0.0000   0.0000   0.0000   0.0000   0.0000   0.0000   0.0000   0.0000
     0.0000   0.0000   0.0000   0.0000   0.0000   0.0000   0.0000   0.0000
     0.0000   0.0000   0.0000   0.0000   0.0000   0.0000   0.0000   0.0000
     0.0000   0.0000   0.0000   0.0000   0.0000   0.0000   0.0000   0.0000
     0.0000   0.0000   0.0000   0.0000   0.0000   0.0000   0.0000   0.0000
     0.0000   0.0000   0.0000   0.0000

          k = 0.0769-0.1421 0.0000 ( 24972 PWs)   bands (ev):

   -34.9027 -34.9026 -34.9021 -34.9019 -34.8667 -34.8666 -34.8587 -34.8585
   -34.8487 -34.8485 -34.8010 -34.7985 -34.7811 -34.7611 -34.7584 -27.6949
   -27.6946 -27.6925 -27.6922 -27.6873 -27.6870 -27.6828 -27.6825 -27.6798
   -27.6795 -10.6314 -10.1007  -9.0919  -6.4875  -5.3934  -1.1037  -0.7841
    -0.5341  -0.3533  -0.0817   0.1713   0.4651   1.1596   1.2991   2.1610
     2.6513   2.9306   3.6039   3.8895   4.2630   6.2560   6.2877   6.6611
     6.9735   7.4833   7.7054   8.1786   8.3037   8.6009   8.6816   9.3499
     9.4898   9.7614  10.0467  10.4953  10.7415  11.0096  11.0818  11.4728
    12.0708  12.3674  12.5370  12.9414  13.0993  13.3182  13.6892  14.0447
    14.4269  14.7751  14.8298  14.9954  15.1714  15.2999  15.5619  15.7952
    16.0169  16.3595  16.5166  16.6259  16.6755  16.8527  16.9221  16.9915
    17.1489  17.2683  17.4584  17.5682  18.2421  18.5908  18.7624  18.8193
    18.8746  19.2467  19.5295  19.5660

     occupation numbers 
     1.0000   1.0000   1.0000   1.0000   1.0000   1.0000   1.0000   1.0000
     1.0000   1.0000   1.0000   1.0000   1.0000   1.0000   1.0000   1.0000
     1.0000   1.0000   1.0000   1.0000   1.0000   1.0000   1.0000   1.0000
     1.0000   1.0000   1.0000   1.0000   1.0000   1.0000   1.0000   1.0000
     1.0000   1.0000   1.0000   1.0000   1.0000   1.0000   1.0000   0.0000
     0.0000   0.0000   0.0000   0.0000   0.0000   0.0000   0.0000   0.0000
     0.0000   0.0000   0.0000   0.0000   0.0000   0.0000   0.0000   0.0000
     0.0000   0.0000   0.0000   0.0000   0.0000   0.0000   0.0000   0.0000
     0.0000   0.0000   0.0000   0.0000   0.0000   0.0000   0.0000   0.0000
     0.0000   0.0000   0.0000   0.0000   0.0000   0.0000   0.0000   0.0000
     0.0000   0.0000   0.0000   0.0000   0.0000   0.0000   0.0000   0.0000
     0.0000   0.0000   0.0000   0.0000   0.0000   0.0000   0.0000   0.0000
     0.0000   0.0000   0.0000   0.0000

          k = 0.0769-0.0489 0.0000 ( 24969 PWs)   bands (ev):

   -34.9027 -34.9026 -34.9023 -34.9021 -34.8667 -34.8666 -34.8587 -34.8585
   -34.8488 -34.8486 -34.8010 -34.7985 -34.7811 -34.7612 -34.7585 -27.6948
   -27.6945 -27.6930 -27.6927 -27.6875 -27.6873 -27.6827 -27.6826 -27.6794
   -27.6791 -10.7354 -10.1956  -9.1464  -6.4630  -5.2316  -0.6693  -0.4235
    -0.3038  -0.0777   0.1294   0.2673   0.7122   0.9393   1.2884   2.0535
     2.4721   2.7363   3.4497   3.6290   3.9390   6.1349   6.2412   6.8180
     7.0616   7.3978   7.5798   8.1939   8.3237   8.5132   8.6703   9.0034
     9.5326   9.5623  10.0002  10.1425  10.5760  10.6463  10.8625  11.1514
    11.7681  12.0401  12.6452  12.7757  13.2238  13.4091  14.0688  14.1525
    14.3389  14.8344  15.0712  15.3723  15.4820  15.7115  15.8247  15.9013
    16.1169  16.1805  16.3989  16.4766  16.7830  16.9109  17.1441  17.3015
    17.4211  17.5253  17.7014  17.8285  18.0200  18.1093  18.3885  18.5694
    18.6561  18.7173  18.7964  18.9359

     occupation numbers 
     1.0000   1.0000   1.0000   1.0000   1.0000   1.0000   1.0000   1.0000
     1.0000   1.0000   1.0000   1.0000   1.0000   1.0000   1.0000   1.0000
     1.0000   1.0000   1.0000   1.0000   1.0000   1.0000   1.0000   1.0000
     1.0000   1.0000   1.0000   1.0000   1.0000   1.0000   1.0000   1.0000
     1.0000   1.0000   1.0000   1.0000   1.0000   1.0000   1.0000   0.0000
     0.0000   0.0000   0.0000   0.0000   0.0000   0.0000   0.0000   0.0000
     0.0000   0.0000   0.0000   0.0000   0.0000   0.0000   0.0000   0.0000
     0.0000   0.0000   0.0000   0.0000   0.0000   0.0000   0.0000   0.0000
     0.0000   0.0000   0.0000   0.0000   0.0000   0.0000   0.0000   0.0000
     0.0000   0.0000   0.0000   0.0000   0.0000   0.0000   0.0000   0.0000
     0.0000   0.0000   0.0000   0.0000   0.0000   0.0000   0.0000   0.0000
     0.0000   0.0000   0.0000   0.0000   0.0000   0.0000   0.0000   0.0000
     0.0000   0.0000   0.0000   0.0000

          k = 0.1538 0.0888 0.0000 ( 24960 PWs)   bands (ev):

   -34.9027 -34.9025 -34.9021 -34.9019 -34.8667 -34.8666 -34.8587 -34.8584
   -34.8487 -34.8486 -34.8009 -34.7985 -34.7811 -34.7611 -34.7586 -27.6945
   -27.6942 -27.6930 -27.6927 -27.6876 -27.6872 -27.6831 -27.6827 -27.6794
   -27.6789 -10.5996 -10.0755  -9.0843  -6.5279  -5.5237  -1.4966  -0.8460
    -0.6022  -0.4474  -0.0204   0.1348   0.9487   1.0512   1.3186   2.4804
     2.9157   2.9503   3.6307   3.9408   4.2260   6.0815   6.3283   6.6049
     7.0811   7.4798   8.0055   8.0497   8.3009   8.6076   9.0798   9.2242
     9.4299   9.9179  10.1280  10.3585  10.7998  11.1308  11.2076  11.3448
    11.9808  12.3039  12.6616  12.8056  13.0090  13.3850  13.5608  13.8953
    14.0951  14.3498  14.6267  15.1548  15.2945  15.6334  15.7663  15.7966
    15.9486  16.1796  16.2878  16.3263  16.5198  16.7828  17.2485  17.3597
    17.6696  17.8608  18.0342  18.0701  18.2122  18.3901  18.5995  18.6651
    18.7141  18.9746  18.9994  19.0753

     occupation numbers 
     1.0000   1.0000   1.0000   1.0000   1.0000   1.0000   1.0000   1.0000
     1.0000   1.0000   1.0000   1.0000   1.0000   1.0000   1.0000   1.0000
     1.0000   1.0000   1.0000   1.0000   1.0000   1.0000   1.0000   1.0000
     1.0000   1.0000   1.0000   1.0000   1.0000   1.0000   1.0000   1.0000
     1.0000   1.0000   1.0000   1.0000   1.0000   1.0000   1.0000   0.0000
     0.0000   0.0000   0.0000   0.0000   0.0000   0.0000   0.0000   0.0000
     0.0000   0.0000   0.0000   0.0000   0.0000   0.0000   0.0000   0.0000
     0.0000   0.0000   0.0000   0.0000   0.0000   0.0000   0.0000   0.0000
     0.0000   0.0000   0.0000   0.0000   0.0000   0.0000   0.0000   0.0000
     0.0000   0.0000   0.0000   0.0000   0.0000   0.0000   0.0000   0.0000
     0.0000   0.0000   0.0000   0.0000   0.0000   0.0000   0.0000   0.0000
     0.0000   0.0000   0.0000   0.0000   0.0000   0.0000   0.0000   0.0000
     0.0000   0.0000   0.0000   0.0000

          k = 0.1538 0.1821 0.0000 ( 25013 PWs)   bands (ev):

   -34.9027 -34.9025 -34.9020 -34.9018 -34.8668 -34.8667 -34.8587 -34.8585
   -34.8487 -34.8485 -34.8009 -34.7986 -34.7811 -34.7609 -34.7586 -27.6946
   -27.6943 -27.6926 -27.6923 -27.6874 -27.6870 -27.6832 -27.6826 -27.6797
   -27.6791 -10.4549  -9.9474  -9.0201  -6.5949  -5.7663  -1.8357  -1.2283
    -0.9708  -0.5016  -0.3384   0.1348   0.6077   1.0334   1.4879   2.5240
     3.0458   3.2227   3.7849   4.3796   4.4803   6.0109   6.4759   6.6120
     7.0350   7.6403   8.0040   8.1508   8.5358   8.6167   9.1366   9.5729
     9.7378   9.8590  10.3469  10.7155  10.9741  11.1958  11.6812  11.7154
    12.1510  12.3445  12.7471  12.8918  13.1730  13.2459  13.5005  13.5436
    13.7681  14.1657  14.6887  14.8608  15.1699  15.2554  15.3621  15.5901
    15.8348  16.3502  16.5206  16.6864  16.8190  16.8933  17.0919  17.1221
    17.3944  17.6133  17.8960  18.0102  18.0368  18.2112  18.2548  18.3892
    18.5222  18.6839  19.0426  19.0926

     occupation numbers 
     1.0000   1.0000   1.0000   1.0000   1.0000   1.0000   1.0000   1.0000
     1.0000   1.0000   1.0000   1.0000   1.0000   1.0000   1.0000   1.0000
     1.0000   1.0000   1.0000   1.0000   1.0000   1.0000   1.0000   1.0000
     1.0000   1.0000   1.0000   1.0000   1.0000   1.0000   1.0000   1.0000
     1.0000   1.0000   1.0000   1.0000   1.0000   1.0000   1.0000   0.0000
     0.0000   0.0000   0.0000   0.0000   0.0000   0.0000   0.0000   0.0000
     0.0000   0.0000   0.0000   0.0000   0.0000   0.0000   0.0000   0.0000
     0.0000   0.0000   0.0000   0.0000   0.0000   0.0000   0.0000   0.0000
     0.0000   0.0000   0.0000   0.0000   0.0000   0.0000   0.0000   0.0000
     0.0000   0.0000   0.0000   0.0000   0.0000   0.0000   0.0000   0.0000
     0.0000   0.0000   0.0000   0.0000   0.0000   0.0000   0.0000   0.0000
     0.0000   0.0000   0.0000   0.0000   0.0000   0.0000   0.0000   0.0000
     0.0000   0.0000   0.0000   0.0000

          k = 0.1538 0.2754 0.0000 ( 24990 PWs)   bands (ev):

   -34.9027 -34.9025 -34.9017 -34.9015 -34.8668 -34.8667 -34.8587 -34.8585
   -34.8485 -34.8484 -34.8008 -34.7986 -34.7812 -34.7607 -34.7585 -27.6947
   -27.6944 -27.6919 -27.6916 -27.6871 -27.6867 -27.6832 -27.6825 -27.6802
   -27.6796 -10.2167  -9.7399  -8.9261  -6.7201  -6.1278  -2.0648  -1.8983
    -1.1266  -0.8911  -0.6378  -0.1833   0.5755   1.0907   1.2731   2.6426
     3.2405   3.4635   3.9335   4.7045   5.0006   6.2081   6.2875   6.8334
     7.1506   7.7569   7.9694   8.1768   8.9231   9.1480   9.5889   9.6257
     9.9498  10.2675  10.5317  10.6763  11.5424  11.6874  11.8003  12.0161
    12.3392  12.4227  12.6844  12.8425  13.0243  13.2468  13.3204  13.4947
    13.9748  14.2198  14.3257  14.5934  14.9126  15.0288  15.3093  15.4129
    15.5965  15.8683  16.0008  16.3554  16.4805  16.9307  17.2610  17.3899
    17.5289  17.5804  17.7284  17.7685  17.8418  18.1389  18.2680  18.3605
    18.4592  18.8146  18.9494  19.3954

     occupation numbers 
     1.0000   1.0000   1.0000   1.0000   1.0000   1.0000   1.0000   1.0000
     1.0000   1.0000   1.0000   1.0000   1.0000   1.0000   1.0000   1.0000
     1.0000   1.0000   1.0000   1.0000   1.0000   1.0000   1.0000   1.0000
     1.0000   1.0000   1.0000   1.0000   1.0000   1.0000   1.0000   1.0000
     1.0000   1.0000   1.0000   1.0000   1.0000   1.0000   1.0000   0.0000
     0.0000   0.0000   0.0000   0.0000   0.0000   0.0000   0.0000   0.0000
     0.0000   0.0000   0.0000   0.0000   0.0000   0.0000   0.0000   0.0000
     0.0000   0.0000   0.0000   0.0000   0.0000   0.0000   0.0000   0.0000
     0.0000   0.0000   0.0000   0.0000   0.0000   0.0000   0.0000   0.0000
     0.0000   0.0000   0.0000   0.0000   0.0000   0.0000   0.0000   0.0000
     0.0000   0.0000   0.0000   0.0000   0.0000   0.0000   0.0000   0.0000
     0.0000   0.0000   0.0000   0.0000   0.0000   0.0000   0.0000   0.0000
     0.0000   0.0000   0.0000   0.0000

          k = 0.1538 0.3686 0.0000 ( 25008 PWs)   bands (ev):

   -34.9027 -34.9025 -34.9015 -34.9013 -34.8668 -34.8667 -34.8588 -34.8586
   -34.8484 -34.8482 -34.8007 -34.7986 -34.7813 -34.7605 -34.7583 -27.6949
   -27.6946 -27.6911 -27.6909 -27.6869 -27.6865 -27.6831 -27.6824 -27.6808
   -27.6802  -9.8972  -9.4725  -8.8303  -6.9212  -6.5547  -2.4497  -2.1681
    -1.4556  -1.2420  -0.8743  -0.4362   0.5980   0.7826   1.1831   2.7567
     3.2907   3.5535   4.3023   4.9081   5.3728   5.9640   6.7280   7.2631
     7.3170   7.7824   8.3821   8.4154   9.1967   9.3156   9.9674  10.1002
    10.3794  10.5430  10.6521  11.2754  11.5030  11.6660  11.7440  12.0228
    12.3632  12.4980  12.5863  12.6577  12.8287  12.9466  13.5385  13.7533
    14.0891  14.1654  14.2816  14.4242  14.5599  14.7649  14.9035  15.3099
    15.6509  15.7651  16.1145  16.3985  16.4689  16.8200  16.9772  17.1154
    17.3522  17.3663  17.4248  17.7049  18.0946  18.2613  18.5776  18.6929
    18.7782  19.0638  19.1693  19.2842

     occupation numbers 
     1.0000   1.0000   1.0000   1.0000   1.0000   1.0000   1.0000   1.0000
     1.0000   1.0000   1.0000   1.0000   1.0000   1.0000   1.0000   1.0000
     1.0000   1.0000   1.0000   1.0000   1.0000   1.0000   1.0000   1.0000
     1.0000   1.0000   1.0000   1.0000   1.0000   1.0000   1.0000   1.0000
     1.0000   1.0000   1.0000   1.0000   1.0000   1.0000   1.0000   0.0000
     0.0000   0.0000   0.0000   0.0000   0.0000   0.0000   0.0000   0.0000
     0.0000   0.0000   0.0000   0.0000   0.0000   0.0000   0.0000   0.0000
     0.0000   0.0000   0.0000   0.0000   0.0000   0.0000   0.0000   0.0000
     0.0000   0.0000   0.0000   0.0000   0.0000   0.0000   0.0000   0.0000
     0.0000   0.0000   0.0000   0.0000   0.0000   0.0000   0.0000   0.0000
     0.0000   0.0000   0.0000   0.0000   0.0000   0.0000   0.0000   0.0000
     0.0000   0.0000   0.0000   0.0000   0.0000   0.0000   0.0000   0.0000
     0.0000   0.0000   0.0000   0.0000

          k = 0.1538 0.4619 0.0000 ( 25033 PWs)   bands (ev):

   -34.9027 -34.9025 -34.9013 -34.9011 -34.8668 -34.8667 -34.8589 -34.8586
   -34.8482 -34.8481 -34.8007 -34.7986 -34.7813 -34.7604 -34.7581 -27.6951
[...]
     0.0000   0.0000   0.0000   0.0000

          k = 0.4615 0.7328 0.0000 ( 24939 PWs)   bands (ev):

   -36.7056 -36.7051 -36.7002 -36.6997 -36.6613 -36.6608 -36.6470 -36.6466
   -36.6375 -36.6370 -36.4297 -36.4273 -36.4066 -36.3787 -36.3767 -29.4269
   -29.4260 -29.4208 -29.4202 -29.4149 -29.4146 -29.4032 -29.4022 -29.3983
   -29.3960 -11.1955 -11.0266 -10.8176  -9.3064  -8.9061  -4.3279  -3.3945
    -3.2687  -2.7301  -2.0635  -1.9892  -0.5093  -0.1737   0.3812   2.6244
     3.1511   3.3181   4.4896   4.8967   5.5477   6.1313   7.5646   8.2076
     8.4770   8.8739   9.0670   9.3336   9.6245   9.8579   9.9887  10.3419
    10.4755  10.6774  10.9577  11.5546  11.6243  11.9669  12.0916  12.3363
    12.4989  12.7546  12.7812  13.0588  13.1886  13.5212  13.9436  14.2159
    14.3958  14.5253  14.8384  15.0135  15.1365  15.5171  15.6326  15.8428
    16.2883  16.3493  16.8461  16.9935  17.0532  17.2471  17.4378  17.5107
    17.7813  17.9904  18.2258  18.2572  18.4175  18.5365  18.6593  19.0094
    19.0825  19.2342  19.4790  19.7609

     occupation numbers 
     1.0000   1.0000   1.0000   1.0000   1.0000   1.0000   1.0000   1.0000
     1.0000   1.0000   1.0000   1.0000   1.0000   1.0000   1.0000   1.0000
     1.0000   1.0000   1.0000   1.0000   1.0000   1.0000   1.0000   1.0000
     1.0000   1.0000   1.0000   1.0000   1.0000   1.0000   1.0000   1.0000
     1.0000   1.0000   1.0000   1.0000   1.0000   1.0000   1.0000   0.0000
     0.0000   0.0000   0.0000   0.0000   0.0000   0.0000   0.0000   0.0000
     0.0000   0.0000   0.0000   0.0000   0.0000   0.0000   0.0000   0.0000
     0.0000   0.0000   0.0000   0.0000   0.0000   0.0000   0.0000   0.0000
     0.0000   0.0000   0.0000   0.0000   0.0000   0.0000   0.0000   0.0000
     0.0000   0.0000   0.0000   0.0000   0.0000   0.0000   0.0000   0.0000
     0.0000   0.0000   0.0000   0.0000   0.0000   0.0000   0.0000   0.0000
     0.0000   0.0000   0.0000   0.0000   0.0000   0.0000   0.0000   0.0000
     0.0000   0.0000   0.0000   0.0000

          k = 0.4615 0.8261 0.0000 ( 24998 PWs)   bands (ev):

   -36.7051 -36.7046 -36.6977 -36.6972 -36.6621 -36.6617 -36.6486 -36.6481
   -36.6394 -36.6389 -36.4310 -36.4274 -36.4012 -36.3788 -36.3746 -29.4315
   -29.4308 -29.4249 -29.4244 -29.4164 -29.4153 -29.4043 -29.4034 -29.3958
   -29.3936 -11.1137 -11.0808 -10.9896  -9.3300  -8.7388  -4.4610  -3.1473
    -2.9586  -2.7758  -2.1959  -1.5873  -0.4737  -0.4064   0.2019   2.6037
     2.7479   3.2941   4.5356   4.5871   5.5841   5.6730   7.4068   8.3755
     8.6227   8.6582   8.8341   9.5963   9.6820   9.8042  10.3331  10.3956
    10.9227  11.1987  11.3785  11.6550  11.8796  12.0736  12.2712  12.3769
    12.5015  12.6078  13.0507  13.0998  13.5429  13.8039  13.9488  14.2620
    14.3092  14.6685  14.7047  14.7227  15.0422  15.1795  15.2933  15.6760
    15.8483  15.8618  16.1810  16.3737  16.7531  16.8684  16.9780  17.4501
    17.8716  17.9974  18.2622  18.3361  18.4940  18.6529  18.6840  18.9225
    19.0114  19.1610  19.2071  19.4914

     occupation numbers 
     1.0000   1.0000   1.0000   1.0000   1.0000   1.0000   1.0000   1.0000
     1.0000   1.0000   1.0000   1.0000   1.0000   1.0000   1.0000   1.0000
     1.0000   1.0000   1.0000   1.0000   1.0000   1.0000   1.0000   1.0000
     1.0000   1.0000   1.0000   1.0000   1.0000   1.0000   1.0000   1.0000
     1.0000   1.0000   1.0000   1.0000   1.0000   1.0000   1.0000   0.0000
     0.0000   0.0000   0.0000   0.0000   0.0000   0.0000   0.0000   0.0000
     0.0000   0.0000   0.0000   0.0000   0.0000   0.0000   0.0000   0.0000
     0.0000   0.0000   0.0000   0.0000   0.0000   0.0000   0.0000   0.0000
     0.0000   0.0000   0.0000   0.0000   0.0000   0.0000   0.0000   0.0000
     0.0000   0.0000   0.0000   0.0000   0.0000   0.0000   0.0000   0.0000
     0.0000   0.0000   0.0000   0.0000   0.0000   0.0000   0.0000   0.0000
     0.0000   0.0000   0.0000   0.0000   0.0000   0.0000   0.0000   0.0000
     0.0000   0.0000   0.0000   0.0000

          k = 0.4615-0.2931 0.0000 ( 24997 PWs)   bands (ev):

   -36.7063 -36.7058 -36.6983 -36.6978 -36.6633 -36.6628 -36.6482 -36.6478
   -36.6388 -36.6383 -36.4324 -36.4273 -36.3995 -36.3813 -36.3752 -29.4323
   -29.4316 -29.4261 -29.4260 -29.4172 -29.4151 -29.4053 -29.4039 -29.3946
   -29.3926 -11.2858 -11.1240 -10.9289  -9.2792  -8.6329  -4.4723  -3.0065
    -2.9087  -2.6774  -2.1987  -1.4928  -0.4675  -0.3992   0.0614   2.3457
     2.9111   3.3018   4.3499   4.6027   5.5016   5.6384   7.3433   8.1976
     8.4657   8.8012   8.9882   9.3729   9.7723   9.9952  10.3868  10.6086
    10.9914  11.2525  11.4180  11.6996  11.8751  11.9634  12.1578  12.2878
    12.6544  12.8001  13.1551  13.3502  13.4476  13.8849  14.0434  14.2317
    14.3744  14.4943  14.5694  14.7837  14.9176  15.0833  15.1910  15.3686
    15.5380  15.8167  16.2260  16.5835  16.6368  16.9329  17.0968  17.2777
    17.5418  17.8089  17.8855  18.0335  18.2626  18.5227  18.6937  18.7507
    18.9676  19.5091  19.6101  19.6850

     occupation numbers 
     1.0000   1.0000   1.0000   1.0000   1.0000   1.0000   1.0000   1.0000
     1.0000   1.0000   1.0000   1.0000   1.0000   1.0000   1.0000   1.0000
     1.0000   1.0000   1.0000   1.0000   1.0000   1.0000   1.0000   1.0000
     1.0000   1.0000   1.0000   1.0000   1.0000   1.0000   1.0000   1.0000
     1.0000   1.0000   1.0000   1.0000   1.0000   1.0000   1.0000   0.0000
     0.0000   0.0000   0.0000   0.0000   0.0000   0.0000   0.0000   0.0000
     0.0000   0.0000   0.0000   0.0000   0.0000   0.0000   0.0000   0.0000
     0.0000   0.0000   0.0000   0.0000   0.0000   0.0000   0.0000   0.0000
     0.0000   0.0000   0.0000   0.0000   0.0000   0.0000   0.0000   0.0000
     0.0000   0.0000   0.0000   0.0000   0.0000   0.0000   0.0000   0.0000
     0.0000   0.0000   0.0000   0.0000   0.0000   0.0000   0.0000   0.0000
     0.0000   0.0000   0.0000   0.0000   0.0000   0.0000   0.0000   0.0000
     0.0000   0.0000   0.0000   0.0000

          k = 0.4615-0.1999 0.0000 ( 24964 PWs)   bands (ev):

   -36.7060 -36.7055 -36.6990 -36.6985 -36.6611 -36.6606 -36.6507 -36.6503
   -36.6390 -36.6386 -36.4294 -36.4264 -36.4030 -36.3808 -36.3763 -29.4317
   -29.4309 -29.4245 -29.4240 -29.4172 -29.4165 -29.4044 -29.4036 -29.3966
   -29.3945 -11.4667 -11.1898 -10.7994  -9.1725  -8.6256  -4.3613  -3.0755
    -2.9700  -2.7293  -2.0728  -1.5759  -0.5526  -0.2861   0.2705   2.6304
     2.7351   3.3513   4.4649   4.6048   5.5221   5.8122   7.3503   7.9319
     8.2590   8.9597   9.1892   9.1951   9.7350  10.0786  10.3569  10.5560
    10.9470  10.9829  11.1381  11.3533  11.6403  11.7806  12.1326  12.3121
    12.4720  12.6563  12.9809  13.1069  13.3324  13.6832  13.8372  14.2382
    14.3411  14.4814  14.6803  15.0392  15.2379  15.3393  15.7233  15.7795
    15.9673  16.1214  16.2224  16.5901  16.8386  16.8582  17.1165  17.3441
    17.4952  17.5863  17.9757  17.9991  18.2834  18.4004  18.5335  18.8610
    19.1306  19.1627  19.4647  19.7706

     occupation numbers 
     1.0000   1.0000   1.0000   1.0000   1.0000   1.0000   1.0000   1.0000
     1.0000   1.0000   1.0000   1.0000   1.0000   1.0000   1.0000   1.0000
     1.0000   1.0000   1.0000   1.0000   1.0000   1.0000   1.0000   1.0000
     1.0000   1.0000   1.0000   1.0000   1.0000   1.0000   1.0000   1.0000
     1.0000   1.0000   1.0000   1.0000   1.0000   1.0000   1.0000   0.0000
     0.0000   0.0000   0.0000   0.0000   0.0000   0.0000   0.0000   0.0000
     0.0000   0.0000   0.0000   0.0000   0.0000   0.0000   0.0000   0.0000
     0.0000   0.0000   0.0000   0.0000   0.0000   0.0000   0.0000   0.0000
     0.0000   0.0000   0.0000   0.0000   0.0000   0.0000   0.0000   0.0000
     0.0000   0.0000   0.0000   0.0000   0.0000   0.0000   0.0000   0.0000
     0.0000   0.0000   0.0000   0.0000   0.0000   0.0000   0.0000   0.0000
     0.0000   0.0000   0.0000   0.0000   0.0000   0.0000   0.0000   0.0000
     0.0000   0.0000   0.0000   0.0000

          k = 0.4615-0.1066 0.0000 ( 24940 PWs)   bands (ev):

   -36.7073 -36.7068 -36.7018 -36.7013 -36.6626 -36.6621 -36.6491 -36.6488
   -36.6384 -36.6380 -36.4293 -36.4263 -36.4110 -36.3816 -36.3795 -29.4266
   -29.4255 -29.4193 -29.4189 -29.4162 -29.4156 -29.4043 -29.4034 -29.3995
   -29.3977 -11.5899 -11.2419 -10.7187  -9.0250  -8.6933  -4.1370  -3.4169
    -2.9544  -2.7774  -2.0462  -1.7945  -0.4418  -0.0972   0.4505   2.5723
     3.1795   3.4570   4.3215   4.8960   5.4773   6.2958   7.4625   7.7245
     8.1789   8.4530   8.8728   9.1313   9.6279   9.8043  10.2118  10.5106
    10.8261  11.0207  11.0595  11.3930  11.5964  11.8215  11.8645  12.3645
    12.4971  12.6153  12.8863  13.0220  13.2675  13.4258  13.7227  13.9835
    14.0827  14.1886  14.5703  14.8356  15.1035  15.6041  15.8133  15.8906
    16.4607  16.5383  16.7354  16.7633  16.8675  17.0245  17.4725  17.5458
    17.7336  17.8970  17.9659  18.2939  18.4338  18.7718  18.8369  19.0198
    19.2659  19.6340  19.8835  19.9656

     occupation numbers 
     1.0000   1.0000   1.0000   1.0000   1.0000   1.0000   1.0000   1.0000
     1.0000   1.0000   1.0000   1.0000   1.0000   1.0000   1.0000   1.0000
     1.0000   1.0000   1.0000   1.0000   1.0000   1.0000   1.0000   1.0000
     1.0000   1.0000   1.0000   1.0000   1.0000   1.0000   1.0000   1.0000
     1.0000   1.0000   1.0000   1.0000   1.0000   1.0000   1.0000   0.0000
     0.0000   0.0000   0.0000   0.0000   0.0000   0.0000   0.0000   0.0000
     0.0000   0.0000   0.0000   0.0000   0.0000   0.0000   0.0000   0.0000
     0.0000   0.0000   0.0000   0.0000   0.0000   0.0000   0.0000   0.0000
     0.0000   0.0000   0.0000   0.0000   0.0000   0.0000   0.0000   0.0000
     0.0000   0.0000   0.0000   0.0000   0.0000   0.0000   0.0000   0.0000
     0.0000   0.0000   0.0000   0.0000   0.0000   0.0000   0.0000   0.0000
     0.0000   0.0000   0.0000   0.0000   0.0000   0.0000   0.0000   0.0000
     0.0000   0.0000   0.0000   0.0000

          k = 0.4615-0.0133 0.0000 ( 24971 PWs)   bands (ev):

   -36.7112 -36.7107 -36.6942 -36.6938 -36.6611 -36.6606 -36.6505 -36.6501
   -36.6380 -36.6376 -36.4281 -36.4238 -36.4133 -36.3804 -36.3784 -29.4228
   -29.4220 -29.4197 -29.4194 -29.4161 -29.4151 -29.4098 -29.4083 -29.4058
   -29.4044 -11.6379 -11.2694 -10.6959  -8.9457  -8.7535  -3.8668  -3.7761
    -2.9107  -2.5296  -2.4329  -1.7570  -0.2971   0.2111   0.2525   2.9573
     3.1119   3.4503   4.4829   5.0580   5.3345   7.0431   7.2462   7.5979
     7.7399   8.2913   8.6942   8.8621   9.5714   9.6757  10.2863  10.5380
    10.6861  10.8404  11.3007  11.4437  11.5225  12.0708  12.1202  12.1719
    12.2284  12.6808  12.7661  13.1281  13.1864  13.5563  13.8396  13.9232
    14.0242  14.2695  14.3918  14.6184  14.8140  15.2623  15.7076  16.0700
    16.3459  16.5459  16.8353  16.8909  16.9495  17.2949  17.5606  17.6119
    18.0162  18.0747  18.3653  18.6056  18.8887  18.9425  19.1354  19.2451
    19.4069  19.6336  19.7969  19.8654

     occupation numbers 
     1.0000   1.0000   1.0000   1.0000   1.0000   1.0000   1.0000   1.0000
     1.0000   1.0000   1.0000   1.0000   1.0000   1.0000   1.0000   1.0000
     1.0000   1.0000   1.0000   1.0000   1.0000   1.0000   1.0000   1.0000
     1.0000   1.0000   1.0000   1.0000   1.0000   1.0000   1.0000   1.0000
     1.0000   1.0000   1.0000   1.0000   1.0000   1.0000   1.0000   0.0000
     0.0000   0.0000   0.0000   0.0000   0.0000   0.0000   0.0000   0.0000
     0.0000   0.0000   0.0000   0.0000   0.0000   0.0000   0.0000   0.0000
     0.0000   0.0000   0.0000   0.0000   0.0000   0.0000   0.0000   0.0000
     0.0000   0.0000   0.0000   0.0000   0.0000   0.0000   0.0000   0.0000
     0.0000   0.0000   0.0000   0.0000   0.0000   0.0000   0.0000   0.0000
     0.0000   0.0000   0.0000   0.0000   0.0000   0.0000   0.0000   0.0000
     0.0000   0.0000   0.0000   0.0000   0.0000   0.0000   0.0000   0.0000
     0.0000   0.0000   0.0000   0.0000

          k = 0.4615 0.0799 0.0000 ( 24968 PWs)   bands (ev):

   -36.7097 -36.7092 -36.7022 -36.7018 -36.6592 -36.6588 -36.6541 -36.6536
   -36.6396 -36.6392 -36.4294 -36.4229 -36.4167 -36.3828 -36.3792 -29.4225
   -29.4222 -29.4212 -29.4208 -29.4161 -29.4153 -29.4082 -29.4070 -29.3957
   -29.3939 -11.6196 -11.2832 -10.7616  -9.0634  -8.6752  -4.1363  -3.3970
    -2.8863  -2.7384  -2.0641  -1.7186  -0.3818  -0.0539   0.5640   2.7477
     3.3019   3.4255   4.3756   5.0311   5.4308   6.3823   7.4266   7.6819
     8.1661   8.2245   8.8090   8.9906   9.5188   9.8053  10.1487  10.4299
    10.8595  10.8864  11.1106  11.2977  11.6218  12.0262  12.1105  12.3667
    12.6442  12.8025  12.9875  13.0955  13.2321  13.3319  13.6955  13.9214
    13.9604  14.2478  14.7301  14.9295  15.1706  15.5378  15.6995  15.8407
    16.2754  16.3690  16.7111  16.8809  16.9591  16.9690  17.4290  17.6104
    17.7791  17.9081  17.9945  18.1221  18.1990  18.4654  18.7534  18.9283
    19.0533  19.6170  19.7834  19.8110

     occupation numbers 
     1.0000   1.0000   1.0000   1.0000   1.0000   1.0000   1.0000   1.0000
     1.0000   1.0000   1.0000   1.0000   1.0000   1.0000   1.0000   1.0000
     1.0000   1.0000   1.0000   1.0000   1.0000   1.0000   1.0000   1.0000
     1.0000   1.0000   1.0000   1.0000   1.0000   1.0000   1.0000   1.0000
     1.0000   1.0000   1.0000   1.0000   1.0000   1.0000   1.0000   0.0000
     0.0000   0.0000   0.0000   0.0000   0.0000   0.0000   0.0000   0.0000
     0.0000   0.0000   0.0000   0.0000   0.0000   0.0000   0.0000   0.0000
     0.0000   0.0000   0.0000   0.0000   0.0000   0.0000   0.0000   0.0000
     0.0000   0.0000   0.0000   0.0000   0.0000   0.0000   0.0000   0.0000
     0.0000   0.0000   0.0000   0.0000   0.0000   0.0000   0.0000   0.0000
     0.0000   0.0000   0.0000   0.0000   0.0000   0.0000   0.0000   0.0000
     0.0000   0.0000   0.0000   0.0000   0.0000   0.0000   0.0000   0.0000
     0.0000   0.0000   0.0000   0.0000

          k = 0.4615 0.1732 0.0000 ( 24992 PWs)   bands (ev):

   -36.7101 -36.7096 -36.7020 -36.7015 -36.6582 -36.6579 -36.6558 -36.6552
   -36.6399 -36.6394 -36.4266 -36.4207 -36.4144 -36.3841 -36.3785 -29.4275
   -29.4274 -29.4257 -29.4249 -29.4171 -29.4157 -29.4074 -29.4067 -29.3914
   -29.3895 -11.5272 -11.2682 -10.8702  -9.2120  -8.6190  -4.3533  -3.1008
    -2.8560  -2.6246  -1.9904  -1.5064  -0.4452  -0.2004   0.4573   2.8305
     2.9375   3.3742   4.5087   4.7950   5.5388   5.8428   7.2792   7.8680
     8.2174   8.8262   9.0107   9.1148   9.6581   9.9301  10.2749  10.4035
    10.7972  11.0407  11.2727  11.4715  11.6415  11.9171  12.0733  12.4740
    12.5256  12.6466  13.0642  13.1616  13.5488  13.7353  13.9676  14.2001
    14.3383  14.4122  14.6765  15.0151  15.2344  15.2932  15.6505  15.8832
    16.0219  16.1554  16.3097  16.4328  16.7163  16.8450  16.9038  17.0279
    17.2610  17.4185  17.7716  17.9235  17.9457  18.5720  18.6533  18.8223
    19.0902  19.2047  19.3451  19.4447

     occupation numbers 
     1.0000   1.0000   1.0000   1.0000   1.0000   1.0000   1.0000   1.0000
     1.0000   1.0000   1.0000   1.0000   1.0000   1.0000   1.0000   1.0000
     1.0000   1.0000   1.0000   1.0000   1.0000   1.0000   1.0000   1.0000
     1.0000   1.0000   1.0000   1.0000   1.0000   1.0000   1.0000   1.0000
     1.0000   1.0000   1.0000   1.0000   1.0000   1.0000   1.0000   0.0000
     0.0000   0.0000   0.0000   0.0000   0.0000   0.0000   0.0000   0.0000
     0.0000   0.0000   0.0000   0.0000   0.0000   0.0000   0.0000   0.0000
     0.0000   0.0000   0.0000   0.0000   0.0000   0.0000   0.0000   0.0000
     0.0000   0.0000   0.0000   0.0000   0.0000   0.0000   0.0000   0.0000
     0.0000   0.0000   0.0000   0.0000   0.0000   0.0000   0.0000   0.0000
     0.0000   0.0000   0.0000   0.0000   0.0000   0.0000   0.0000   0.0000
     0.0000   0.0000   0.0000   0.0000   0.0000   0.0000   0.0000   0.0000
     0.0000   0.0000   0.0000   0.0000

     highest occupied, lowest unoccupied level (ev):     0.7320    1.6303

!    total energy              =    -805.31201800 Ry
     estimated scf accuracy    <       0.00000001 Ry

     convergence has been achieved in   4 iterations

     Using ACE for calculation of exact exchange
     ACE projected onto   100 (nbndproj) and applied to   100 (nbnd) bands

!!   total energy              =    -805.31201809 Ry
     Harris-Foulkes estimate   =    -805.31201740 Ry
     est. exchange err (dexx)  =       0.00000009 Ry
     - averaged Fock potential =      22.92255146 Ry
     + Fock energy (ACE)       =     -11.46128705 Ry

     EXX self-consistency reached

     Writing all to output data dir tmp/Sb2Te3-uatsx-c4-5.0.save/ :
     XML data file, charge density, pseudopotentials, collected wavefunctions

     init_run     :      2.99s CPU      3.07s WALL (       1 calls)
     electrons    :    741.03s CPU    751.05s WALL (       6 calls)

     Called by init_run:
     aceinit0     :      0.00s CPU      0.00s WALL (       1 calls)
     wfcinit      :      2.75s CPU      2.82s WALL (       1 calls)
     wfcinit:wfcr :      2.67s CPU      2.74s WALL (      43 calls)
     potinit      :      0.02s CPU      0.02s WALL (       1 calls)
     hinit0       :      0.15s CPU      0.16s WALL (       1 calls)

     Called by electrons:
     c_bands      :    698.47s CPU    707.16s WALL (      40 calls)
     sum_band     :     41.71s CPU     42.59s WALL (      40 calls)
     v_of_rho     :      0.39s CPU      0.39s WALL (      41 calls)
     v_h          :      0.03s CPU      0.03s WALL (      41 calls)
     v_xc         :      0.36s CPU      0.36s WALL (      41 calls)
     mix_rho      :      0.05s CPU      0.05s WALL (      40 calls)
     energy_londo :      0.06s CPU      0.06s WALL (       6 calls)

     Called by c_bands:
     init_us_2    :      0.98s CPU      1.03s WALL (    3483 calls)
     cegterg      :    640.27s CPU    648.16s WALL (    1734 calls)

     Called by sum_band:
     sum_band:wei :      0.02s CPU      0.02s WALL (      40 calls)
     sum_band:loo :     41.56s CPU     42.45s WALL (      40 calls)
     sum_band:buf :      0.53s CPU      0.58s WALL (    1720 calls)
     sum_band:ini :      0.49s CPU      0.52s WALL (    1720 calls)

     Called by *egterg:
     cdiaghg      :    244.82s CPU    246.15s WALL (   16589 calls)
     cegterg:over :     34.99s CPU     35.35s WALL (   15127 calls)
     cegterg:upda :      9.58s CPU      9.71s WALL (   15127 calls)
     cegterg:last :     13.27s CPU     13.39s WALL (    4843 calls)
     h_psi        :    311.14s CPU    316.91s WALL (   16904 calls)
     g_psi        :      1.40s CPU      1.42s WALL (   15127 calls)

     Called by h_psi:
     h_psi:calbec :     17.18s CPU     17.39s WALL (   16904 calls)
     vloc_psi     :    269.51s CPU    274.85s WALL (   16904 calls)
     add_vuspsi   :      4.81s CPU      4.87s WALL (   16904 calls)

     General routines
     calbec       :     35.42s CPU     35.83s WALL (   30240 calls)
     fft          :      0.49s CPU      0.50s WALL (     403 calls)
     ffts         :      0.03s CPU      0.03s WALL (      40 calls)
     fftw         :    297.10s CPU    302.92s WALL ( 1297336 calls)
     fftc         :   2787.50s CPU   2821.77s WALL ( 5160000 calls)
     fftcw        :     27.52s CPU     27.91s WALL (   77400 calls)

     Parallel routines

     EXX routines
     exx_grid     :      0.00s CPU      0.00s WALL (       1 calls)
     exxinit      :    143.27s CPU    144.88s WALL (       6 calls)
     vexx         :   3131.26s CPU   3170.05s WALL (     258 calls)
     matcalc      :     18.38s CPU     18.56s WALL (   13336 calls)
     aceupdate    :      0.25s CPU      0.25s WALL (     258 calls)
     vexxace      :     22.37s CPU     22.58s WALL (   12605 calls)
     aceinit      :   3132.32s CPU   3171.14s WALL (     258 calls)

     PWSCF        :      1h10m CPU      1h11m WALL


   This run was terminated on:   8: 6:12  20May2025            

=------------------------------------------------------------------------------=
   JOB DONE.
=------------------------------------------------------------------------------=
