
     Program PWSCF v.7.3.1 starts on 20May2025 at  3:58:26 

     This program is part of the open-source Quantum ESPRESSO suite
     for quantum simulation of materials; please cite
         "P. Giannozzi et al., J. Phys.:Condens. Matter 21 395502 (2009);
         "P. Giannozzi et al., J. Phys.:Condens. Matter 29 465901 (2017);
         "P. Giannozzi et al., J. Chem. Phys. 152 154105 (2020);
          URL http://www.quantum-espresso.org", 
     in publications or presentations arising from this work. More details at
     http://www.quantum-espresso.org/quote

     Parallel version (MPI & OpenMP), running on     168 processor cores
     Number of MPI processes:               168
     Threads/MPI process:                     1

     MPI processes distributed on     7 nodes
     101913 MiB available memory on the printing compute node when the environment starts

     Waiting for input...
     Reading input from standard input

     Current dimensions of program PWSCF are:
     Max number of different atomic species (ntypx) = 10
     Max number of k-points (npk) =  40000
     Max angular momentum in pseudopotentials (lmaxx) =  4

     IMPORTANT: XC functional enforced from input :
     Exchange-correlation= GAUP
                           (   1   4  20   4   0   0   0)
     EXX-fraction              =        0.24
     Any further DFT definition will be discarded
     Please, verify this is what you really want


     K-points division:     npool     =       2
     R & G space division:  proc/nbgrp/npool/nimage =      84
     Subspace diagonalization in iterative solution of the eigenvalue problem:
     a serial algorithm will be used

     EXX: q-point mesh:     1    1    1
     EXX: setup a grid of 85 q-points centered on each k-point
     (k+q)-points:
   0.0000000   0.0000000   0.0000000         1    1
   0.0000000   0.0914887   0.0000000         2    1
   0.0000000   0.1829774   0.0000000         3    1
   0.0000000   0.2744661   0.0000000         4    1
   0.0000000   0.3659548   0.0000000         5    1
   0.0000000   0.4574435   0.0000000         6    1
   0.0000000   0.5489322   0.0000000         7    1
   0.0769231   0.0444120   0.0000000         8    1
   0.0769231   0.1359007   0.0000000         9    1
   0.0769231   0.2273894   0.0000000        10    1
   0.0769231   0.3188781   0.0000000        11    1
   0.0769231   0.4103668   0.0000000        12    1
   0.0769231   0.5018555   0.0000000        13    1
   0.0769231   0.5933442   0.0000000        14    1
   0.0769231  -0.5045202   0.0000000        15    1
   0.0769231  -0.4130315   0.0000000        16    1
   0.0769231  -0.3215428   0.0000000        17    1
   0.0769231  -0.2300541   0.0000000        18    1
   0.0769231  -0.1385654   0.0000000        19    1
   0.0769231  -0.0470767   0.0000000        20    1
   0.1538462   0.0888240   0.0000000        21    1
   0.1538462   0.1803127   0.0000000        22    1
   0.1538462   0.2718014   0.0000000        23    1
   0.1538462   0.3632901   0.0000000        24    1
   0.1538462   0.4547788   0.0000000        25    1
   0.1538462   0.5462675   0.0000000        26    1
   0.1538462   0.6377562   0.0000000        27    1
   0.1538462  -0.4601082   0.0000000        28    1
   0.1538462  -0.3686195   0.0000000        29    1
   0.1538462  -0.2771308   0.0000000        30    1
   0.1538462  -0.1856421   0.0000000        31    1
   0.1538462  -0.0941534   0.0000000        32    1
   0.1538462  -0.0026647   0.0000000        33    1
   0.2307692   0.1332360   0.0000000        34    1
   0.2307692   0.2247247   0.0000000        35    1
   0.2307692   0.3162134   0.0000000        36    1
   0.2307692   0.4077021   0.0000000        37    1
   0.2307692   0.4991908   0.0000000        38    1
   0.2307692   0.5906795   0.0000000        39    1
   0.2307692   0.6821681   0.0000000        40    1
   0.2307692  -0.4156962   0.0000000        41    1
   0.2307692  -0.3242075   0.0000000        42    1
   0.2307692  -0.2327188   0.0000000        43    1
   0.2307692  -0.1412301   0.0000000        44    1
   0.2307692  -0.0497414   0.0000000        45    1
   0.2307692   0.0417473   0.0000000        46    1
   0.3076923   0.1776480   0.0000000        47    1
   0.3076923   0.2691367   0.0000000        48    1
   0.3076923   0.3606253   0.0000000        49    1
   0.3076923   0.4521140   0.0000000        50    1
   0.3076923   0.5436027   0.0000000        51    1
   0.3076923   0.6350914   0.0000000        52    1
   0.3076923   0.7265801   0.0000000        53    1
   0.3076923  -0.3712842   0.0000000        54    1
   0.3076923  -0.2797955   0.0000000        55    1
   0.3076923  -0.1883068   0.0000000        56    1
   0.3076923  -0.0968181   0.0000000        57    1
   0.3076923  -0.0053294   0.0000000        58    1
   0.3076923   0.0861593   0.0000000        59    1
   0.3846154   0.2220599   0.0000000        60    1
   0.3846154   0.3135486   0.0000000        61    1
   0.3846154   0.4050373   0.0000000        62    1
   0.3846154   0.4965260   0.0000000        63    1
   0.3846154   0.5880147   0.0000000        64    1
   0.3846154   0.6795034   0.0000000        65    1
   0.3846154   0.7709921   0.0000000        66    1
   0.3846154  -0.3268722   0.0000000        67    1
   0.3846154  -0.2353835   0.0000000        68    1
   0.3846154  -0.1438948   0.0000000        69    1
   0.3846154  -0.0524061   0.0000000        70    1
   0.3846154   0.0390826   0.0000000        71    1
   0.3846154   0.1305712   0.0000000        72    1
   0.4615385   0.2664719   0.0000000        73    1
   0.4615385   0.3579606   0.0000000        74    1
   0.4615385   0.4494493   0.0000000        75    1
   0.4615385   0.5409380   0.0000000        76    1
   0.4615385   0.6324267   0.0000000        77    1
   0.4615385   0.7239154   0.0000000        78    1
   0.4615385   0.8154041   0.0000000        79    1
   0.4615385  -0.2824602   0.0000000        80    1
   0.4615385  -0.1909716   0.0000000        81    1
   0.4615385  -0.0994829   0.0000000        82    1
   0.4615385  -0.0079942   0.0000000        83    1
   0.4615385   0.0834945   0.0000000        84    1
   0.4615385   0.1749832   0.0000000        85    1

     Parallelization info
     --------------------
     sticks:   dense  smooth     PW     G-vecs:    dense   smooth      PW
     Min          15      15      4                 2317     2317     356
     Max          16      16      5                 2352     2352     389
     Sum        1319    1319    385               196125   196125   31161

     Using Slab Decomposition



     bravais-lattice index     =            0
     lattice parameter (alat)  =       8.3900  a.u.
     unit-cell volume          =    2478.7943 (a.u.)^3
     number of atoms/cell      =            5
     number of atomic types    =            2
     number of electrons       =        78.00
     number of Kohn-Sham states=          100
     kinetic-energy cutoff     =      70.0000  Ry
     charge density cutoff     =     280.0000  Ry
     cutoff for Fock operator  =     280.0000  Ry
     scf convergence threshold =      1.0E-07
     mixing beta               =       0.7000
     number of iterations used =            8  plain     mixing
     Exchange-correlation= GAUP
                           (   1   4  20   4   0   0   0)
     EXX-fraction              =        0.24

     celldm(1)=   8.390002  celldm(2)=   0.000000  celldm(3)=   0.000000
     celldm(4)=   0.000000  celldm(5)=   0.000000  celldm(6)=   0.000000

     crystal axes: (cart. coord. in units of alat)
               a(1) = (   1.000000   0.000000   0.000000 )  
               a(2) = (  -0.485437   0.840793   0.000000 )  
               a(3) = (   0.000000   0.000000   4.991890 )  

     reciprocal axes: (cart. coord. in units 2 pi/alat)
               b(1) = (  1.000000  0.577356 -0.000000 )  
               b(2) = (  0.000000  1.189353  0.000000 )  
               b(3) = (  0.000000 -0.000000  0.200325 )  


     PseudoPot. # 1 for Sb read from file:
     /zfs-home/202401017n/pseudos/Sb_ONCV_PBE-1.2.upf
     MD5 check sum: 0417cd6c0fe8ce4611e2b23135f1abd9
     Pseudo is Norm-conserving, Zval = 15.0
     Generated using ONCVPSP code by D. R. Hamann
     Using radial grid of  602 points,  6 beta functions with: 
                l(1) =   0
                l(2) =   0
                l(3) =   1
                l(4) =   1
                l(5) =   2
                l(6) =   2

     PseudoPot. # 2 for Te read from file:
     /zfs-home/202401017n/pseudos/Te_ONCV_PBE-1.2.upf
     MD5 check sum: dd4de4dac1e38587f63aaf3700bb29d3
     Pseudo is Norm-conserving, Zval = 16.0
     Generated using ONCVPSP code by D. R. Hamann
     Using radial grid of  602 points,  6 beta functions with: 
                l(1) =   0
                l(2) =   0
                l(3) =   1
                l(4) =   1
                l(5) =   2
                l(6) =   2

     atomic species   valence    mass     pseudopotential
     Sb               15.00   121.76000     Sb( 1.00)
     Te               16.00   127.60000     Te( 1.00)

     No symmetry found


                                    s                        frac. trans.

      isym =  1     identity                                     

 cryst.   s( 1) = (     1          0          0      )
                  (     0          1          0      )
                  (     0          0          1      )

 cart.    s( 1) = (  1.0000000  0.0000000  0.0000000 )
                  (  0.0000000  1.0000000  0.0000000 )
                  (  0.0000000  0.0000000  1.0000000 )


   Cartesian axes

     site n.     atom                  positions (alat units)
         1        Sb     tau(   1) = (   0.5867812   0.4172984   2.9417443  )
         2        Te     tau(   2) = (   0.5754457   0.3979752   1.6726131  )
         3        Sb     tau(   3) = (   0.0727921   0.1220272   2.0501240  )
         4        Te     tau(   4) = (   0.0840698   0.1416820   3.3192296  )
         5        Te     tau(   5) = (   0.0870265   0.6902229   2.4959189  )

     -------------------------------------------------
     Parameters for Dispersion (Grimme-D2) Correction:
     -------------------------------------------------
       atom      VdW radius       C_6     

        Sb         3.555       1333.532
        Te         3.575       1101.101

   Crystallographic axes

     site n.     atom                  positions (cryst. coord.)
         1        Sb     tau(   1) = (  0.8277109  0.4963151  0.5893047  )
         2        Te     tau(   2) = (  0.8052190  0.4733330  0.3350661  )
         3        Sb     tau(   3) = (  0.1432452  0.1451335  0.4106909  )
         4        Te     tau(   4) = (  0.1658708  0.1685099  0.6649244  )
         5        Te     tau(   5) = (  0.4855307  0.8209187  0.4999948  )

     number of k points=    85
                       cart. coord. in units 2pi/alat
        k(    1) = (   0.0000000   0.0000000   0.0000000), wk =   0.0118343
        k(    2) = (   0.0000000   0.0914887   0.0000000), wk =   0.0236686
        k(    3) = (   0.0000000   0.1829774   0.0000000), wk =   0.0236686
        k(    4) = (   0.0000000   0.2744661   0.0000000), wk =   0.0236686
        k(    5) = (   0.0000000   0.3659548   0.0000000), wk =   0.0236686
        k(    6) = (   0.0000000   0.4574435   0.0000000), wk =   0.0236686
        k(    7) = (   0.0000000   0.5489322   0.0000000), wk =   0.0236686
        k(    8) = (   0.0769231   0.0444120   0.0000000), wk =   0.0236686
        k(    9) = (   0.0769231   0.1359007   0.0000000), wk =   0.0236686
        k(   10) = (   0.0769231   0.2273894   0.0000000), wk =   0.0236686
        k(   11) = (   0.0769231   0.3188781   0.0000000), wk =   0.0236686
        k(   12) = (   0.0769231   0.4103668   0.0000000), wk =   0.0236686
        k(   13) = (   0.0769231   0.5018555   0.0000000), wk =   0.0236686
        k(   14) = (   0.0769231   0.5933442   0.0000000), wk =   0.0236686
        k(   15) = (   0.0769231  -0.5045202   0.0000000), wk =   0.0236686
        k(   16) = (   0.0769231  -0.4130315   0.0000000), wk =   0.0236686
        k(   17) = (   0.0769231  -0.3215428   0.0000000), wk =   0.0236686
        k(   18) = (   0.0769231  -0.2300541   0.0000000), wk =   0.0236686
        k(   19) = (   0.0769231  -0.1385654   0.0000000), wk =   0.0236686
        k(   20) = (   0.0769231  -0.0470767   0.0000000), wk =   0.0236686
        k(   21) = (   0.1538462   0.0888240   0.0000000), wk =   0.0236686
        k(   22) = (   0.1538462   0.1803127   0.0000000), wk =   0.0236686
        k(   23) = (   0.1538462   0.2718014   0.0000000), wk =   0.0236686
        k(   24) = (   0.1538462   0.3632901   0.0000000), wk =   0.0236686
        k(   25) = (   0.1538462   0.4547788   0.0000000), wk =   0.0236686
        k(   26) = (   0.1538462   0.5462675   0.0000000), wk =   0.0236686
        k(   27) = (   0.1538462   0.6377562   0.0000000), wk =   0.0236686
        k(   28) = (   0.1538462  -0.4601082   0.0000000), wk =   0.0236686
        k(   29) = (   0.1538462  -0.3686195   0.0000000), wk =   0.0236686
        k(   30) = (   0.1538462  -0.2771308   0.0000000), wk =   0.0236686
        k(   31) = (   0.1538462  -0.1856421   0.0000000), wk =   0.0236686
        k(   32) = (   0.1538462  -0.0941534   0.0000000), wk =   0.0236686
        k(   33) = (   0.1538462  -0.0026647   0.0000000), wk =   0.0236686
        k(   34) = (   0.2307692   0.1332360   0.0000000), wk =   0.0236686
        k(   35) = (   0.2307692   0.2247247   0.0000000), wk =   0.0236686
        k(   36) = (   0.2307692   0.3162134   0.0000000), wk =   0.0236686
        k(   37) = (   0.2307692   0.4077021   0.0000000), wk =   0.0236686
        k(   38) = (   0.2307692   0.4991908   0.0000000), wk =   0.0236686
        k(   39) = (   0.2307692   0.5906795   0.0000000), wk =   0.0236686
        k(   40) = (   0.2307692   0.6821681   0.0000000), wk =   0.0236686
        k(   41) = (   0.2307692  -0.4156962   0.0000000), wk =   0.0236686
        k(   42) = (   0.2307692  -0.3242075   0.0000000), wk =   0.0236686
        k(   43) = (   0.2307692  -0.2327188   0.0000000), wk =   0.0236686
        k(   44) = (   0.2307692  -0.1412301   0.0000000), wk =   0.0236686
        k(   45) = (   0.2307692  -0.0497414   0.0000000), wk =   0.0236686
        k(   46) = (   0.2307692   0.0417473   0.0000000), wk =   0.0236686
        k(   47) = (   0.3076923   0.1776480   0.0000000), wk =   0.0236686
        k(   48) = (   0.3076923   0.2691367   0.0000000), wk =   0.0236686
        k(   49) = (   0.3076923   0.3606253   0.0000000), wk =   0.0236686
        k(   50) = (   0.3076923   0.4521140   0.0000000), wk =   0.0236686
        k(   51) = (   0.3076923   0.5436027   0.0000000), wk =   0.0236686
        k(   52) = (   0.3076923   0.6350914   0.0000000), wk =   0.0236686
        k(   53) = (   0.3076923   0.7265801   0.0000000), wk =   0.0236686
        k(   54) = (   0.3076923  -0.3712842   0.0000000), wk =   0.0236686
        k(   55) = (   0.3076923  -0.2797955   0.0000000), wk =   0.0236686
        k(   56) = (   0.3076923  -0.1883068   0.0000000), wk =   0.0236686
        k(   57) = (   0.3076923  -0.0968181   0.0000000), wk =   0.0236686
        k(   58) = (   0.3076923  -0.0053294   0.0000000), wk =   0.0236686
        k(   59) = (   0.3076923   0.0861593   0.0000000), wk =   0.0236686
        k(   60) = (   0.3846154   0.2220599   0.0000000), wk =   0.0236686
        k(   61) = (   0.3846154   0.3135486   0.0000000), wk =   0.0236686
        k(   62) = (   0.3846154   0.4050373   0.0000000), wk =   0.0236686
        k(   63) = (   0.3846154   0.4965260   0.0000000), wk =   0.0236686
        k(   64) = (   0.3846154   0.5880147   0.0000000), wk =   0.0236686
        k(   65) = (   0.3846154   0.6795034   0.0000000), wk =   0.0236686
        k(   66) = (   0.3846154   0.7709921   0.0000000), wk =   0.0236686
        k(   67) = (   0.3846154  -0.3268722   0.0000000), wk =   0.0236686
        k(   68) = (   0.3846154  -0.2353835   0.0000000), wk =   0.0236686
        k(   69) = (   0.3846154  -0.1438948   0.0000000), wk =   0.0236686
        k(   70) = (   0.3846154  -0.0524061   0.0000000), wk =   0.0236686
        k(   71) = (   0.3846154   0.0390826   0.0000000), wk =   0.0236686
        k(   72) = (   0.3846154   0.1305712   0.0000000), wk =   0.0236686
        k(   73) = (   0.4615385   0.2664719   0.0000000), wk =   0.0236686
        k(   74) = (   0.4615385   0.3579606   0.0000000), wk =   0.0236686
        k(   75) = (   0.4615385   0.4494493   0.0000000), wk =   0.0236686
        k(   76) = (   0.4615385   0.5409380   0.0000000), wk =   0.0236686
        k(   77) = (   0.4615385   0.6324267   0.0000000), wk =   0.0236686
        k(   78) = (   0.4615385   0.7239154   0.0000000), wk =   0.0236686
        k(   79) = (   0.4615385   0.8154041   0.0000000), wk =   0.0236686
        k(   80) = (   0.4615385  -0.2824602   0.0000000), wk =   0.0236686
        k(   81) = (   0.4615385  -0.1909716   0.0000000), wk =   0.0236686
        k(   82) = (   0.4615385  -0.0994829   0.0000000), wk =   0.0236686
        k(   83) = (   0.4615385  -0.0079942   0.0000000), wk =   0.0236686
        k(   84) = (   0.4615385   0.0834945   0.0000000), wk =   0.0236686
        k(   85) = (   0.4615385   0.1749832   0.0000000), wk =   0.0236686

                       cryst. coord.
        k(    1) = (   0.0000000   0.0000000   0.0000000), wk =   0.0118343
        k(    2) = (   0.0000000   0.0769231   0.0000000), wk =   0.0236686
        k(    3) = (   0.0000000   0.1538462   0.0000000), wk =   0.0236686
        k(    4) = (   0.0000000   0.2307692   0.0000000), wk =   0.0236686
        k(    5) = (   0.0000000   0.3076923   0.0000000), wk =   0.0236686
        k(    6) = (   0.0000000   0.3846154   0.0000000), wk =   0.0236686
        k(    7) = (   0.0000000   0.4615385   0.0000000), wk =   0.0236686
        k(    8) = (   0.0769231   0.0000000   0.0000000), wk =   0.0236686
        k(    9) = (   0.0769231   0.0769231   0.0000000), wk =   0.0236686
        k(   10) = (   0.0769231   0.1538462   0.0000000), wk =   0.0236686
        k(   11) = (   0.0769231   0.2307692   0.0000000), wk =   0.0236686
        k(   12) = (   0.0769231   0.3076923   0.0000000), wk =   0.0236686
        k(   13) = (   0.0769231   0.3846154   0.0000000), wk =   0.0236686
        k(   14) = (   0.0769231   0.4615385   0.0000000), wk =   0.0236686
        k(   15) = (   0.0769231  -0.4615385   0.0000000), wk =   0.0236686
        k(   16) = (   0.0769231  -0.3846154   0.0000000), wk =   0.0236686
        k(   17) = (   0.0769231  -0.3076923   0.0000000), wk =   0.0236686
        k(   18) = (   0.0769231  -0.2307692   0.0000000), wk =   0.0236686
        k(   19) = (   0.0769231  -0.1538462   0.0000000), wk =   0.0236686
        k(   20) = (   0.0769231  -0.0769231   0.0000000), wk =   0.0236686
        k(   21) = (   0.1538462   0.0000000   0.0000000), wk =   0.0236686
        k(   22) = (   0.1538462   0.0769231   0.0000000), wk =   0.0236686
        k(   23) = (   0.1538462   0.1538462   0.0000000), wk =   0.0236686
        k(   24) = (   0.1538462   0.2307692   0.0000000), wk =   0.0236686
        k(   25) = (   0.1538462   0.3076923   0.0000000), wk =   0.0236686
        k(   26) = (   0.1538462   0.3846154   0.0000000), wk =   0.0236686
        k(   27) = (   0.1538462   0.4615385   0.0000000), wk =   0.0236686
        k(   28) = (   0.1538462  -0.4615385   0.0000000), wk =   0.0236686
        k(   29) = (   0.1538462  -0.3846154   0.0000000), wk =   0.0236686
        k(   30) = (   0.1538462  -0.3076923   0.0000000), wk =   0.0236686
        k(   31) = (   0.1538462  -0.2307692   0.0000000), wk =   0.0236686
        k(   32) = (   0.1538462  -0.1538462   0.0000000), wk =   0.0236686
        k(   33) = (   0.1538462  -0.0769231   0.0000000), wk =   0.0236686
        k(   34) = (   0.2307692  -0.0000000   0.0000000), wk =   0.0236686
        k(   35) = (   0.2307692   0.0769231   0.0000000), wk =   0.0236686
        k(   36) = (   0.2307692   0.1538462   0.0000000), wk =   0.0236686
        k(   37) = (   0.2307692   0.2307692   0.0000000), wk =   0.0236686
        k(   38) = (   0.2307692   0.3076923   0.0000000), wk =   0.0236686
        k(   39) = (   0.2307692   0.3846154   0.0000000), wk =   0.0236686
        k(   40) = (   0.2307692   0.4615385   0.0000000), wk =   0.0236686
        k(   41) = (   0.2307692  -0.4615385   0.0000000), wk =   0.0236686
        k(   42) = (   0.2307692  -0.3846154   0.0000000), wk =   0.0236686
        k(   43) = (   0.2307692  -0.3076923   0.0000000), wk =   0.0236686
        k(   44) = (   0.2307692  -0.2307692   0.0000000), wk =   0.0236686
        k(   45) = (   0.2307692  -0.1538462   0.0000000), wk =   0.0236686
        k(   46) = (   0.2307692  -0.0769231   0.0000000), wk =   0.0236686
        k(   47) = (   0.3076923   0.0000000   0.0000000), wk =   0.0236686
        k(   48) = (   0.3076923   0.0769231   0.0000000), wk =   0.0236686
        k(   49) = (   0.3076923   0.1538462   0.0000000), wk =   0.0236686
        k(   50) = (   0.3076923   0.2307692   0.0000000), wk =   0.0236686
        k(   51) = (   0.3076923   0.3076923   0.0000000), wk =   0.0236686
        k(   52) = (   0.3076923   0.3846154   0.0000000), wk =   0.0236686
        k(   53) = (   0.3076923   0.4615385   0.0000000), wk =   0.0236686
        k(   54) = (   0.3076923  -0.4615385   0.0000000), wk =   0.0236686
        k(   55) = (   0.3076923  -0.3846154   0.0000000), wk =   0.0236686
        k(   56) = (   0.3076923  -0.3076923   0.0000000), wk =   0.0236686
        k(   57) = (   0.3076923  -0.2307692   0.0000000), wk =   0.0236686
        k(   58) = (   0.3076923  -0.1538462   0.0000000), wk =   0.0236686
        k(   59) = (   0.3076923  -0.0769231   0.0000000), wk =   0.0236686
        k(   60) = (   0.3846154  -0.0000000   0.0000000), wk =   0.0236686
        k(   61) = (   0.3846154   0.0769231   0.0000000), wk =   0.0236686
        k(   62) = (   0.3846154   0.1538462   0.0000000), wk =   0.0236686
        k(   63) = (   0.3846154   0.2307692   0.0000000), wk =   0.0236686
        k(   64) = (   0.3846154   0.3076923   0.0000000), wk =   0.0236686
        k(   65) = (   0.3846154   0.3846154   0.0000000), wk =   0.0236686
        k(   66) = (   0.3846154   0.4615385   0.0000000), wk =   0.0236686
        k(   67) = (   0.3846154  -0.4615385   0.0000000), wk =   0.0236686
        k(   68) = (   0.3846154  -0.3846154   0.0000000), wk =   0.0236686
        k(   69) = (   0.3846154  -0.3076923   0.0000000), wk =   0.0236686
        k(   70) = (   0.3846154  -0.2307692   0.0000000), wk =   0.0236686
        k(   71) = (   0.3846154  -0.1538462   0.0000000), wk =   0.0236686
        k(   72) = (   0.3846154  -0.0769231   0.0000000), wk =   0.0236686
        k(   73) = (   0.4615385  -0.0000000   0.0000000), wk =   0.0236686
        k(   74) = (   0.4615385   0.0769231   0.0000000), wk =   0.0236686
        k(   75) = (   0.4615385   0.1538462   0.0000000), wk =   0.0236686
        k(   76) = (   0.4615385   0.2307692   0.0000000), wk =   0.0236686
        k(   77) = (   0.4615385   0.3076923   0.0000000), wk =   0.0236686
        k(   78) = (   0.4615385   0.3846154   0.0000000), wk =   0.0236686
        k(   79) = (   0.4615385   0.4615385   0.0000000), wk =   0.0236686
        k(   80) = (   0.4615385  -0.4615385   0.0000000), wk =   0.0236686
        k(   81) = (   0.4615385  -0.3846154   0.0000000), wk =   0.0236686
        k(   82) = (   0.4615385  -0.3076923   0.0000000), wk =   0.0236686
        k(   83) = (   0.4615385  -0.2307692   0.0000000), wk =   0.0236686
        k(   84) = (   0.4615385  -0.1538462   0.0000000), wk =   0.0236686
        k(   85) = (   0.4615385  -0.0769231   0.0000000), wk =   0.0236686

     Dense  grid:   196125 G-vectors     FFT dimensions: (  45,  45, 225)

     Dynamical RAM for                 wfc:       0.44 MB

     Dynamical RAM for     wfc (w. buffer):      19.54 MB

     Dynamical RAM for                 EXX:     636.77 MB

     Dynamical RAM for           str. fact:       0.07 MB

     Dynamical RAM for           local pot:       0.00 MB

     Dynamical RAM for          nlocal pot:       0.40 MB

     Dynamical RAM for                qrad:       2.85 MB

     Dynamical RAM for          rho,v,vnew:       0.25 MB

     Dynamical RAM for               rhoin:       0.08 MB

     Dynamical RAM for            rho*nmix:       0.57 MB

     Dynamical RAM for           G-vectors:       0.15 MB

     Dynamical RAM for          h,s,v(r/c):       1.83 MB

     Dynamical RAM for          <psi|beta>:       0.14 MB

     Dynamical RAM for                 psi:       0.89 MB

     Dynamical RAM for                hpsi:       0.89 MB

     Dynamical RAM for      wfcinit/wfcrot:       1.12 MB

     Estimated static dynamical RAM per process >     660.45 MB

     Estimated max dynamical RAM per process >     664.77 MB

     Estimated total dynamical RAM >     109.02 GB
     EXX: ACE will be initialized later

     Initial potential from superposition of free atoms

     starting charge      77.7638, renormalised to      78.0000

     negative rho (up, down):  6.597E-04 0.000E+00
     Starting wfcs are random

     total cpu time spent up to now is        3.4 secs

     Self-consistent Calculation

     iteration #  1     ecut=    70.00 Ry     beta= 0.70
     Davidson diagonalization with overlap

---- Real-time Memory Report at c_bands before calling an iterative solver
           208 MiB given to the printing process from OS
             0 MiB allocation reported by mallinfo(arena+hblkhd)
        101259 MiB available memory on the node where the printing process lives
------------------
     ethr =  1.00E-02,  avg # of iterations =  9.1

     Threshold (ethr) on eigenvalues was too large:
     Diagonalizing with lowered threshold

     Davidson diagonalization with overlap

---- Real-time Memory Report at c_bands before calling an iterative solver
           214 MiB given to the printing process from OS
             0 MiB allocation reported by mallinfo(arena+hblkhd)
        101172 MiB available memory on the node where the printing process lives
------------------
     ethr =  1.25E-04,  avg # of iterations = 10.3

     negative rho (up, down):  5.552E-05 0.000E+00

     total cpu time spent up to now is       54.2 secs

     total energy              =    -806.58032104 Ry
     estimated scf accuracy    <       0.08581546 Ry

     iteration #  2     ecut=    70.00 Ry     beta= 0.70
     Davidson diagonalization with overlap

---- Real-time Memory Report at c_bands before calling an iterative solver
           214 MiB given to the printing process from OS
             0 MiB allocation reported by mallinfo(arena+hblkhd)
        101171 MiB available memory on the node where the printing process lives
------------------
     ethr =  1.10E-04,  avg # of iterations = 10.0

     negative rho (up, down):  4.508E-05 0.000E+00

     total cpu time spent up to now is       73.3 secs

     total energy              =    -806.51635886 Ry
     estimated scf accuracy    <       0.57143233 Ry

     iteration #  3     ecut=    70.00 Ry     beta= 0.70
     Davidson diagonalization with overlap

---- Real-time Memory Report at c_bands before calling an iterative solver
           214 MiB given to the printing process from OS
             0 MiB allocation reported by mallinfo(arena+hblkhd)
        101159 MiB available memory on the node where the printing process lives
------------------
     c_bands:  1 eigenvalues not converged
     ethr =  1.10E-04,  avg # of iterations = 11.4

     negative rho (up, down):  2.752E-05 0.000E+00

     total cpu time spent up to now is       93.4 secs

     total energy              =    -806.58983877 Ry
     estimated scf accuracy    <       0.26664402 Ry

     iteration #  4     ecut=    70.00 Ry     beta= 0.70
     Davidson diagonalization with overlap

---- Real-time Memory Report at c_bands before calling an iterative solver
           214 MiB given to the printing process from OS
             0 MiB allocation reported by mallinfo(arena+hblkhd)
        101158 MiB available memory on the node where the printing process lives
------------------
     ethr =  1.10E-04,  avg # of iterations =  6.1

     negative rho (up, down):  3.457E-06 0.000E+00

     total cpu time spent up to now is      107.8 secs

     total energy              =    -806.61757791 Ry
     estimated scf accuracy    <       0.00239399 Ry

     iteration #  5     ecut=    70.00 Ry     beta= 0.70
     Davidson diagonalization with overlap

---- Real-time Memory Report at c_bands before calling an iterative solver
           214 MiB given to the printing process from OS
             0 MiB allocation reported by mallinfo(arena+hblkhd)
        101153 MiB available memory on the node where the printing process lives
------------------
     c_bands:  1 eigenvalues not converged
     ethr =  3.07E-06,  avg # of iterations =  8.9

     negative rho (up, down):  2.588E-06 0.000E+00

     total cpu time spent up to now is      126.7 secs

     total energy              =    -806.61735372 Ry
     estimated scf accuracy    <       0.00471452 Ry

     iteration #  6     ecut=    70.00 Ry     beta= 0.70
     Davidson diagonalization with overlap

---- Real-time Memory Report at c_bands before calling an iterative solver
           215 MiB given to the printing process from OS
             0 MiB allocation reported by mallinfo(arena+hblkhd)
        101152 MiB available memory on the node where the printing process lives
------------------
     ethr =  3.07E-06,  avg # of iterations =  7.9

     total cpu time spent up to now is      141.7 secs

     total energy              =    -806.61781733 Ry
     estimated scf accuracy    <       0.00312061 Ry

     iteration #  7     ecut=    70.00 Ry     beta= 0.70
     Davidson diagonalization with overlap

---- Real-time Memory Report at c_bands before calling an iterative solver
           215 MiB given to the printing process from OS
             0 MiB allocation reported by mallinfo(arena+hblkhd)
        101151 MiB available memory on the node where the printing process lives
------------------
     ethr =  3.07E-06,  avg # of iterations =  5.2

     total cpu time spent up to now is      153.2 secs

     total energy              =    -806.61799134 Ry
     estimated scf accuracy    <       0.00000799 Ry

     iteration #  8     ecut=    70.00 Ry     beta= 0.70
     Davidson diagonalization with overlap

---- Real-time Memory Report at c_bands before calling an iterative solver
           215 MiB given to the printing process from OS
             0 MiB allocation reported by mallinfo(arena+hblkhd)
        101147 MiB available memory on the node where the printing process lives
------------------
     ethr =  1.02E-08,  avg # of iterations = 12.4

     total cpu time spent up to now is      175.6 secs

     total energy              =    -806.61799288 Ry
     estimated scf accuracy    <       0.00000052 Ry

     iteration #  9     ecut=    70.00 Ry     beta= 0.70
     Davidson diagonalization with overlap

---- Real-time Memory Report at c_bands before calling an iterative solver
           215 MiB given to the printing process from OS
             0 MiB allocation reported by mallinfo(arena+hblkhd)
        101142 MiB available memory on the node where the printing process lives
------------------
     ethr =  6.60E-10,  avg # of iterations =  7.4

     total cpu time spent up to now is      193.0 secs

     total energy              =    -806.61799295 Ry
     estimated scf accuracy    <       0.00000095 Ry

     iteration # 10     ecut=    70.00 Ry     beta= 0.70
     Davidson diagonalization with overlap

---- Real-time Memory Report at c_bands before calling an iterative solver
           215 MiB given to the printing process from OS
             0 MiB allocation reported by mallinfo(arena+hblkhd)
        101137 MiB available memory on the node where the printing process lives
------------------
     ethr =  6.60E-10,  avg # of iterations =  5.2

     total cpu time spent up to now is      206.5 secs

     End of self-consistent calculation

          k = 0.0000 0.0000 0.0000 ( 24437 PWs)   bands (ev):

   -34.7692 -34.7690 -34.7689 -34.7687 -34.7375 -34.7371 -34.7322 -34.7321
   -34.7226 -34.7223 -34.6636 -34.6578 -34.6474 -34.6193 -34.6184 -27.5435
   -27.5435 -27.5430 -27.5428 -27.5360 -27.5357 -27.5322 -27.5321 -27.5302
   -27.5300 -10.7044 -10.1674  -9.0913  -6.3503  -4.9870  -0.2154  -0.0185
     0.2069   0.2209   0.3891   0.7128   0.8148   0.9555   1.1794   2.1353
     2.6666   2.7730   3.5811   3.7819   3.8465   6.1601   6.3473   6.9478
     7.3635   7.5414   7.7859   8.3291   8.5351   8.6747   8.6970   9.1252
     9.4823   9.6320   9.9717  10.0523  10.4707  10.9127  11.3166  11.3991
    11.4338  11.6332  12.7763  12.8029  13.7256  14.0034  14.1166  14.1708
    14.3658  15.0017  15.5684  15.9116  15.9398  15.9970  16.1482  16.2929
    16.6125  16.9008  16.9184  16.9624  17.2137  17.2162  17.2840  17.3034
    17.5025  17.5099  17.6100  17.7568  17.8055  18.0629  18.8173  18.8760
    18.9598  19.1732  19.1754  19.2601

     occupation numbers 
     1.0000   1.0000   1.0000   1.0000   1.0000   1.0000   1.0000   1.0000
     1.0000   1.0000   1.0000   1.0000   1.0000   1.0000   1.0000   1.0000
     1.0000   1.0000   1.0000   1.0000   1.0000   1.0000   1.0000   1.0000
     1.0000   1.0000   1.0000   1.0000   1.0000   1.0000   1.0000   1.0000
     1.0000   1.0000   1.0000   1.0000   1.0000   1.0000   1.0000   0.0000
     0.0000   0.0000   0.0000   0.0000   0.0000   0.0000   0.0000   0.0000
     0.0000   0.0000   0.0000   0.0000   0.0000   0.0000   0.0000   0.0000
     0.0000   0.0000   0.0000   0.0000   0.0000   0.0000   0.0000   0.0000
     0.0000   0.0000   0.0000   0.0000   0.0000   0.0000   0.0000   0.0000
     0.0000   0.0000   0.0000   0.0000   0.0000   0.0000   0.0000   0.0000
     0.0000   0.0000   0.0000   0.0000   0.0000   0.0000   0.0000   0.0000
     0.0000   0.0000   0.0000   0.0000   0.0000   0.0000   0.0000   0.0000
     0.0000   0.0000   0.0000   0.0000

          k = 0.0000 0.0915 0.0000 ( 24432 PWs)   bands (ev):

   -34.7692 -34.7690 -34.7688 -34.7686 -34.7375 -34.7371 -34.7322 -34.7321
   -34.7225 -34.7223 -34.6635 -34.6578 -34.6474 -34.6193 -34.6184 -27.5436
   -27.5435 -27.5428 -27.5426 -27.5359 -27.5356 -27.5323 -27.5321 -27.5304
   -27.5301 -10.6529 -10.1201  -9.0626  -6.3579  -5.0713  -0.4626  -0.2210
    -0.0983   0.0510   0.1558   0.4387   0.8906   1.0966   1.5146   2.2737
     2.7540   2.8873   3.5763   3.8624   4.1430   6.2480   6.3691   6.9301
     7.3725   7.5178   7.5700   8.4019   8.5303   8.6787   8.7382   9.1831
     9.6269   9.6998  10.2262  10.3314  10.7273  10.7562  10.9388  11.4422
    11.8600  12.1393  12.7914  12.9807  13.3686  13.4520  14.1645  14.3915
    14.7078  15.0020  15.2529  15.4044  15.9030  16.0056  16.1150  16.2316
    16.2947  16.4553  16.5880  16.6373  16.7970  16.8708  17.2541  17.7200
    17.8815  17.9586  18.0845  18.1655  18.2091  18.2635  18.3806  18.5642
    18.6980  18.7907  19.1755  19.4870

     occupation numbers 
     1.0000   1.0000   1.0000   1.0000   1.0000   1.0000   1.0000   1.0000
     1.0000   1.0000   1.0000   1.0000   1.0000   1.0000   1.0000   1.0000
     1.0000   1.0000   1.0000   1.0000   1.0000   1.0000   1.0000   1.0000
     1.0000   1.0000   1.0000   1.0000   1.0000   1.0000   1.0000   1.0000
     1.0000   1.0000   1.0000   1.0000   1.0000   1.0000   1.0000   0.0000
     0.0000   0.0000   0.0000   0.0000   0.0000   0.0000   0.0000   0.0000
     0.0000   0.0000   0.0000   0.0000   0.0000   0.0000   0.0000   0.0000
     0.0000   0.0000   0.0000   0.0000   0.0000   0.0000   0.0000   0.0000
     0.0000   0.0000   0.0000   0.0000   0.0000   0.0000   0.0000   0.0000
     0.0000   0.0000   0.0000   0.0000   0.0000   0.0000   0.0000   0.0000
     0.0000   0.0000   0.0000   0.0000   0.0000   0.0000   0.0000   0.0000
     0.0000   0.0000   0.0000   0.0000   0.0000   0.0000   0.0000   0.0000
     0.0000   0.0000   0.0000   0.0000

          k = 0.0000 0.1830 0.0000 ( 24476 PWs)   bands (ev):

   -34.7692 -34.7690 -34.7686 -34.7684 -34.7376 -34.7371 -34.7322 -34.7322
   -34.7224 -34.7222 -34.6634 -34.6578 -34.6474 -34.6191 -34.6183 -27.5437
   -27.5436 -27.5422 -27.5420 -27.5356 -27.5353 -27.5324 -27.5320 -27.5309
   -27.5306 -10.4999  -9.9808  -8.9819  -6.3940  -5.3211  -1.2007  -0.5694
    -0.5153  -0.3831  -0.0784   0.1399   0.9327   1.1405   1.5188   2.5403
     2.9770   3.2927   3.7890   4.1236   4.6161   6.3031   6.4799   6.7694
     7.2807   7.6522   7.8135   8.3030   8.6091   8.7214   8.9003   9.4922
     9.6165   9.9066  10.4562  10.7813  10.9953  11.1227  11.5783  11.7896
    12.1875  12.2462  12.7730  13.2195  13.3317  13.4781  13.9005  14.1738
    14.5306  14.7147  14.7858  15.1137  15.5563  15.6512  15.6855  15.8113
    16.0171  16.1463  16.4805  16.6206  16.8198  17.0959  17.3720  17.6163
    17.7542  17.8410  17.9973  18.0842  18.3056  18.7781  18.9744  19.1303
    19.3255  19.3965  19.6431  19.6755

     occupation numbers 
     1.0000   1.0000   1.0000   1.0000   1.0000   1.0000   1.0000   1.0000
     1.0000   1.0000   1.0000   1.0000   1.0000   1.0000   1.0000   1.0000
     1.0000   1.0000   1.0000   1.0000   1.0000   1.0000   1.0000   1.0000
     1.0000   1.0000   1.0000   1.0000   1.0000   1.0000   1.0000   1.0000
     1.0000   1.0000   1.0000   1.0000   1.0000   1.0000   1.0000   0.0000
     0.0000   0.0000   0.0000   0.0000   0.0000   0.0000   0.0000   0.0000
     0.0000   0.0000   0.0000   0.0000   0.0000   0.0000   0.0000   0.0000
     0.0000   0.0000   0.0000   0.0000   0.0000   0.0000   0.0000   0.0000
     0.0000   0.0000   0.0000   0.0000   0.0000   0.0000   0.0000   0.0000
     0.0000   0.0000   0.0000   0.0000   0.0000   0.0000   0.0000   0.0000
     0.0000   0.0000   0.0000   0.0000   0.0000   0.0000   0.0000   0.0000
     0.0000   0.0000   0.0000   0.0000   0.0000   0.0000   0.0000   0.0000
     0.0000   0.0000   0.0000   0.0000

          k = 0.0000 0.2745 0.0000 ( 24510 PWs)   bands (ev):

   -34.7692 -34.7690 -34.7683 -34.7680 -34.7376 -34.7372 -34.7323 -34.7323
   -34.7222 -34.7220 -34.6633 -34.6578 -34.6475 -34.6189 -34.6182 -27.5439
   -27.5437 -27.5413 -27.5411 -27.5351 -27.5349 -27.5326 -27.5321 -27.5315
   -27.5312 -10.2511  -9.7589  -8.8677  -6.4966  -5.7097  -1.9168  -1.0732
    -0.9217  -0.7258  -0.3542   0.1498   0.5727   0.8843   1.5763   2.6224
     3.1805   3.6598   4.1604   4.4405   5.0985   5.9400   6.7324   6.9793
     7.4932   7.9313   8.2690   8.3325   8.6196   8.8435   9.3781   9.7729
     9.9714  10.0586  10.4792  11.1782  11.5672  11.6742  12.0181  12.0960
    12.2648  12.4661  12.9869  13.1657  13.2751  13.6201  13.7561  14.0378
    14.2380  14.4489  14.7429  15.1167  15.2202  15.2872  15.3617  15.5386
    15.7931  16.1775  16.2202  16.5842  17.0908  17.1606  17.3239  17.3297
    17.4364  17.8365  18.0592  18.2451  18.2922  18.4933  18.6146  18.7437
    18.9095  19.5140  19.6437  19.6642

     occupation numbers 
     1.0000   1.0000   1.0000   1.0000   1.0000   1.0000   1.0000   1.0000
     1.0000   1.0000   1.0000   1.0000   1.0000   1.0000   1.0000   1.0000
     1.0000   1.0000   1.0000   1.0000   1.0000   1.0000   1.0000   1.0000
     1.0000   1.0000   1.0000   1.0000   1.0000   1.0000   1.0000   1.0000
     1.0000   1.0000   1.0000   1.0000   1.0000   1.0000   1.0000   0.0000
     0.0000   0.0000   0.0000   0.0000   0.0000   0.0000   0.0000   0.0000
     0.0000   0.0000   0.0000   0.0000   0.0000   0.0000   0.0000   0.0000
     0.0000   0.0000   0.0000   0.0000   0.0000   0.0000   0.0000   0.0000
     0.0000   0.0000   0.0000   0.0000   0.0000   0.0000   0.0000   0.0000
     0.0000   0.0000   0.0000   0.0000   0.0000   0.0000   0.0000   0.0000
     0.0000   0.0000   0.0000   0.0000   0.0000   0.0000   0.0000   0.0000
     0.0000   0.0000   0.0000   0.0000   0.0000   0.0000   0.0000   0.0000
     0.0000   0.0000   0.0000   0.0000

          k = 0.0000 0.3660 0.0000 ( 24538 PWs)   bands (ev):

   -34.7692 -34.7690 -34.7679 -34.7677 -34.7376 -34.7372 -34.7324 -34.7323
   -34.7221 -34.7218 -34.6632 -34.6579 -34.6476 -34.6188 -34.6179 -27.5441
   -27.5439 -27.5404 -27.5402 -27.5347 -27.5345 -27.5327 -27.5323 -27.5319
   -27.5318  -9.9185  -9.4746  -8.7562  -6.7127  -6.1580  -2.4786  -1.5227
    -1.2160  -0.9340  -0.6017  -0.0733   0.3934   0.7856   1.2900   2.6957
     3.3097   3.7497   4.3651   4.7404   5.5421   5.6159   7.0265   7.2939
     7.8035   8.2570   8.4873   8.9145   9.1062   9.3103   9.8672   9.9673
    10.2108  10.5809  10.6146  11.0396  11.6415  11.7608  12.0670  12.2044
    12.6460  12.7014  12.7749  13.0408  13.4299  13.9246  13.9985  14.2982
    14.5829  14.6642  14.6815  14.7729  15.0390  15.1675  15.2694  15.4769
    15.9301  16.0544  16.4006  16.5326  16.5748  16.6575  16.8513  16.9644
    17.0169  17.1130  17.3851  17.5298  17.9622  18.1483  18.3120  18.3843
    18.8072  19.2841  19.5763  19.8257

     occupation numbers 
     1.0000   1.0000   1.0000   1.0000   1.0000   1.0000   1.0000   1.0000
     1.0000   1.0000   1.0000   1.0000   1.0000   1.0000   1.0000   1.0000
     1.0000   1.0000   1.0000   1.0000   1.0000   1.0000   1.0000   1.0000
     1.0000   1.0000   1.0000   1.0000   1.0000   1.0000   1.0000   1.0000
     1.0000   1.0000   1.0000   1.0000   1.0000   1.0000   1.0000   0.0000
     0.0000   0.0000   0.0000   0.0000   0.0000   0.0000   0.0000   0.0000
     0.0000   0.0000   0.0000   0.0000   0.0000   0.0000   0.0000   0.0000
     0.0000   0.0000   0.0000   0.0000   0.0000   0.0000   0.0000   0.0000
     0.0000   0.0000   0.0000   0.0000   0.0000   0.0000   0.0000   0.0000
     0.0000   0.0000   0.0000   0.0000   0.0000   0.0000   0.0000   0.0000
     0.0000   0.0000   0.0000   0.0000   0.0000   0.0000   0.0000   0.0000
     0.0000   0.0000   0.0000   0.0000   0.0000   0.0000   0.0000   0.0000
     0.0000   0.0000   0.0000   0.0000

          k = 0.0000 0.4574 0.0000 ( 24542 PWs)   bands (ev):

   -34.7692 -34.7690 -34.7677 -34.7674 -34.7376 -34.7372 -34.7324 -34.7324
   -34.7219 -34.7217 -34.6631 -34.6579 -34.6477 -34.6187 -34.6177 -27.5442
   -27.5440 -27.5396 -27.5395 -27.5346 -27.5344 -27.5328 -27.5326 -27.5323
   -27.5318  -9.5269  -9.1726  -8.7125  -7.0354  -6.5481  -2.8605  -1.7466
    -1.4228  -1.1644  -0.7844  -0.3141   0.4598   0.6898   0.9656   2.7005
     3.3579   3.6559   4.5184   4.9550   5.3026   5.8494   7.0634   7.8021
     8.1323   8.8220   9.0419   9.3115   9.5197   9.8617  10.1257  10.3427
    10.5451  10.8075  10.9566  11.2785  11.3264  11.4376  11.7946  12.2712
    12.6768  13.0757  13.2268  13.3353  13.5003  13.7065  13.7873  13.9943
    14.4387  14.4715  14.5300  14.8131  14.9334  15.0741  15.3908  15.6366
    15.7032  15.9411  16.0200  16.2914  16.3397  16.4639  16.5667  16.6439
    16.9159  17.1120  17.2510  17.3095  17.5273  18.0656  18.4428  18.6978
    18.9929  19.0811  19.3350  19.6896

     occupation numbers 
     1.0000   1.0000   1.0000   1.0000   1.0000   1.0000   1.0000   1.0000
     1.0000   1.0000   1.0000   1.0000   1.0000   1.0000   1.0000   1.0000
     1.0000   1.0000   1.0000   1.0000   1.0000   1.0000   1.0000   1.0000
     1.0000   1.0000   1.0000   1.0000   1.0000   1.0000   1.0000   1.0000
     1.0000   1.0000   1.0000   1.0000   1.0000   1.0000   1.0000   0.0000
     0.0000   0.0000   0.0000   0.0000   0.0000   0.0000   0.0000   0.0000
     0.0000   0.0000   0.0000   0.0000   0.0000   0.0000   0.0000   0.0000
     0.0000   0.0000   0.0000   0.0000   0.0000   0.0000   0.0000   0.0000
     0.0000   0.0000   0.0000   0.0000   0.0000   0.0000   0.0000   0.0000
     0.0000   0.0000   0.0000   0.0000   0.0000   0.0000   0.0000   0.0000
     0.0000   0.0000   0.0000   0.0000   0.0000   0.0000   0.0000   0.0000
     0.0000   0.0000   0.0000   0.0000   0.0000   0.0000   0.0000   0.0000
     0.0000   0.0000   0.0000   0.0000

          k = 0.0000 0.5489 0.0000 ( 24555 PWs)   bands (ev):

   -34.7692 -34.7690 -34.7675 -34.7673 -34.7376 -34.7372 -34.7325 -34.7324
   -34.7218 -34.7216 -34.6631 -34.6579 -34.6477 -34.6186 -34.6176 -27.5443
   -27.5441 -27.5392 -27.5391 -27.5345 -27.5343 -27.5329 -27.5327 -27.5324
   -27.5318  -9.1295  -8.9500  -8.8265  -7.3025  -6.7840  -3.0580  -1.7546
    -1.5316  -1.4125  -0.8801  -0.3689   0.4820   0.6280   0.7994   2.6419
     3.3678   3.6360   4.5443   5.0591   5.1875   5.8729   7.1424   8.3304
     8.5353   8.9122   9.0602   9.5233   9.6617  10.1744  10.4809  10.6086
    10.9374  11.1342  11.2642  11.4196  11.5850  11.7898  11.9329  12.3252
    12.5243  12.6000  12.7617  12.8610  13.3347  13.6567  13.7701  14.0465
    14.2180  14.2751  14.3925  14.6274  14.6937  15.0038  15.0603  15.2261
    15.3172  15.4417  15.8650  16.2719  16.3404  16.5901  16.8780  17.0823
    17.3889  17.5397  17.6704  17.8462  17.9577  18.0708  18.5369  18.5588
    18.7859  19.1057  19.3094  19.4486

     occupation numbers 
     1.0000   1.0000   1.0000   1.0000   1.0000   1.0000   1.0000   1.0000
     1.0000   1.0000   1.0000   1.0000   1.0000   1.0000   1.0000   1.0000
     1.0000   1.0000   1.0000   1.0000   1.0000   1.0000   1.0000   1.0000
     1.0000   1.0000   1.0000   1.0000   1.0000   1.0000   1.0000   1.0000
     1.0000   1.0000   1.0000   1.0000   1.0000   1.0000   1.0000   0.0000
     0.0000   0.0000   0.0000   0.0000   0.0000   0.0000   0.0000   0.0000
     0.0000   0.0000   0.0000   0.0000   0.0000   0.0000   0.0000   0.0000
     0.0000   0.0000   0.0000   0.0000   0.0000   0.0000   0.0000   0.0000
     0.0000   0.0000   0.0000   0.0000   0.0000   0.0000   0.0000   0.0000
     0.0000   0.0000   0.0000   0.0000   0.0000   0.0000   0.0000   0.0000
     0.0000   0.0000   0.0000   0.0000   0.0000   0.0000   0.0000   0.0000
     0.0000   0.0000   0.0000   0.0000   0.0000   0.0000   0.0000   0.0000
     0.0000   0.0000   0.0000   0.0000

          k = 0.0769 0.0444 0.0000 ( 24447 PWs)   bands (ev):

   -34.7692 -34.7690 -34.7689 -34.7686 -34.7376 -34.7371 -34.7322 -34.7321
   -34.7225 -34.7223 -34.6635 -34.6578 -34.6474 -34.6193 -34.6184 -27.5434
   -27.5433 -27.5430 -27.5428 -27.5360 -27.5357 -27.5324 -27.5321 -27.5303
   -27.5300 -10.6557 -10.1232  -9.0653  -6.3617  -5.0805  -0.5427  -0.3470
    -0.0163   0.0742   0.3244   0.3899   1.0209   1.0855   1.4749   2.4173
     2.6397   2.8609   3.6940   3.8578   4.0262   6.2447   6.3555   6.9174
     7.1812   7.5482   7.8588   8.3084   8.5369   8.5973   8.9234   9.0861
     9.6440   9.8248  10.0514  10.2934  10.7322  10.7373  11.0866  11.1971
    12.0254  12.0857  12.6795  12.9195  13.3288  13.6875  14.1691  14.4053
    14.5702  14.8386  15.3505  15.5044  15.6032  15.8289  15.9422  16.3084
    16.4884  16.5619  16.7761  16.8599  16.9843  17.0659  17.2165  17.4754
    17.7175  17.8592  18.0200  18.2793  18.3305  18.5044  18.6137  18.6244
    18.7382  18.8742  18.9850  19.0764

     occupation numbers 
     1.0000   1.0000   1.0000   1.0000   1.0000   1.0000   1.0000   1.0000
     1.0000   1.0000   1.0000   1.0000   1.0000   1.0000   1.0000   1.0000
     1.0000   1.0000   1.0000   1.0000   1.0000   1.0000   1.0000   1.0000
     1.0000   1.0000   1.0000   1.0000   1.0000   1.0000   1.0000   1.0000
     1.0000   1.0000   1.0000   1.0000   1.0000   1.0000   1.0000   0.0000
     0.0000   0.0000   0.0000   0.0000   0.0000   0.0000   0.0000   0.0000
     0.0000   0.0000   0.0000   0.0000   0.0000   0.0000   0.0000   0.0000
     0.0000   0.0000   0.0000   0.0000   0.0000   0.0000   0.0000   0.0000
     0.0000   0.0000   0.0000   0.0000   0.0000   0.0000   0.0000   0.0000
     0.0000   0.0000   0.0000   0.0000   0.0000   0.0000   0.0000   0.0000
     0.0000   0.0000   0.0000   0.0000   0.0000   0.0000   0.0000   0.0000
     0.0000   0.0000   0.0000   0.0000   0.0000   0.0000   0.0000   0.0000
     0.0000   0.0000   0.0000   0.0000

          k = 0.0769 0.1359 0.0000 ( 24471 PWs)   bands (ev):

   -34.7692 -34.7690 -34.7687 -34.7685 -34.7376 -34.7371 -34.7322 -34.7322
   -34.7225 -34.7222 -34.6635 -34.6578 -34.6474 -34.6191 -34.6184 -27.5435
   -27.5434 -27.5426 -27.5424 -27.5358 -27.5355 -27.5326 -27.5321 -27.5306
   -27.5302 -10.5549 -10.0315  -9.0119  -6.3854  -5.2517  -0.9974  -0.6461
    -0.4277  -0.1702   0.0909   0.3652   0.7406   1.4135   1.5160   2.5894
     2.7982   3.1475   3.8522   3.9653   4.4228   6.3698   6.4022   6.8076
     7.0645   7.5894   7.9988   8.3315   8.4347   8.6696   8.9193   9.4128
     9.7017   9.9550  10.2736  10.6304  10.8750  11.0336  11.1715  11.4581
    12.3527  12.3844  12.8178  12.9822  13.2815  13.5163  13.7478  14.2049
    14.6892  14.8321  14.9708  15.1325  15.3193  15.4563  15.6801  16.2854
    16.4096  16.4328  16.7271  16.8811  16.9580  17.2233  17.3034  17.4607
    17.5391  17.6675  17.7461  17.8027  18.2889  18.9814  19.1756  19.2961
    19.3598  19.5156  19.5626  19.5837

     occupation numbers 
     1.0000   1.0000   1.0000   1.0000   1.0000   1.0000   1.0000   1.0000
     1.0000   1.0000   1.0000   1.0000   1.0000   1.0000   1.0000   1.0000
     1.0000   1.0000   1.0000   1.0000   1.0000   1.0000   1.0000   1.0000
     1.0000   1.0000   1.0000   1.0000   1.0000   1.0000   1.0000   1.0000
     1.0000   1.0000   1.0000   1.0000   1.0000   1.0000   1.0000   0.0000
     0.0000   0.0000   0.0000   0.0000   0.0000   0.0000   0.0000   0.0000
     0.0000   0.0000   0.0000   0.0000   0.0000   0.0000   0.0000   0.0000
     0.0000   0.0000   0.0000   0.0000   0.0000   0.0000   0.0000   0.0000
     0.0000   0.0000   0.0000   0.0000   0.0000   0.0000   0.0000   0.0000
     0.0000   0.0000   0.0000   0.0000   0.0000   0.0000   0.0000   0.0000
     0.0000   0.0000   0.0000   0.0000   0.0000   0.0000   0.0000   0.0000
     0.0000   0.0000   0.0000   0.0000   0.0000   0.0000   0.0000   0.0000
     0.0000   0.0000   0.0000   0.0000

          k = 0.0769 0.2274 0.0000 ( 24488 PWs)   bands (ev):

   -34.7692 -34.7690 -34.7684 -34.7682 -34.7376 -34.7372 -34.7323 -34.7322
   -34.7223 -34.7221 -34.6634 -34.6579 -34.6475 -34.6189 -34.6184 -27.5436
   -27.5435 -27.5418 -27.5417 -27.5355 -27.5352 -27.5327 -27.5321 -27.5311
   -27.5306 -10.3552  -9.8520  -8.9148  -6.4540  -5.5745  -1.5768  -1.2006
    -0.7284  -0.5411  -0.2006   0.1310   0.6668   1.1791   1.6150   2.7759
     2.9568   3.5629   4.0504   4.3944   4.8725   6.2481   6.6103   6.7651
     7.1473   7.8156   8.2594   8.3259   8.4382   8.7872   9.3062   9.6979
     9.7960  10.1342  10.5832  10.8276  11.2149  11.3609  11.8956  12.1162
    12.4019  12.6025  12.9233  13.1205  13.1880  13.5308  13.7002  14.0499
    14.1517  14.3122  14.5225  14.6260  15.3938  15.5146  15.8597  15.8812
    16.0925  16.3487  16.4208  16.6011  16.7920  16.9830  17.0828  17.4561
    17.6972  17.9432  18.3852  18.4658  18.5320  18.6793  18.6925  18.8928
    18.9958  19.1391  19.3455  19.3840

     occupation numbers 
     1.0000   1.0000   1.0000   1.0000   1.0000   1.0000   1.0000   1.0000
     1.0000   1.0000   1.0000   1.0000   1.0000   1.0000   1.0000   1.0000
     1.0000   1.0000   1.0000   1.0000   1.0000   1.0000   1.0000   1.0000
     1.0000   1.0000   1.0000   1.0000   1.0000   1.0000   1.0000   1.0000
     1.0000   1.0000   1.0000   1.0000   1.0000   1.0000   1.0000   0.0000
     0.0000   0.0000   0.0000   0.0000   0.0000   0.0000   0.0000   0.0000
     0.0000   0.0000   0.0000   0.0000   0.0000   0.0000   0.0000   0.0000
     0.0000   0.0000   0.0000   0.0000   0.0000   0.0000   0.0000   0.0000
     0.0000   0.0000   0.0000   0.0000   0.0000   0.0000   0.0000   0.0000
     0.0000   0.0000   0.0000   0.0000   0.0000   0.0000   0.0000   0.0000
     0.0000   0.0000   0.0000   0.0000   0.0000   0.0000   0.0000   0.0000
     0.0000   0.0000   0.0000   0.0000   0.0000   0.0000   0.0000   0.0000
     0.0000   0.0000   0.0000   0.0000

          k = 0.0769 0.3189 0.0000 ( 24516 PWs)   bands (ev):

   -34.7692 -34.7690 -34.7681 -34.7679 -34.7376 -34.7372 -34.7323 -34.7323
   -34.7221 -34.7219 -34.6632 -34.6579 -34.6476 -34.6187 -34.6182 -27.5438
   -27.5437 -27.5410 -27.5408 -27.5351 -27.5348 -27.5328 -27.5322 -27.5315
   -27.5312 -10.0650  -9.5985  -8.7989  -6.6078  -6.0012  -2.1859  -1.5630
    -1.0426  -0.8894  -0.5767   0.0084   0.6105   0.8134   1.5074   2.9101
     3.0893   3.7392   4.4058   4.6709   5.3597   5.8840   6.8791   7.1379
     7.5011   7.9191   8.2441   8.6204   9.0191   9.2148   9.6501   9.9992
    10.0677  10.2588  10.8925  11.0894  11.3845  11.9660  12.2009  12.2723
    12.5841  12.6455  12.7311  12.9029  13.2543  13.5981  13.8856  13.9742
    14.1043  14.3729  14.6704  14.8918  15.0355  15.2786  15.5104  15.7710
    15.8884  16.0147  16.2618  16.4000  16.5332  16.7046  16.8785  17.3900
    17.5400  17.7506  17.9182  18.0476  18.3326  18.4904  18.5986  18.6738
    18.9130  19.1871  19.3664  19.3801

     occupation numbers 
     1.0000   1.0000   1.0000   1.0000   1.0000   1.0000   1.0000   1.0000
     1.0000   1.0000   1.0000   1.0000   1.0000   1.0000   1.0000   1.0000
     1.0000   1.0000   1.0000   1.0000   1.0000   1.0000   1.0000   1.0000
     1.0000   1.0000   1.0000   1.0000   1.0000   1.0000   1.0000   1.0000
     1.0000   1.0000   1.0000   1.0000   1.0000   1.0000   1.0000   0.0000
     0.0000   0.0000   0.0000   0.0000   0.0000   0.0000   0.0000   0.0000
     0.0000   0.0000   0.0000   0.0000   0.0000   0.0000   0.0000   0.0000
     0.0000   0.0000   0.0000   0.0000   0.0000   0.0000   0.0000   0.0000
     0.0000   0.0000   0.0000   0.0000   0.0000   0.0000   0.0000   0.0000
     0.0000   0.0000   0.0000   0.0000   0.0000   0.0000   0.0000   0.0000
     0.0000   0.0000   0.0000   0.0000   0.0000   0.0000   0.0000   0.0000
     0.0000   0.0000   0.0000   0.0000   0.0000   0.0000   0.0000   0.0000
     0.0000   0.0000   0.0000   0.0000

          k = 0.0769 0.4104 0.0000 ( 24529 PWs)   bands (ev):

   -34.7692 -34.7689 -34.7678 -34.7676 -34.7376 -34.7372 -34.7324 -34.7323
   -34.7220 -34.7218 -34.6631 -34.6579 -34.6476 -34.6186 -34.6179 -27.5440
   -27.5438 -27.5401 -27.5400 -27.5348 -27.5346 -27.5329 -27.5324 -27.5318
   -27.5317  -9.7014  -9.3004  -8.7110  -6.8781  -6.4323  -2.6598  -1.7277
    -1.4317  -1.1916  -0.6953  -0.2031   0.4270   0.7295   1.2645   2.9544
     3.1237   3.7741   4.6305   4.8587   5.5442   5.7642   7.1035   7.5463
     7.9558   8.2119   8.7272   9.0701   9.4583   9.5524  10.0133  10.3005
    10.5448  10.6550  11.0097  11.1910  11.3948  11.6202  11.8857  12.3904
    12.5609  12.8354  13.0283  13.1856  13.3625  13.4685  13.6642  13.8663
    13.9283  14.7081  14.7284  14.9660  15.0922  15.4052  15.5417  15.5847
    15.7650  15.9148  16.1342  16.2395  16.5028  16.6409  16.7116  16.8764
    16.9282  17.3594  17.5349  17.7146  18.1586  18.1740  18.3259  18.7008
    18.9482  19.0899  19.1400  19.2710

     occupation numbers 
     1.0000   1.0000   1.0000   1.0000   1.0000   1.0000   1.0000   1.0000
     1.0000   1.0000   1.0000   1.0000   1.0000   1.0000   1.0000   1.0000
     1.0000   1.0000   1.0000   1.0000   1.0000   1.0000   1.0000   1.0000
     1.0000   1.0000   1.0000   1.0000   1.0000   1.0000   1.0000   1.0000
     1.0000   1.0000   1.0000   1.0000   1.0000   1.0000   1.0000   0.0000
     0.0000   0.0000   0.0000   0.0000   0.0000   0.0000   0.0000   0.0000
     0.0000   0.0000   0.0000   0.0000   0.0000   0.0000   0.0000   0.0000
     0.0000   0.0000   0.0000   0.0000   0.0000   0.0000   0.0000   0.0000
     0.0000   0.0000   0.0000   0.0000   0.0000   0.0000   0.0000   0.0000
     0.0000   0.0000   0.0000   0.0000   0.0000   0.0000   0.0000   0.0000
     0.0000   0.0000   0.0000   0.0000   0.0000   0.0000   0.0000   0.0000
     0.0000   0.0000   0.0000   0.0000   0.0000   0.0000   0.0000   0.0000
     0.0000   0.0000   0.0000   0.0000

          k = 0.0769 0.5019 0.0000 ( 24550 PWs)   bands (ev):

   -34.7692 -34.7689 -34.7676 -34.7674 -34.7376 -34.7372 -34.7325 -34.7324
   -34.7219 -34.7217 -34.6631 -34.6579 -34.6477 -34.6186 -34.6177 -27.5441
   -27.5439 -27.5395 -27.5394 -27.5347 -27.5344 -27.5329 -27.5326 -27.5322
   -27.5318  -9.3008  -9.0227  -8.7287  -7.1984  -6.7531  -2.9506  -1.7579
    -1.6734  -1.4082  -0.8019  -0.4004   0.4054   0.6830   1.0366   2.9710
     3.1105   3.6978   4.7946   4.9241   5.3712   5.8972   7.1313   8.0984
     8.3256   8.9561   9.0951   9.2428   9.6967   9.7850  10.3087  10.5391
    10.8267  10.9212  11.1180  11.2712  11.5787  11.6849  11.9243  12.2118
    12.2993  12.6104  12.8964  12.9542  13.2989  13.5753  13.7318  14.0187
    14.0824  14.4385  14.5380  14.7258  14.9512  15.1183  15.4774  15.5018
    15.7278  15.8036  15.9624  16.1619  16.6355  16.6763  16.8780  17.0517
    17.2090  17.3497  17.5025  17.7820  17.8601  18.1706  18.2682  18.6290
    18.8887  18.9576  19.1866  19.4200

     occupation numbers 
     1.0000   1.0000   1.0000   1.0000   1.0000   1.0000   1.0000   1.0000
     1.0000   1.0000   1.0000   1.0000   1.0000   1.0000   1.0000   1.0000
     1.0000   1.0000   1.0000   1.0000   1.0000   1.0000   1.0000   1.0000
     1.0000   1.0000   1.0000   1.0000   1.0000   1.0000   1.0000   1.0000
     1.0000   1.0000   1.0000   1.0000   1.0000   1.0000   1.0000   0.0000
     0.0000   0.0000   0.0000   0.0000   0.0000   0.0000   0.0000   0.0000
     0.0000   0.0000   0.0000   0.0000   0.0000   0.0000   0.0000   0.0000
     0.0000   0.0000   0.0000   0.0000   0.0000   0.0000   0.0000   0.0000
     0.0000   0.0000   0.0000   0.0000   0.0000   0.0000   0.0000   0.0000
     0.0000   0.0000   0.0000   0.0000   0.0000   0.0000   0.0000   0.0000
     0.0000   0.0000   0.0000   0.0000   0.0000   0.0000   0.0000   0.0000
     0.0000   0.0000   0.0000   0.0000   0.0000   0.0000   0.0000   0.0000
     0.0000   0.0000   0.0000   0.0000

          k = 0.0769 0.5933 0.0000 ( 24545 PWs)   bands (ev):

   -34.7692 -34.7689 -34.7675 -34.7673 -34.7376 -34.7372 -34.7325 -34.7324
   -34.7218 -34.7216 -34.6630 -34.6579 -34.6477 -34.6186 -34.6176 -27.5442
   -27.5440 -27.5393 -27.5391 -27.5346 -27.5343 -27.5329 -27.5326 -27.5324
   -27.5318  -8.9446  -8.9268  -8.8939  -7.3525  -6.8773  -3.0504  -1.8211
    -1.6414  -1.5162  -0.8939  -0.4420   0.4768   0.5866   0.9616   2.9373
     3.1468   3.6333   4.8415   4.9350   5.3369   5.8643   7.1850   8.4590
     8.7384   8.7712   8.9373   9.6091   9.8222   9.8676  10.4547  10.4601
    10.7320  11.0678  11.1629  11.4687  11.7339  11.8835  11.9533  12.1871
    12.3558  12.6078  12.8432  13.0196  13.2489  13.5049  13.8288  13.8935
    14.0867  14.2618  14.5021  14.5502  14.7737  14.9813  15.1475  15.4287
    15.6486  15.7277  15.8923  16.0966  16.2364  16.6747  16.7820  17.2004
    17.6680  17.8089  17.9066  18.0804  18.2585  18.3982  18.5239  18.6444
    18.7768  18.9313  18.9993  19.1312

     occupation numbers 
     1.0000   1.0000   1.0000   1.0000   1.0000   1.0000   1.0000   1.0000
     1.0000   1.0000   1.0000   1.0000   1.0000   1.0000   1.0000   1.0000
     1.0000   1.0000   1.0000   1.0000   1.0000   1.0000   1.0000   1.0000
     1.0000   1.0000   1.0000   1.0000   1.0000   1.0000   1.0000   1.0000
     1.0000   1.0000   1.0000   1.0000   1.0000   1.0000   1.0000   0.0000
     0.0000   0.0000   0.0000   0.0000   0.0000   0.0000   0.0000   0.0000
     0.0000   0.0000   0.0000   0.0000   0.0000   0.0000   0.0000   0.0000
     0.0000   0.0000   0.0000   0.0000   0.0000   0.0000   0.0000   0.0000
     0.0000   0.0000   0.0000   0.0000   0.0000   0.0000   0.0000   0.0000
     0.0000   0.0000   0.0000   0.0000   0.0000   0.0000   0.0000   0.0000
     0.0000   0.0000   0.0000   0.0000   0.0000   0.0000   0.0000   0.0000
     0.0000   0.0000   0.0000   0.0000   0.0000   0.0000   0.0000   0.0000
     0.0000   0.0000   0.0000   0.0000

          k = 0.0769-0.5045 0.0000 ( 24534 PWs)   bands (ev):

   -34.7692 -34.7690 -34.7676 -34.7674 -34.7376 -34.7372 -34.7325 -34.7324
   -34.7218 -34.7216 -34.6631 -34.6579 -34.6477 -34.6187 -34.6176 -27.5442
   -27.5440 -27.5394 -27.5393 -27.5345 -27.5343 -27.5328 -27.5326 -27.5325
   -27.5319  -9.2901  -9.0151  -8.7305  -7.2025  -6.7507  -2.9558  -1.7532
    -1.7017  -1.3751  -0.8306  -0.3743   0.4199   0.6431   1.0425   2.9596
     3.1043   3.6756   4.7982   4.8922   5.3601   5.8702   7.1156   8.1053
     8.3476   8.7926   9.0132   9.2395   9.6535   9.7100  10.2509  10.4463
    10.8010  10.9436  11.3547  11.4332  11.6245  11.6564  12.1176  12.2778
    12.5556  12.7230  12.8855  13.0374  13.3801  13.6662  13.8015  13.8878
    14.0895  14.3297  14.5655  14.7137  14.8342  15.2090  15.3949  15.4417
    15.6238  15.8606  15.9518  16.0910  16.4860  16.5934  16.7239  17.1906
    17.3043  17.3771  17.5186  17.7537  17.8255  18.2174  18.3469  18.6697
    18.8190  19.0075  19.1298  19.3710

     occupation numbers 
     1.0000   1.0000   1.0000   1.0000   1.0000   1.0000   1.0000   1.0000
     1.0000   1.0000   1.0000   1.0000   1.0000   1.0000   1.0000   1.0000
     1.0000   1.0000   1.0000   1.0000   1.0000   1.0000   1.0000   1.0000
     1.0000   1.0000   1.0000   1.0000   1.0000   1.0000   1.0000   1.0000
     1.0000   1.0000   1.0000   1.0000   1.0000   1.0000   1.0000   0.0000
     0.0000   0.0000   0.0000   0.0000   0.0000   0.0000   0.0000   0.0000
     0.0000   0.0000   0.0000   0.0000   0.0000   0.0000   0.0000   0.0000
     0.0000   0.0000   0.0000   0.0000   0.0000   0.0000   0.0000   0.0000
     0.0000   0.0000   0.0000   0.0000   0.0000   0.0000   0.0000   0.0000
     0.0000   0.0000   0.0000   0.0000   0.0000   0.0000   0.0000   0.0000
     0.0000   0.0000   0.0000   0.0000   0.0000   0.0000   0.0000   0.0000
     0.0000   0.0000   0.0000   0.0000   0.0000   0.0000   0.0000   0.0000
     0.0000   0.0000   0.0000   0.0000

          k = 0.0769-0.4130 0.0000 ( 24563 PWs)   bands (ev):

   -34.7692 -34.7690 -34.7678 -34.7676 -34.7376 -34.7372 -34.7324 -34.7324
   -34.7220 -34.7217 -34.6632 -34.6579 -34.6477 -34.6188 -34.6177 -27.5441
   -27.5439 -27.5400 -27.5399 -27.5345 -27.5343 -27.5326 -27.5325 -27.5324
   -27.5319  -9.6906  -9.2901  -8.7072  -6.8811  -6.4257  -2.6697  -1.7429
    -1.4377  -1.1533  -0.7330  -0.1634   0.4348   0.6784   1.2519   2.9526
     3.0951   3.7180   4.5952   4.8575   5.5254   5.7162   7.0743   7.5489
     7.9483   8.0241   8.7237   8.9881   9.4480   9.5499  10.2503  10.3299
    10.5285  10.7323  11.0599  11.1742  11.5091  11.6528  11.8243  12.3999
    12.5880  12.8910  13.0669  13.2119  13.4021  13.5427  13.7031  13.9145
    13.9693  14.7150  14.8906  15.1284  15.3533  15.4205  15.5396  15.6987
    15.7506  15.9021  16.0686  16.2700  16.3982  16.5532  16.6508  16.7267
    16.9438  17.2124  17.4336  17.7294  18.0663  18.1323  18.3615  18.5817
    18.8259  19.1134  19.2750  19.5159

     occupation numbers 
     1.0000   1.0000   1.0000   1.0000   1.0000   1.0000   1.0000   1.0000
     1.0000   1.0000   1.0000   1.0000   1.0000   1.0000   1.0000   1.0000
     1.0000   1.0000   1.0000   1.0000   1.0000   1.0000   1.0000   1.0000
     1.0000   1.0000   1.0000   1.0000   1.0000   1.0000   1.0000   1.0000
     1.0000   1.0000   1.0000   1.0000   1.0000   1.0000   1.0000   0.0000
     0.0000   0.0000   0.0000   0.0000   0.0000   0.0000   0.0000   0.0000
     0.0000   0.0000   0.0000   0.0000   0.0000   0.0000   0.0000   0.0000
     0.0000   0.0000   0.0000   0.0000   0.0000   0.0000   0.0000   0.0000
     0.0000   0.0000   0.0000   0.0000   0.0000   0.0000   0.0000   0.0000
     0.0000   0.0000   0.0000   0.0000   0.0000   0.0000   0.0000   0.0000
     0.0000   0.0000   0.0000   0.0000   0.0000   0.0000   0.0000   0.0000
     0.0000   0.0000   0.0000   0.0000   0.0000   0.0000   0.0000   0.0000
     0.0000   0.0000   0.0000   0.0000

          k = 0.0769-0.3215 0.0000 ( 24555 PWs)   bands (ev):

   -34.7692 -34.7690 -34.7681 -34.7679 -34.7376 -34.7372 -34.7324 -34.7323
   -34.7221 -34.7219 -34.6633 -34.6579 -34.6476 -34.6189 -34.6179 -27.5439
   -27.5438 -27.5408 -27.5407 -27.5347 -27.5346 -27.5326 -27.5321 -27.5320
   -27.5316 -10.0556  -9.5887  -8.7927  -6.6052  -5.9903  -2.2003  -1.5609
    -1.0596  -0.8561  -0.5976   0.0558   0.5573   0.7867   1.4731   2.8673
     3.0587   3.6997   4.3190   4.7170   5.3356   5.8517   6.8439   7.1147
     7.4488   7.8865   8.2400   8.5690   9.1043   9.3505   9.7375  10.0135
    10.0578  10.2965  10.9702  11.1193  11.2976  11.9358  12.1639  12.3043
    12.5647  12.6283  12.8312  12.9031  13.2493  13.5883  13.9911  14.0670
    14.1913  14.3480  14.6258  14.9143  15.0646  15.3210  15.5271  15.8524
    16.0435  16.2038  16.3427  16.4033  16.5464  16.8335  17.0415  17.4248
    17.5454  17.7580  17.9359  17.9482  18.1376  18.3582  18.4423  18.7402
    18.8468  19.0232  19.1655  19.4523

     occupation numbers 
     1.0000   1.0000   1.0000   1.0000   1.0000   1.0000   1.0000   1.0000
     1.0000   1.0000   1.0000   1.0000   1.0000   1.0000   1.0000   1.0000
     1.0000   1.0000   1.0000   1.0000   1.0000   1.0000   1.0000   1.0000
     1.0000   1.0000   1.0000   1.0000   1.0000   1.0000   1.0000   1.0000
     1.0000   1.0000   1.0000   1.0000   1.0000   1.0000   1.0000   0.0000
     0.0000   0.0000   0.0000   0.0000   0.0000   0.0000   0.0000   0.0000
     0.0000   0.0000   0.0000   0.0000   0.0000   0.0000   0.0000   0.0000
     0.0000   0.0000   0.0000   0.0000   0.0000   0.0000   0.0000   0.0000
     0.0000   0.0000   0.0000   0.0000   0.0000   0.0000   0.0000   0.0000
     0.0000   0.0000   0.0000   0.0000   0.0000   0.0000   0.0000   0.0000
     0.0000   0.0000   0.0000   0.0000   0.0000   0.0000   0.0000   0.0000
     0.0000   0.0000   0.0000   0.0000   0.0000   0.0000   0.0000   0.0000
     0.0000   0.0000   0.0000   0.0000

          k = 0.0769-0.2301 0.0000 ( 24493 PWs)   bands (ev):

   -34.7692 -34.7690 -34.7684 -34.7682 -34.7376 -34.7371 -34.7323 -34.7322
   -34.7223 -34.7221 -34.6634 -34.6578 -34.6475 -34.6191 -34.6181 -27.5438
   -27.5436 -27.5417 -27.5415 -27.5352 -27.5350 -27.5325 -27.5321 -27.5313
   -27.5310 -10.3481  -9.8443  -8.9088  -6.4480  -5.5605  -1.5846  -1.1796
    -0.7320  -0.5208  -0.2304   0.1477   0.6197   1.1167   1.5947   2.6427
     2.9631   3.5825   3.9534   4.4847   4.8630   6.2198   6.6127   6.7243
     7.1458   7.8145   8.2567   8.3185   8.5442   8.8159   9.3041   9.7162
     9.7757  10.1629  10.5530  10.8720  11.2179  11.3550  11.9408  12.1287
    12.4377  12.6567  12.8220  13.1672  13.2112  13.5460  13.7325  14.0946
    14.1393  14.3988  14.5522  14.6878  15.3702  15.4648  15.8408  15.8849
    16.1609  16.3628  16.4388  16.6691  16.7097  16.9222  17.0656  17.2532
    17.9406  18.1393  18.3589  18.4555  18.4940  18.6157  18.7668  18.8397
    19.0573  19.1911  19.3499  19.3930

     occupation numbers 
     1.0000   1.0000   1.0000   1.0000   1.0000   1.0000   1.0000   1.0000
     1.0000   1.0000   1.0000   1.0000   1.0000   1.0000   1.0000   1.0000
     1.0000   1.0000   1.0000   1.0000   1.0000   1.0000   1.0000   1.0000
     1.0000   1.0000   1.0000   1.0000   1.0000   1.0000   1.0000   1.0000
     1.0000   1.0000   1.0000   1.0000   1.0000   1.0000   1.0000   0.0000
     0.0000   0.0000   0.0000   0.0000   0.0000   0.0000   0.0000   0.0000
     0.0000   0.0000   0.0000   0.0000   0.0000   0.0000   0.0000   0.0000
     0.0000   0.0000   0.0000   0.0000   0.0000   0.0000   0.0000   0.0000
     0.0000   0.0000   0.0000   0.0000   0.0000   0.0000   0.0000   0.0000
     0.0000   0.0000   0.0000   0.0000   0.0000   0.0000   0.0000   0.0000
     0.0000   0.0000   0.0000   0.0000   0.0000   0.0000   0.0000   0.0000
     0.0000   0.0000   0.0000   0.0000   0.0000   0.0000   0.0000   0.0000
     0.0000   0.0000   0.0000   0.0000

          k = 0.0769-0.1386 0.0000 ( 24453 PWs)   bands (ev):

   -34.7692 -34.7690 -34.7687 -34.7685 -34.7376 -34.7371 -34.7322 -34.7322
   -34.7224 -34.7222 -34.6635 -34.6578 -34.6474 -34.6192 -34.6183 -27.5436
   -27.5435 -27.5424 -27.5422 -27.5356 -27.5354 -27.5324 -27.5322 -27.5307
   -27.5304 -10.5505 -10.0266  -9.0078  -6.3800  -5.2391  -0.9598  -0.6271
    -0.3770  -0.1963   0.0180   0.3484   0.6744   1.3987   1.4800   2.4510
     2.8877   3.0994   3.8123   4.0589   4.4347   6.3829   6.4014   6.7879
     7.0992   7.6071   7.9553   8.3215   8.4562   8.7243   8.8422   9.4505
     9.6593   9.9484  10.2293  10.6510  10.9161  11.0970  11.1989  11.5632
    12.2742  12.4408  12.7346  13.0502  13.2788  13.4709  13.8847  14.1695
    14.6501  14.9856  15.0442  15.2049  15.3123  15.4436  15.6930  16.1549
    16.2981  16.4526  16.8212  16.9194  16.9599  17.1113  17.2157  17.3549
    17.3916  17.5543  17.6179  17.6760  18.4726  18.9581  19.1203  19.1835
    19.2241  19.4414  19.7506  19.7888

     occupation numbers 
     1.0000   1.0000   1.0000   1.0000   1.0000   1.0000   1.0000   1.0000
     1.0000   1.0000   1.0000   1.0000   1.0000   1.0000   1.0000   1.0000
     1.0000   1.0000   1.0000   1.0000   1.0000   1.0000   1.0000   1.0000
     1.0000   1.0000   1.0000   1.0000   1.0000   1.0000   1.0000   1.0000
     1.0000   1.0000   1.0000   1.0000   1.0000   1.0000   1.0000   0.0000
     0.0000   0.0000   0.0000   0.0000   0.0000   0.0000   0.0000   0.0000
     0.0000   0.0000   0.0000   0.0000   0.0000   0.0000   0.0000   0.0000
     0.0000   0.0000   0.0000   0.0000   0.0000   0.0000   0.0000   0.0000
     0.0000   0.0000   0.0000   0.0000   0.0000   0.0000   0.0000   0.0000
     0.0000   0.0000   0.0000   0.0000   0.0000   0.0000   0.0000   0.0000
     0.0000   0.0000   0.0000   0.0000   0.0000   0.0000   0.0000   0.0000
     0.0000   0.0000   0.0000   0.0000   0.0000   0.0000   0.0000   0.0000
     0.0000   0.0000   0.0000   0.0000

          k = 0.0769-0.0471 0.0000 ( 24433 PWs)   bands (ev):

   -34.7692 -34.7690 -34.7688 -34.7686 -34.7375 -34.7371 -34.7322 -34.7321
   -34.7225 -34.7223 -34.6635 -34.6578 -34.6474 -34.6193 -34.6184 -27.5435
   -27.5434 -27.5429 -27.5427 -27.5359 -27.5357 -27.5323 -27.5322 -27.5303
   -27.5301 -10.6542 -10.1215  -9.0638  -6.3596  -5.0754  -0.5028  -0.2298
    -0.1396   0.0654   0.2552   0.4253   0.9355   1.1047   1.4963   2.3282
     2.7126   2.8742   3.6437   3.8358   4.1013   6.2460   6.3631   6.9192
     7.2612   7.5515   7.7173   8.3550   8.5148   8.6585   8.8399   9.1119
     9.6516   9.7433  10.1453  10.3131  10.7250  10.8136  10.9603  11.2985
    11.9337  12.1380  12.7520  12.9241  13.3802  13.5410  14.2185  14.4208
    14.5251  14.9634  15.3174  15.5170  15.6990  15.9718  16.0153  16.1731
    16.4003  16.5286  16.5746  16.6814  16.9338  17.0367  17.3264  17.6055
    17.8277  17.8529  17.9356  18.1400  18.3037  18.3531  18.5510  18.7312
    18.8055  18.9385  18.9579  19.2148

     occupation numbers 
     1.0000   1.0000   1.0000   1.0000   1.0000   1.0000   1.0000   1.0000
     1.0000   1.0000   1.0000   1.0000   1.0000   1.0000   1.0000   1.0000
     1.0000   1.0000   1.0000   1.0000   1.0000   1.0000   1.0000   1.0000
     1.0000   1.0000   1.0000   1.0000   1.0000   1.0000   1.0000   1.0000
     1.0000   1.0000   1.0000   1.0000   1.0000   1.0000   1.0000   0.0000
     0.0000   0.0000   0.0000   0.0000   0.0000   0.0000   0.0000   0.0000
     0.0000   0.0000   0.0000   0.0000   0.0000   0.0000   0.0000   0.0000
     0.0000   0.0000   0.0000   0.0000   0.0000   0.0000   0.0000   0.0000
     0.0000   0.0000   0.0000   0.0000   0.0000   0.0000   0.0000   0.0000
     0.0000   0.0000   0.0000   0.0000   0.0000   0.0000   0.0000   0.0000
     0.0000   0.0000   0.0000   0.0000   0.0000   0.0000   0.0000   0.0000
     0.0000   0.0000   0.0000   0.0000   0.0000   0.0000   0.0000   0.0000
     0.0000   0.0000   0.0000   0.0000

          k = 0.1538 0.0888 0.0000 ( 24463 PWs)   bands (ev):

   -34.7691 -34.7689 -34.7688 -34.7685 -34.7376 -34.7372 -34.7322 -34.7321
   -34.7224 -34.7222 -34.6634 -34.6578 -34.6474 -34.6192 -34.6184 -27.5432
   -27.5431 -27.5428 -27.5427 -27.5359 -27.5355 -27.5328 -27.5323 -27.5304
   -27.5299 -10.5113  -9.9932  -8.9927  -6.4095  -5.3518  -1.3204  -0.6745
    -0.4494  -0.3301   0.1087   0.1826   1.0892   1.2124   1.5029   2.7042
     3.0698   3.1768   3.8517   4.1166   4.4692   6.2380   6.4549   6.7386
     7.2447   7.6185   8.1274   8.2110   8.4616   8.7386   9.2080   9.3824
     9.5722  10.0387  10.3287  10.5956  10.9937  11.2575  11.3723  11.5625
    12.1567  12.4114  12.7895  13.0893  13.1638  13.6083  13.6614  14.2174
    14.3982  14.4646  14.8093  15.2948  15.5026  15.8305  15.9410  16.0329
    16.1360  16.3343  16.4428  16.4919  16.6669  16.9732  17.5207  17.5702
    17.9317  18.0607  18.1742  18.3418  18.4005  18.8552  19.0008  19.0427
    19.0868  19.2583  19.3383  19.4528

     occupation numbers 
     1.0000   1.0000   1.0000   1.0000   1.0000   1.0000   1.0000   1.0000
     1.0000   1.0000   1.0000   1.0000   1.0000   1.0000   1.0000   1.0000
     1.0000   1.0000   1.0000   1.0000   1.0000   1.0000   1.0000   1.0000
     1.0000   1.0000   1.0000   1.0000   1.0000   1.0000   1.0000   1.0000
     1.0000   1.0000   1.0000   1.0000   1.0000   1.0000   1.0000   0.0000
     0.0000   0.0000   0.0000   0.0000   0.0000   0.0000   0.0000   0.0000
     0.0000   0.0000   0.0000   0.0000   0.0000   0.0000   0.0000   0.0000
     0.0000   0.0000   0.0000   0.0000   0.0000   0.0000   0.0000   0.0000
     0.0000   0.0000   0.0000   0.0000   0.0000   0.0000   0.0000   0.0000
     0.0000   0.0000   0.0000   0.0000   0.0000   0.0000   0.0000   0.0000
     0.0000   0.0000   0.0000   0.0000   0.0000   0.0000   0.0000   0.0000
     0.0000   0.0000   0.0000   0.0000   0.0000   0.0000   0.0000   0.0000
     0.0000   0.0000   0.0000   0.0000

          k = 0.1538 0.1803 0.0000 ( 24472 PWs)   bands (ev):

   -34.7691 -34.7689 -34.7685 -34.7683 -34.7376 -34.7372 -34.7322 -34.7322
   -34.7224 -34.7221 -34.6633 -34.6579 -34.6474 -34.6190 -34.6184 -27.5433
   -27.5433 -27.5422 -27.5422 -27.5357 -27.5353 -27.5330 -27.5323 -27.5307
   -27.5301 -10.3637  -9.8614  -8.9233  -6.4674  -5.5942  -1.6773  -1.1071
    -0.8174  -0.4041  -0.2090   0.2110   0.7371   1.2109   1.6514   2.7425
     3.1693   3.4782   3.9692   4.6077   4.6829   6.1709   6.6067   6.7470
     7.1673   7.7747   8.1636   8.3024   8.6950   8.8016   9.3147   9.6741
     9.8894  10.0289  10.5522  10.8552  11.1691  11.3536  11.8601  11.9518
    12.4076  12.4548  12.9047  13.1100  13.3329  13.4862  13.7022  13.8052
    13.9066  14.3694  14.7782  14.9642  15.4498  15.4820  15.6006  15.7835
    16.0078  16.5391  16.6466  16.8441  16.9506  17.0590  17.2944  17.3549
    17.7286  17.9595  18.2120  18.2917  18.3894  18.5515  18.5820  18.6976
    18.9367  19.2037  19.2920  19.4857

     occupation numbers 
     1.0000   1.0000   1.0000   1.0000   1.0000   1.0000   1.0000   1.0000
     1.0000   1.0000   1.0000   1.0000   1.0000   1.0000   1.0000   1.0000
     1.0000   1.0000   1.0000   1.0000   1.0000   1.0000   1.0000   1.0000
     1.0000   1.0000   1.0000   1.0000   1.0000   1.0000   1.0000   1.0000
     1.0000   1.0000   1.0000   1.0000   1.0000   1.0000   1.0000   0.0000
     0.0000   0.0000   0.0000   0.0000   0.0000   0.0000   0.0000   0.0000
     0.0000   0.0000   0.0000   0.0000   0.0000   0.0000   0.0000   0.0000
     0.0000   0.0000   0.0000   0.0000   0.0000   0.0000   0.0000   0.0000
     0.0000   0.0000   0.0000   0.0000   0.0000   0.0000   0.0000   0.0000
     0.0000   0.0000   0.0000   0.0000   0.0000   0.0000   0.0000   0.0000
     0.0000   0.0000   0.0000   0.0000   0.0000   0.0000   0.0000   0.0000
     0.0000   0.0000   0.0000   0.0000   0.0000   0.0000   0.0000   0.0000
     0.0000   0.0000   0.0000   0.0000

          k = 0.1538 0.2718 0.0000 ( 24486 PWs)   bands (ev):

   -34.7691 -34.7689 -34.7683 -34.7681 -34.7376 -34.7372 -34.7323 -34.7322
   -34.7222 -34.7220 -34.6632 -34.6579 -34.6475 -34.6187 -34.6183 -27.5434
   -27.5433 -27.5415 -27.5414 -27.5354 -27.5350 -27.5331 -27.5323 -27.5312
   -27.5306 -10.1221  -9.6496  -8.8230  -6.5850  -5.9613  -1.9303  -1.7940
    -0.9633  -0.8063  -0.5254  -0.0699   0.6822   1.2878   1.4123   2.8548
     3.4480   3.6067   4.1105   4.9717   5.1493   6.3511   6.4252   6.9624
     7.2881   7.8737   8.0995   8.2991   9.1538   9.4016   9.7555   9.8246
    10.0523  10.4366  10.7219  10.8544  11.7258  11.9274  12.0056  12.2178
    12.4315  12.5959  12.9239  13.0559  13.2843  13.3532  13.4832  13.6063
    14.1997  14.4525  14.5486  14.7951  15.1343  15.2775  15.4640  15.6805
    15.8242  16.0605  16.3182  16.5099  16.7536  17.1361  17.5750  17.6784
    17.7981  17.8423  17.9807  18.0814  18.1130  18.3409  18.4872  18.5745
    18.6763  19.1051  19.5531  19.7057

     occupation numbers 
     1.0000   1.0000   1.0000   1.0000   1.0000   1.0000   1.0000   1.0000
     1.0000   1.0000   1.0000   1.0000   1.0000   1.0000   1.0000   1.0000
     1.0000   1.0000   1.0000   1.0000   1.0000   1.0000   1.0000   1.0000
     1.0000   1.0000   1.0000   1.0000   1.0000   1.0000   1.0000   1.0000
     1.0000   1.0000   1.0000   1.0000   1.0000   1.0000   1.0000   0.0000
     0.0000   0.0000   0.0000   0.0000   0.0000   0.0000   0.0000   0.0000
     0.0000   0.0000   0.0000   0.0000   0.0000   0.0000   0.0000   0.0000
     0.0000   0.0000   0.0000   0.0000   0.0000   0.0000   0.0000   0.0000
     0.0000   0.0000   0.0000   0.0000   0.0000   0.0000   0.0000   0.0000
     0.0000   0.0000   0.0000   0.0000   0.0000   0.0000   0.0000   0.0000
     0.0000   0.0000   0.0000   0.0000   0.0000   0.0000   0.0000   0.0000
     0.0000   0.0000   0.0000   0.0000   0.0000   0.0000   0.0000   0.0000
     0.0000   0.0000   0.0000   0.0000

          k = 0.1538 0.3633 0.0000 ( 24522 PWs)   bands (ev):

   -34.7691 -34.7688 -34.7680 -34.7678 -34.7376 -34.7372 -34.7323 -34.7323
   -34.7221 -34.7219 -34.6631 -34.6579 -34.6476 -34.6185 -34.6182 -27.5436
   -27.5434 -27.5408 -27.5407 -27.5351 -27.5348 -27.5331 -27.5324 -27.5316
   -27.5311  -9.7987  -9.3777  -8.7216  -6.7859  -6.3950  -2.3597  -2.0420
    -1.3252  -1.1099  -0.7928  -0.3098   0.7111   0.9347   1.3617   2.9751
     3.5178   3.6588   4.4690   5.1513   5.5124   6.0864   6.8626   7.3933
     7.4455   7.8873   8.5242   8.5416   9.3555   9.4795  10.2636  10.2814
    10.5663  10.7570  10.8156  11.5191  11.7326  11.8620  11.9614  12.2094
    12.5722  12.5949  12.8468  12.9227  12.9844  13.0790  13.7542  13.9745
    14.2461  14.4286  14.4654  14.7396  14.7972  14.9951  15.1022  15.6198
    15.8681  15.9830  16.4529  16.5784  16.7300  17.0213  17.1356  17.3727
    17.5631  17.6383  17.7197  17.9099  18.2810  18.5121  18.8771  19.0086
    19.1122  19.3843  19.4773  19.5313

     occupation numbers 
     1.0000   1.0000   1.0000   1.0000   1.0000   1.0000   1.0000   1.0000
     1.0000   1.0000   1.0000   1.0000   1.0000   1.0000   1.0000   1.0000
     1.0000   1.0000   1.0000   1.0000   1.0000   1.0000   1.0000   1.0000
     1.0000   1.0000   1.0000   1.0000   1.0000   1.0000   1.0000   1.0000
     1.0000   1.0000   1.0000   1.0000   1.0000   1.0000   1.0000   0.0000
     0.0000   0.0000   0.0000   0.0000   0.0000   0.0000   0.0000   0.0000
     0.0000   0.0000   0.0000   0.0000   0.0000   0.0000   0.0000   0.0000
     0.0000   0.0000   0.0000   0.0000   0.0000   0.0000   0.0000   0.0000
     0.0000   0.0000   0.0000   0.0000   0.0000   0.0000   0.0000   0.0000
     0.0000   0.0000   0.0000   0.0000   0.0000   0.0000   0.0000   0.0000
     0.0000   0.0000   0.0000   0.0000   0.0000   0.0000   0.0000   0.0000
     0.0000   0.0000   0.0000   0.0000   0.0000   0.0000   0.0000   0.0000
     0.0000   0.0000   0.0000   0.0000

          k = 0.1538 0.4548 0.0000 ( 24526 PWs)   bands (ev):

   -34.7691 -34.7688 -34.7678 -34.7676 -34.7377 -34.7372 -34.7324 -34.7323
   -34.7219 -34.7217 -34.6631 -34.6580 -34.6477 -34.6185 -34.6179 -27.5437
   -27.5435 -27.5401 -27.5400 -27.5349 -27.5346 -27.5329 -27.5324 -27.5320
   -27.5317  -9.4192  -9.0877  -8.6712  -7.0752  -6.7845  -2.7413  -2.0662
    -1.5765  -1.4949  -0.8664  -0.4702   0.4905   0.8229   1.3011   2.9424
[...]
     0.0000   0.0000   0.0000   0.0000

          k = 0.4615 0.7239 0.0000 ( 24503 PWs)   bands (ev):

   -36.5765 -36.5761 -36.5707 -36.5703 -36.5377 -36.5373 -36.5252 -36.5247
   -36.5168 -36.5164 -36.2942 -36.2893 -36.2743 -36.2397 -36.2359 -29.2785
   -29.2777 -29.2732 -29.2727 -29.2661 -29.2656 -29.2546 -29.2538 -29.2482
   -29.2460 -11.0696 -10.9114 -10.7029  -9.1847  -8.7730  -4.2595  -3.3123
    -3.1587  -2.6489  -2.0010  -1.8750  -0.4260  -0.0677   0.5061   2.7868
     3.3129   3.4085   4.6588   5.1055   5.7024   6.2640   7.6633   8.4029
     8.6743   9.0222   9.2049   9.5484   9.8015  10.0259  10.3359  10.5176
    10.6581  10.8611  11.1780  11.7614  11.8196  12.1564  12.2862  12.5652
    12.6610  12.9419  13.2335  13.3967  13.4543  13.8897  14.3113  14.4316
    14.5484  14.7671  15.0936  15.2163  15.4626  15.7392  15.8417  16.1628
    16.4552  16.5566  17.1446  17.2576  17.3022  17.4367  17.6865  17.7549
    18.0475  18.2778  18.4254  18.5081  18.7310  18.9158  19.0429  19.2088
    19.3312  19.5094  19.7333  20.0296

     occupation numbers 
     1.0000   1.0000   1.0000   1.0000   1.0000   1.0000   1.0000   1.0000
     1.0000   1.0000   1.0000   1.0000   1.0000   1.0000   1.0000   1.0000
     1.0000   1.0000   1.0000   1.0000   1.0000   1.0000   1.0000   1.0000
     1.0000   1.0000   1.0000   1.0000   1.0000   1.0000   1.0000   1.0000
     1.0000   1.0000   1.0000   1.0000   1.0000   1.0000   1.0000   0.0000
     0.0000   0.0000   0.0000   0.0000   0.0000   0.0000   0.0000   0.0000
     0.0000   0.0000   0.0000   0.0000   0.0000   0.0000   0.0000   0.0000
     0.0000   0.0000   0.0000   0.0000   0.0000   0.0000   0.0000   0.0000
     0.0000   0.0000   0.0000   0.0000   0.0000   0.0000   0.0000   0.0000
     0.0000   0.0000   0.0000   0.0000   0.0000   0.0000   0.0000   0.0000
     0.0000   0.0000   0.0000   0.0000   0.0000   0.0000   0.0000   0.0000
     0.0000   0.0000   0.0000   0.0000   0.0000   0.0000   0.0000   0.0000
     0.0000   0.0000   0.0000   0.0000

          k = 0.4615 0.8154 0.0000 ( 24536 PWs)   bands (ev):

   -36.5762 -36.5759 -36.5682 -36.5679 -36.5382 -36.5377 -36.5272 -36.5268
   -36.5188 -36.5184 -36.2940 -36.2917 -36.2686 -36.2405 -36.2343 -29.2837
   -29.2830 -29.2774 -29.2768 -29.2676 -29.2661 -29.2550 -29.2542 -29.2458
   -29.2436 -11.0032 -10.9710 -10.8731  -9.2077  -8.6076  -4.3944  -3.0280
    -2.8954  -2.6829  -2.0712  -1.4967  -0.3848  -0.2870   0.3379   2.7995
     2.8971   3.3742   4.7069   4.7986   5.7291   5.7887   7.4959   8.5380
     8.7975   8.8469   8.9964   9.8164   9.8743   9.9573  10.5892  10.7430
    11.1596  11.3845  11.6383  11.8843  12.0391  12.2133  12.5239  12.6805
    12.7677  12.8141  13.2900  13.3904  13.8808  13.9992  14.3019  14.4632
    14.5742  14.8164  14.8516  14.8792  15.2499  15.3512  15.6045  15.9168
    16.0964  16.1928  16.4303  16.6326  16.9452  17.2633  17.3146  17.6661
    18.0850  18.3427  18.5098  18.6134  18.7230  18.7979  18.9008  19.2238
    19.3053  19.4365  19.5141  19.6913

     occupation numbers 
     1.0000   1.0000   1.0000   1.0000   1.0000   1.0000   1.0000   1.0000
     1.0000   1.0000   1.0000   1.0000   1.0000   1.0000   1.0000   1.0000
     1.0000   1.0000   1.0000   1.0000   1.0000   1.0000   1.0000   1.0000
     1.0000   1.0000   1.0000   1.0000   1.0000   1.0000   1.0000   1.0000
     1.0000   1.0000   1.0000   1.0000   1.0000   1.0000   1.0000   0.0000
     0.0000   0.0000   0.0000   0.0000   0.0000   0.0000   0.0000   0.0000
     0.0000   0.0000   0.0000   0.0000   0.0000   0.0000   0.0000   0.0000
     0.0000   0.0000   0.0000   0.0000   0.0000   0.0000   0.0000   0.0000
     0.0000   0.0000   0.0000   0.0000   0.0000   0.0000   0.0000   0.0000
     0.0000   0.0000   0.0000   0.0000   0.0000   0.0000   0.0000   0.0000
     0.0000   0.0000   0.0000   0.0000   0.0000   0.0000   0.0000   0.0000
     0.0000   0.0000   0.0000   0.0000   0.0000   0.0000   0.0000   0.0000
     0.0000   0.0000   0.0000   0.0000

          k = 0.4615-0.2825 0.0000 ( 24507 PWs)   bands (ev):

   -36.5774 -36.5771 -36.5689 -36.5685 -36.5394 -36.5390 -36.5271 -36.5266
   -36.5182 -36.5178 -36.2951 -36.2920 -36.2662 -36.2433 -36.2353 -29.2849
   -29.2842 -29.2791 -29.2786 -29.2682 -29.2656 -29.2560 -29.2546 -29.2447
   -29.2427 -11.1776 -11.0190 -10.8121  -9.1565  -8.5010  -4.4061  -2.9415
    -2.7550  -2.6295  -2.0366  -1.4124  -0.3791  -0.2602   0.1853   2.5343
     3.0643   3.3811   4.5603   4.7771   5.6180   5.7711   7.4290   8.3541
     8.6195   8.9765   9.1813   9.5426   9.9417  10.1860  10.6207  10.9903
    11.2565  11.5605  11.6242  11.9745  12.0831  12.1523  12.3692  12.5820
    12.8594  13.0708  13.3265  13.5361  13.8524  14.0981  14.2697  14.4789
    14.5336  14.6805  14.7521  15.0128  15.1716  15.2941  15.4732  15.5931
    15.8218  16.0643  16.5437  16.8153  16.9035  17.1203  17.3865  17.6006
    17.8545  18.0281  18.1356  18.3034  18.5577  18.7603  18.8977  19.0076
    19.1625  19.8311  19.8863  19.9202

     occupation numbers 
     1.0000   1.0000   1.0000   1.0000   1.0000   1.0000   1.0000   1.0000
     1.0000   1.0000   1.0000   1.0000   1.0000   1.0000   1.0000   1.0000
     1.0000   1.0000   1.0000   1.0000   1.0000   1.0000   1.0000   1.0000
     1.0000   1.0000   1.0000   1.0000   1.0000   1.0000   1.0000   1.0000
     1.0000   1.0000   1.0000   1.0000   1.0000   1.0000   1.0000   0.0000
     0.0000   0.0000   0.0000   0.0000   0.0000   0.0000   0.0000   0.0000
     0.0000   0.0000   0.0000   0.0000   0.0000   0.0000   0.0000   0.0000
     0.0000   0.0000   0.0000   0.0000   0.0000   0.0000   0.0000   0.0000
     0.0000   0.0000   0.0000   0.0000   0.0000   0.0000   0.0000   0.0000
     0.0000   0.0000   0.0000   0.0000   0.0000   0.0000   0.0000   0.0000
     0.0000   0.0000   0.0000   0.0000   0.0000   0.0000   0.0000   0.0000
     0.0000   0.0000   0.0000   0.0000   0.0000   0.0000   0.0000   0.0000
     0.0000   0.0000   0.0000   0.0000

          k = 0.4615-0.1910 0.0000 ( 24479 PWs)   bands (ev):

   -36.5772 -36.5768 -36.5697 -36.5693 -36.5374 -36.5370 -36.5295 -36.5290
   -36.5183 -36.5179 -36.2927 -36.2912 -36.2700 -36.2422 -36.2361 -29.2839
   -29.2831 -29.2772 -29.2766 -29.2682 -29.2670 -29.2554 -29.2548 -29.2463
   -29.2442 -11.3546 -11.0832 -10.6853  -9.0491  -8.4889  -4.2943  -2.9980
    -2.8717  -2.6118  -1.9703  -1.4686  -0.4471  -0.1916   0.4054   2.8091
     2.8902   3.4341   4.6293   4.8147   5.6622   5.9267   7.4383   8.0969
     8.4138   9.1223   9.3579   9.3675   9.9173  10.2300  10.5398  10.7167
    11.1417  11.2312  11.4991  11.6926  11.8721  12.1314  12.3135  12.6563
    12.7726  12.8668  13.2409  13.2879  13.6090  13.9612  14.0480  14.4708
    14.5394  14.8102  15.0408  15.3038  15.4518  15.5891  15.9098  15.9823
    16.1896  16.3325  16.3966  16.7782  17.1536  17.2785  17.3290  17.5159
    17.7424  17.9053  18.2328  18.2531  18.5211  18.6912  18.7397  19.1310
    19.3443  19.4398  19.6248  20.0215

     occupation numbers 
     1.0000   1.0000   1.0000   1.0000   1.0000   1.0000   1.0000   1.0000
     1.0000   1.0000   1.0000   1.0000   1.0000   1.0000   1.0000   1.0000
     1.0000   1.0000   1.0000   1.0000   1.0000   1.0000   1.0000   1.0000
     1.0000   1.0000   1.0000   1.0000   1.0000   1.0000   1.0000   1.0000
     1.0000   1.0000   1.0000   1.0000   1.0000   1.0000   1.0000   0.0000
     0.0000   0.0000   0.0000   0.0000   0.0000   0.0000   0.0000   0.0000
     0.0000   0.0000   0.0000   0.0000   0.0000   0.0000   0.0000   0.0000
     0.0000   0.0000   0.0000   0.0000   0.0000   0.0000   0.0000   0.0000
     0.0000   0.0000   0.0000   0.0000   0.0000   0.0000   0.0000   0.0000
     0.0000   0.0000   0.0000   0.0000   0.0000   0.0000   0.0000   0.0000
     0.0000   0.0000   0.0000   0.0000   0.0000   0.0000   0.0000   0.0000
     0.0000   0.0000   0.0000   0.0000   0.0000   0.0000   0.0000   0.0000
     0.0000   0.0000   0.0000   0.0000

          k = 0.4615-0.0995 0.0000 ( 24518 PWs)   bands (ev):

   -36.5780 -36.5777 -36.5723 -36.5719 -36.5392 -36.5389 -36.5276 -36.5270
   -36.5176 -36.5171 -36.2943 -36.2893 -36.2778 -36.2420 -36.2387 -29.2783
   -29.2775 -29.2725 -29.2719 -29.2669 -29.2662 -29.2561 -29.2553 -29.2491
   -29.2473 -11.4717 -11.1296 -10.6013  -8.9010  -8.5495  -4.0686  -3.3367
    -2.8278  -2.7016  -1.9920  -1.6628  -0.3569  -0.0066   0.5733   2.7235
     3.3337   3.5441   4.4844   5.1033   5.6270   6.4160   7.5778   7.8917
     8.3174   8.5470   9.0597   9.2604   9.8285   9.9886  10.3665  10.6905
    11.0527  11.2241  11.3716  11.6239  11.8654  12.1044  12.2892  12.6744
    12.7829  12.9241  13.1276  13.2472  13.5241  13.6132  13.9090  14.1256
    14.4050  14.5251  14.8046  15.2543  15.3440  15.9236  16.0130  16.1100
    16.6457  16.7768  17.0555  17.0939  17.2171  17.2538  17.7155  17.7469
    17.9985  18.1554  18.2073  18.4956  18.5985  18.8693  19.2178  19.3306
    19.5101  19.8798  20.1117  20.2207

     occupation numbers 
     1.0000   1.0000   1.0000   1.0000   1.0000   1.0000   1.0000   1.0000
     1.0000   1.0000   1.0000   1.0000   1.0000   1.0000   1.0000   1.0000
     1.0000   1.0000   1.0000   1.0000   1.0000   1.0000   1.0000   1.0000
     1.0000   1.0000   1.0000   1.0000   1.0000   1.0000   1.0000   1.0000
     1.0000   1.0000   1.0000   1.0000   1.0000   1.0000   1.0000   0.0000
     0.0000   0.0000   0.0000   0.0000   0.0000   0.0000   0.0000   0.0000
     0.0000   0.0000   0.0000   0.0000   0.0000   0.0000   0.0000   0.0000
     0.0000   0.0000   0.0000   0.0000   0.0000   0.0000   0.0000   0.0000
     0.0000   0.0000   0.0000   0.0000   0.0000   0.0000   0.0000   0.0000
     0.0000   0.0000   0.0000   0.0000   0.0000   0.0000   0.0000   0.0000
     0.0000   0.0000   0.0000   0.0000   0.0000   0.0000   0.0000   0.0000
     0.0000   0.0000   0.0000   0.0000   0.0000   0.0000   0.0000   0.0000
     0.0000   0.0000   0.0000   0.0000

          k = 0.4615-0.0080 0.0000 ( 24541 PWs)   bands (ev):

   -36.5812 -36.5808 -36.5649 -36.5644 -36.5379 -36.5375 -36.5290 -36.5285
   -36.5165 -36.5160 -36.2931 -36.2867 -36.2794 -36.2401 -36.2378 -29.2754
   -29.2748 -29.2727 -29.2720 -29.2667 -29.2652 -29.2598 -29.2582 -29.2577
   -29.2560 -11.5139 -11.1497 -10.5708  -8.8168  -8.6093  -3.7987  -3.6994
    -2.7924  -2.4703  -2.3581  -1.6561  -0.2287   0.2732   0.3766   3.1102
     3.1971   3.5498   4.6559   5.2288   5.4988   7.1806   7.3391   7.7505
     7.9120   8.4176   8.8573   9.0172   9.7941   9.8485  10.4912  10.7438
    10.9238  11.0915  11.5681  11.6849  11.7220  12.3029  12.3608  12.4562
    12.6373  12.8888  13.0576  13.4033  13.4588  13.8878  14.0918  14.1868
    14.2413  14.4920  14.5408  14.8276  15.1915  15.4961  16.0048  16.4273
    16.6766  16.9001  17.0454  17.1182  17.1770  17.5735  17.8290  17.9456
    18.2151  18.3025  18.5843  18.8542  19.1719  19.3081  19.3849  19.4623
    19.6092  19.7968  20.1699  20.2126

     occupation numbers 
     1.0000   1.0000   1.0000   1.0000   1.0000   1.0000   1.0000   1.0000
     1.0000   1.0000   1.0000   1.0000   1.0000   1.0000   1.0000   1.0000
     1.0000   1.0000   1.0000   1.0000   1.0000   1.0000   1.0000   1.0000
     1.0000   1.0000   1.0000   1.0000   1.0000   1.0000   1.0000   1.0000
     1.0000   1.0000   1.0000   1.0000   1.0000   1.0000   1.0000   0.0000
     0.0000   0.0000   0.0000   0.0000   0.0000   0.0000   0.0000   0.0000
     0.0000   0.0000   0.0000   0.0000   0.0000   0.0000   0.0000   0.0000
     0.0000   0.0000   0.0000   0.0000   0.0000   0.0000   0.0000   0.0000
     0.0000   0.0000   0.0000   0.0000   0.0000   0.0000   0.0000   0.0000
     0.0000   0.0000   0.0000   0.0000   0.0000   0.0000   0.0000   0.0000
     0.0000   0.0000   0.0000   0.0000   0.0000   0.0000   0.0000   0.0000
     0.0000   0.0000   0.0000   0.0000   0.0000   0.0000   0.0000   0.0000
     0.0000   0.0000   0.0000   0.0000

          k = 0.4615 0.0835 0.0000 ( 24528 PWs)   bands (ev):

   -36.5795 -36.5792 -36.5725 -36.5721 -36.5374 -36.5371 -36.5302 -36.5297
   -36.5184 -36.5179 -36.2946 -36.2860 -36.2823 -36.2422 -36.2390 -29.2764
   -29.2758 -29.2731 -29.2724 -29.2671 -29.2663 -29.2581 -29.2571 -29.2471
   -29.2453 -11.4898 -11.1547 -10.6273  -8.9250  -8.5401  -4.0695  -3.3236
    -2.7950  -2.6688  -2.0050  -1.6136  -0.3244   0.0206   0.6446   2.8298
     3.4131   3.5194   4.5220   5.1849   5.6002   6.4713   7.5568   7.8651
     8.3099   8.4065   9.0236   9.1738   9.7528   9.9923  10.3242  10.6310
    11.0675  11.1272  11.4050  11.5489  11.9158  12.2349  12.4375  12.6838
    12.8788  13.0632  13.2040  13.2520  13.4783  13.5916  13.8899  14.0894
    14.3528  14.5860  14.9086  15.2667  15.3973  15.8321  15.9466  16.0746
    16.5315  16.8706  16.9513  17.1176  17.2078  17.2628  17.6923  17.8236
    18.0339  18.1596  18.2518  18.3823  18.4396  18.6684  19.1193  19.3402
    19.3938  19.9068  19.9767  20.1448

     occupation numbers 
     1.0000   1.0000   1.0000   1.0000   1.0000   1.0000   1.0000   1.0000
     1.0000   1.0000   1.0000   1.0000   1.0000   1.0000   1.0000   1.0000
     1.0000   1.0000   1.0000   1.0000   1.0000   1.0000   1.0000   1.0000
     1.0000   1.0000   1.0000   1.0000   1.0000   1.0000   1.0000   1.0000
     1.0000   1.0000   1.0000   1.0000   1.0000   1.0000   1.0000   0.0000
     0.0000   0.0000   0.0000   0.0000   0.0000   0.0000   0.0000   0.0000
     0.0000   0.0000   0.0000   0.0000   0.0000   0.0000   0.0000   0.0000
     0.0000   0.0000   0.0000   0.0000   0.0000   0.0000   0.0000   0.0000
     0.0000   0.0000   0.0000   0.0000   0.0000   0.0000   0.0000   0.0000
     0.0000   0.0000   0.0000   0.0000   0.0000   0.0000   0.0000   0.0000
     0.0000   0.0000   0.0000   0.0000   0.0000   0.0000   0.0000   0.0000
     0.0000   0.0000   0.0000   0.0000   0.0000   0.0000   0.0000   0.0000
     0.0000   0.0000   0.0000   0.0000

          k = 0.4615 0.1750 0.0000 ( 24566 PWs)   bands (ev):

   -36.5799 -36.5795 -36.5715 -36.5711 -36.5353 -36.5349 -36.5326 -36.5321
   -36.5189 -36.5184 -36.2921 -36.2869 -36.2769 -36.2435 -36.2378 -29.2816
   -29.2811 -29.2776 -29.2769 -29.2683 -29.2668 -29.2570 -29.2564 -29.2433
   -29.2413 -11.3914 -11.1307 -10.7285  -9.0746  -8.4870  -4.2905  -3.0218
    -2.8018  -2.5433  -1.9203  -1.4219  -0.3916  -0.1322   0.5214   2.9227
     3.0231   3.4472   4.6591   4.9321   5.6744   5.9462   7.3966   8.0584
     8.3879   9.0426   9.2506   9.3145   9.8615  10.1395  10.4797  10.6182
    11.0188  11.2458  11.5868  11.7572  11.9299  12.2017  12.2912  12.7319
    12.8310  12.8803  13.2609  13.3658  13.7656  13.9728  14.1148  14.4467
    14.5401  14.7765  15.0750  15.2709  15.4442  15.5404  15.8341  16.0795
    16.2862  16.3097  16.4610  16.7400  17.0101  17.1824  17.2544  17.4674
    17.5952  17.7378  18.1198  18.1971  18.3433  18.7437  18.8697  19.1298
    19.2880  19.4238  19.5912  19.7892

     occupation numbers 
     1.0000   1.0000   1.0000   1.0000   1.0000   1.0000   1.0000   1.0000
     1.0000   1.0000   1.0000   1.0000   1.0000   1.0000   1.0000   1.0000
     1.0000   1.0000   1.0000   1.0000   1.0000   1.0000   1.0000   1.0000
     1.0000   1.0000   1.0000   1.0000   1.0000   1.0000   1.0000   1.0000
     1.0000   1.0000   1.0000   1.0000   1.0000   1.0000   1.0000   0.0000
     0.0000   0.0000   0.0000   0.0000   0.0000   0.0000   0.0000   0.0000
     0.0000   0.0000   0.0000   0.0000   0.0000   0.0000   0.0000   0.0000
     0.0000   0.0000   0.0000   0.0000   0.0000   0.0000   0.0000   0.0000
     0.0000   0.0000   0.0000   0.0000   0.0000   0.0000   0.0000   0.0000
     0.0000   0.0000   0.0000   0.0000   0.0000   0.0000   0.0000   0.0000
     0.0000   0.0000   0.0000   0.0000   0.0000   0.0000   0.0000   0.0000
     0.0000   0.0000   0.0000   0.0000   0.0000   0.0000   0.0000   0.0000
     0.0000   0.0000   0.0000   0.0000

     highest occupied, lowest unoccupied level (ev):     0.8510    1.9528

!    total energy              =    -805.32635123 Ry
     estimated scf accuracy    <       0.00000006 Ry

     convergence has been achieved in   1 iterations

     Using ACE for calculation of exact exchange
     ACE projected onto   100 (nbndproj) and applied to   100 (nbnd) bands

!!   total energy              =    -805.32635131 Ry
     Harris-Foulkes estimate   =    -805.32635250 Ry
     est. exchange err (dexx)  =       0.00000008 Ry
     - averaged Fock potential =      22.95008423 Ry
     + Fock energy (ACE)       =     -11.47505698 Ry

     EXX self-consistency reached

     Writing all to output data dir tmp/Sb2Te3-uatsx-c4-3.0.save/ :
     XML data file, charge density, pseudopotentials, collected wavefunctions

     init_run     :      3.00s CPU      3.09s WALL (       1 calls)
     electrons    :    703.35s CPU    711.38s WALL (       6 calls)

     Called by init_run:
     aceinit0     :      0.00s CPU      0.00s WALL (       1 calls)
     wfcinit      :      2.77s CPU      2.84s WALL (       1 calls)
     wfcinit:wfcr :      2.70s CPU      2.75s WALL (      43 calls)
     potinit      :      0.02s CPU      0.02s WALL (       1 calls)
     hinit0       :      0.15s CPU      0.16s WALL (       1 calls)

     Called by electrons:
     c_bands      :    664.17s CPU    671.05s WALL (      37 calls)
     sum_band     :     38.45s CPU     39.20s WALL (      37 calls)
     v_of_rho     :      0.36s CPU      0.36s WALL (      38 calls)
     v_h          :      0.02s CPU      0.03s WALL (      38 calls)
     v_xc         :      0.33s CPU      0.34s WALL (      38 calls)
     mix_rho      :      0.04s CPU      0.05s WALL (      37 calls)
     energy_londo :      0.06s CPU      0.06s WALL (       6 calls)

     Called by c_bands:
     init_us_2    :      0.88s CPU      0.92s WALL (    3225 calls)
     cegterg      :    600.22s CPU    606.71s WALL (    1600 calls)

     Called by sum_band:
     sum_band:wei :      0.01s CPU      0.01s WALL (      37 calls)
     sum_band:loo :     38.08s CPU     38.83s WALL (      37 calls)
     sum_band:buf :      0.47s CPU      0.49s WALL (    1591 calls)
     sum_band:ini :      0.45s CPU      0.47s WALL (    1591 calls)

     Called by *egterg:
     cdiaghg      :    232.35s CPU    233.28s WALL (   15404 calls)
     cegterg:over :     32.78s CPU     33.08s WALL (   14071 calls)
     cegterg:upda :      8.59s CPU      8.69s WALL (   14071 calls)
     cegterg:last :     11.74s CPU     11.85s WALL (    4476 calls)
     h_psi        :    289.51s CPU    294.51s WALL (   15714 calls)
     g_psi        :      1.26s CPU      1.27s WALL (   14071 calls)

     Called by h_psi:
     h_psi:calbec :     15.93s CPU     16.09s WALL (   15714 calls)
     vloc_psi     :    251.43s CPU    256.08s WALL (   15714 calls)
     add_vuspsi   :      4.35s CPU      4.40s WALL (   15714 calls)

     General routines
     calbec       :     32.89s CPU     33.24s WALL (   28074 calls)
     fft          :      0.46s CPU      0.47s WALL (     373 calls)
     ffts         :      0.02s CPU      0.02s WALL (      37 calls)
     fftw         :    276.55s CPU    281.63s WALL ( 1213800 calls)
     fftc         :   2777.53s CPU   2807.21s WALL ( 5160000 calls)
     fftcw        :     26.84s CPU     27.17s WALL (   77400 calls)

     Parallel routines

     EXX routines
     exx_grid     :      0.03s CPU      0.03s WALL (       1 calls)
     exxinit      :    146.28s CPU    147.64s WALL (       6 calls)
     vexx         :   3128.79s CPU   3162.30s WALL (     258 calls)
     matcalc      :     17.10s CPU     17.27s WALL (   12360 calls)
     aceupdate    :      0.25s CPU      0.26s WALL (     258 calls)
     vexxace      :     20.56s CPU     20.75s WALL (   11629 calls)
     aceinit      :   3129.84s CPU   3163.39s WALL (     258 calls)

     PWSCF        :      1h 9m CPU      1h10m WALL


   This run was terminated on:   5: 9: 7  20May2025            

=------------------------------------------------------------------------------=
   JOB DONE.
=------------------------------------------------------------------------------=
