
     Program PWSCF v.7.3.1 starts on 20May2025 at  2:31:13 

     This program is part of the open-source Quantum ESPRESSO suite
     for quantum simulation of materials; please cite
         "P. Giannozzi et al., J. Phys.:Condens. Matter 21 395502 (2009);
         "P. Giannozzi et al., J. Phys.:Condens. Matter 29 465901 (2017);
         "P. Giannozzi et al., J. Chem. Phys. 152 154105 (2020);
          URL http://www.quantum-espresso.org", 
     in publications or presentations arising from this work. More details at
     http://www.quantum-espresso.org/quote

     Parallel version (MPI & OpenMP), running on     168 processor cores
     Number of MPI processes:               168
     Threads/MPI process:                     1

     MPI processes distributed on     7 nodes
     105615 MiB available memory on the printing compute node when the environment starts

     Waiting for input...
     Reading input from standard input

     Current dimensions of program PWSCF are:
     Max number of different atomic species (ntypx) = 10
     Max number of k-points (npk) =  40000
     Max angular momentum in pseudopotentials (lmaxx) =  4

     IMPORTANT: XC functional enforced from input :
     Exchange-correlation= GAUP
                           (   1   4  20   4   0   0   0)
     EXX-fraction              =        0.24
     Any further DFT definition will be discarded
     Please, verify this is what you really want


     K-points division:     npool     =       2
     R & G space division:  proc/nbgrp/npool/nimage =      84
     Subspace diagonalization in iterative solution of the eigenvalue problem:
     a serial algorithm will be used

     EXX: q-point mesh:     1    1    1
     EXX: setup a grid of 85 q-points centered on each k-point
     (k+q)-points:
   0.0000000   0.0000000   0.0000000         1    1
   0.0000000   0.0906005   0.0000000         2    1
   0.0000000   0.1812009   0.0000000         3    1
   0.0000000   0.2718014   0.0000000         4    1
   0.0000000   0.3624018   0.0000000         5    1
   0.0000000   0.4530023   0.0000000         6    1
   0.0000000   0.5436027   0.0000000         7    1
   0.0769231   0.0444120   0.0000000         8    1
   0.0769231   0.1350124   0.0000000         9    1
   0.0769231   0.2256129   0.0000000        10    1
   0.0769231   0.3162134   0.0000000        11    1
   0.0769231   0.4068138   0.0000000        12    1
   0.0769231   0.4974143   0.0000000        13    1
   0.0769231   0.5880147   0.0000000        14    1
   0.0769231  -0.4991908   0.0000000        15    1
   0.0769231  -0.4085903   0.0000000        16    1
   0.0769231  -0.3179898   0.0000000        17    1
   0.0769231  -0.2273894   0.0000000        18    1
   0.0769231  -0.1367889   0.0000000        19    1
   0.0769231  -0.0461885   0.0000000        20    1
   0.1538462   0.0888240   0.0000000        21    1
   0.1538462   0.1794244   0.0000000        22    1
   0.1538462   0.2700249   0.0000000        23    1
   0.1538462   0.3606253   0.0000000        24    1
   0.1538462   0.4512258   0.0000000        25    1
   0.1538462   0.5418263   0.0000000        26    1
   0.1538462   0.6324267   0.0000000        27    1
   0.1538462  -0.4547788   0.0000000        28    1
   0.1538462  -0.3641783   0.0000000        29    1
   0.1538462  -0.2735779   0.0000000        30    1
   0.1538462  -0.1829774   0.0000000        31    1
   0.1538462  -0.0923769   0.0000000        32    1
   0.1538462  -0.0017765   0.0000000        33    1
   0.2307692   0.1332360   0.0000000        34    1
   0.2307692   0.2238364   0.0000000        35    1
   0.2307692   0.3144369   0.0000000        36    1
   0.2307692   0.4050373   0.0000000        37    1
   0.2307692   0.4956378   0.0000000        38    1
   0.2307692   0.5862383   0.0000000        39    1
   0.2307692   0.6768387   0.0000000        40    1
   0.2307692  -0.4103668   0.0000000        41    1
   0.2307692  -0.3197663   0.0000000        42    1
   0.2307692  -0.2291659   0.0000000        43    1
   0.2307692  -0.1385654   0.0000000        44    1
   0.2307692  -0.0479649   0.0000000        45    1
   0.2307692   0.0426355   0.0000000        46    1
   0.3076923   0.1776480   0.0000000        47    1
   0.3076923   0.2682484   0.0000000        48    1
   0.3076923   0.3588489   0.0000000        49    1
   0.3076923   0.4494493   0.0000000        50    1
   0.3076923   0.5400498   0.0000000        51    1
   0.3076923   0.6306502   0.0000000        52    1
   0.3076923   0.7212507   0.0000000        53    1
   0.3076923  -0.3659548   0.0000000        54    1
   0.3076923  -0.2753543   0.0000000        55    1
   0.3076923  -0.1847539   0.0000000        56    1
   0.3076923  -0.0941534   0.0000000        57    1
   0.3076923  -0.0035530   0.0000000        58    1
   0.3076923   0.0870475   0.0000000        59    1
   0.3846154   0.2220599   0.0000000        60    1
   0.3846154   0.3126604   0.0000000        61    1
   0.3846154   0.4032609   0.0000000        62    1
   0.3846154   0.4938613   0.0000000        63    1
   0.3846154   0.5844618   0.0000000        64    1
   0.3846154   0.6750622   0.0000000        65    1
   0.3846154   0.7656627   0.0000000        66    1
   0.3846154  -0.3215428   0.0000000        67    1
   0.3846154  -0.2309423   0.0000000        68    1
   0.3846154  -0.1403419   0.0000000        69    1
   0.3846154  -0.0497414   0.0000000        70    1
   0.3846154   0.0408590   0.0000000        71    1
   0.3846154   0.1314595   0.0000000        72    1
   0.4615385   0.2664719   0.0000000        73    1
   0.4615385   0.3570724   0.0000000        74    1
   0.4615385   0.4476728   0.0000000        75    1
   0.4615385   0.5382733   0.0000000        76    1
   0.4615385   0.6288738   0.0000000        77    1
   0.4615385   0.7194742   0.0000000        78    1
   0.4615385   0.8100747   0.0000000        79    1
   0.4615385  -0.2771308   0.0000000        80    1
   0.4615385  -0.1865304   0.0000000        81    1
   0.4615385  -0.0959299   0.0000000        82    1
   0.4615385  -0.0053294   0.0000000        83    1
   0.4615385   0.0852710   0.0000000        84    1
   0.4615385   0.1758715   0.0000000        85    1

     Parallelization info
     --------------------
     sticks:   dense  smooth     PW     G-vecs:    dense   smooth      PW
     Min          15      15      4                 2299     2299     352
     Max          16      16      5                 2332     2332     387
     Sum        1305    1305    379               194215   194215   30887

     Using Slab Decomposition



     bravais-lattice index     =            0
     lattice parameter (alat)  =       8.3085  a.u.
     unit-cell volume          =    2454.7283 (a.u.)^3
     number of atoms/cell      =            5
     number of atomic types    =            2
     number of electrons       =        78.00
     number of Kohn-Sham states=          100
     kinetic-energy cutoff     =      70.0000  Ry
     charge density cutoff     =     280.0000  Ry
     cutoff for Fock operator  =     280.0000  Ry
     scf convergence threshold =      1.0E-07
     mixing beta               =       0.7000
     number of iterations used =            8  plain     mixing
     Exchange-correlation= GAUP
                           (   1   4  20   4   0   0   0)
     EXX-fraction              =        0.24

     celldm(1)=   8.308546  celldm(2)=   0.000000  celldm(3)=   0.000000
     celldm(4)=   0.000000  celldm(5)=   0.000000  celldm(6)=   0.000000

     crystal axes: (cart. coord. in units of alat)
               a(1) = (   1.000000   0.000000   0.000000 )  
               a(2) = (  -0.490196   0.849036   0.000000 )  
               a(3) = (   0.000000   0.000000   5.040830 )  

     reciprocal axes: (cart. coord. in units 2 pi/alat)
               b(1) = (  1.000000  0.577356 -0.000000 )  
               b(2) = (  0.000000  1.177806  0.000000 )  
               b(3) = (  0.000000 -0.000000  0.198380 )  


     PseudoPot. # 1 for Sb read from file:
     /zfs-home/202401017n/pseudos/Sb_ONCV_PBE-1.2.upf
     MD5 check sum: 0417cd6c0fe8ce4611e2b23135f1abd9
     Pseudo is Norm-conserving, Zval = 15.0
     Generated using ONCVPSP code by D. R. Hamann
     Using radial grid of  602 points,  6 beta functions with: 
                l(1) =   0
                l(2) =   0
                l(3) =   1
                l(4) =   1
                l(5) =   2
                l(6) =   2

     PseudoPot. # 2 for Te read from file:
     /zfs-home/202401017n/pseudos/Te_ONCV_PBE-1.2.upf
     MD5 check sum: dd4de4dac1e38587f63aaf3700bb29d3
     Pseudo is Norm-conserving, Zval = 16.0
     Generated using ONCVPSP code by D. R. Hamann
     Using radial grid of  602 points,  6 beta functions with: 
                l(1) =   0
                l(2) =   0
                l(3) =   1
                l(4) =   1
                l(5) =   2
                l(6) =   2

     atomic species   valence    mass     pseudopotential
     Sb               15.00   121.76000     Sb( 1.00)
     Te               16.00   127.60000     Te( 1.00)

     No symmetry found


                                    s                        frac. trans.

      isym =  1     identity                                     

 cryst.   s( 1) = (     1          0          0      )
                  (     0          1          0      )
                  (     0          0          1      )

 cart.    s( 1) = (  1.0000000  0.0000000  0.0000000 )
                  (  0.0000000  1.0000000  0.0000000 )
                  (  0.0000000  0.0000000  1.0000000 )


   Cartesian axes

     site n.     atom                  positions (alat units)
         1        Sb     tau(   1) = (   0.5829733   0.4189608   2.9724649  )
         2        Te     tau(   2) = (   0.5752175   0.4057666   1.6850437  )
         3        Sb     tau(   3) = (   0.0736071   0.1257310   2.0683360  )
         4        Te     tau(   4) = (   0.0811854   0.1390911   3.3558017  )
         5        Te     tau(   5) = (   0.0831178   0.6970014   2.5203330  )

     -------------------------------------------------
     Parameters for Dispersion (Grimme-D2) Correction:
     -------------------------------------------------
       atom      VdW radius       C_6     

        Sb         3.555       1333.532
        Te         3.575       1101.101

   Crystallographic axes

     site n.     atom                  positions (cryst. coord.)
         1        Sb     tau(   1) = (  0.8248627  0.4934545  0.5896776  )
         2        Te     tau(   2) = (  0.8094892  0.4779143  0.3342790  )
         3        Sb     tau(   3) = (  0.1461986  0.1480867  0.4103165  )
         4        Te     tau(   4) = (  0.1614904  0.1638223  0.6657240  )
         5        Te     tau(   5) = (  0.4855356  0.8209324  0.4999837  )

     number of k points=    85
                       cart. coord. in units 2pi/alat
        k(    1) = (   0.0000000   0.0000000   0.0000000), wk =   0.0118343
        k(    2) = (   0.0000000   0.0906005   0.0000000), wk =   0.0236686
        k(    3) = (   0.0000000   0.1812009   0.0000000), wk =   0.0236686
        k(    4) = (   0.0000000   0.2718014   0.0000000), wk =   0.0236686
        k(    5) = (   0.0000000   0.3624018   0.0000000), wk =   0.0236686
        k(    6) = (   0.0000000   0.4530023   0.0000000), wk =   0.0236686
        k(    7) = (   0.0000000   0.5436027   0.0000000), wk =   0.0236686
        k(    8) = (   0.0769231   0.0444120   0.0000000), wk =   0.0236686
        k(    9) = (   0.0769231   0.1350124   0.0000000), wk =   0.0236686
        k(   10) = (   0.0769231   0.2256129   0.0000000), wk =   0.0236686
        k(   11) = (   0.0769231   0.3162134   0.0000000), wk =   0.0236686
        k(   12) = (   0.0769231   0.4068138   0.0000000), wk =   0.0236686
        k(   13) = (   0.0769231   0.4974143   0.0000000), wk =   0.0236686
        k(   14) = (   0.0769231   0.5880147   0.0000000), wk =   0.0236686
        k(   15) = (   0.0769231  -0.4991908   0.0000000), wk =   0.0236686
        k(   16) = (   0.0769231  -0.4085903   0.0000000), wk =   0.0236686
        k(   17) = (   0.0769231  -0.3179898   0.0000000), wk =   0.0236686
        k(   18) = (   0.0769231  -0.2273894   0.0000000), wk =   0.0236686
        k(   19) = (   0.0769231  -0.1367889   0.0000000), wk =   0.0236686
        k(   20) = (   0.0769231  -0.0461885   0.0000000), wk =   0.0236686
        k(   21) = (   0.1538462   0.0888240   0.0000000), wk =   0.0236686
        k(   22) = (   0.1538462   0.1794244   0.0000000), wk =   0.0236686
        k(   23) = (   0.1538462   0.2700249   0.0000000), wk =   0.0236686
        k(   24) = (   0.1538462   0.3606253   0.0000000), wk =   0.0236686
        k(   25) = (   0.1538462   0.4512258   0.0000000), wk =   0.0236686
        k(   26) = (   0.1538462   0.5418263   0.0000000), wk =   0.0236686
        k(   27) = (   0.1538462   0.6324267   0.0000000), wk =   0.0236686
        k(   28) = (   0.1538462  -0.4547788   0.0000000), wk =   0.0236686
        k(   29) = (   0.1538462  -0.3641783   0.0000000), wk =   0.0236686
        k(   30) = (   0.1538462  -0.2735779   0.0000000), wk =   0.0236686
        k(   31) = (   0.1538462  -0.1829774   0.0000000), wk =   0.0236686
        k(   32) = (   0.1538462  -0.0923769   0.0000000), wk =   0.0236686
        k(   33) = (   0.1538462  -0.0017765   0.0000000), wk =   0.0236686
        k(   34) = (   0.2307692   0.1332360   0.0000000), wk =   0.0236686
        k(   35) = (   0.2307692   0.2238364   0.0000000), wk =   0.0236686
        k(   36) = (   0.2307692   0.3144369   0.0000000), wk =   0.0236686
        k(   37) = (   0.2307692   0.4050373   0.0000000), wk =   0.0236686
        k(   38) = (   0.2307692   0.4956378   0.0000000), wk =   0.0236686
        k(   39) = (   0.2307692   0.5862383   0.0000000), wk =   0.0236686
        k(   40) = (   0.2307692   0.6768387   0.0000000), wk =   0.0236686
        k(   41) = (   0.2307692  -0.4103668   0.0000000), wk =   0.0236686
        k(   42) = (   0.2307692  -0.3197663   0.0000000), wk =   0.0236686
        k(   43) = (   0.2307692  -0.2291659   0.0000000), wk =   0.0236686
        k(   44) = (   0.2307692  -0.1385654   0.0000000), wk =   0.0236686
        k(   45) = (   0.2307692  -0.0479649   0.0000000), wk =   0.0236686
        k(   46) = (   0.2307692   0.0426355   0.0000000), wk =   0.0236686
        k(   47) = (   0.3076923   0.1776480   0.0000000), wk =   0.0236686
        k(   48) = (   0.3076923   0.2682484   0.0000000), wk =   0.0236686
        k(   49) = (   0.3076923   0.3588489   0.0000000), wk =   0.0236686
        k(   50) = (   0.3076923   0.4494493   0.0000000), wk =   0.0236686
        k(   51) = (   0.3076923   0.5400498   0.0000000), wk =   0.0236686
        k(   52) = (   0.3076923   0.6306502   0.0000000), wk =   0.0236686
        k(   53) = (   0.3076923   0.7212507   0.0000000), wk =   0.0236686
        k(   54) = (   0.3076923  -0.3659548   0.0000000), wk =   0.0236686
        k(   55) = (   0.3076923  -0.2753543   0.0000000), wk =   0.0236686
        k(   56) = (   0.3076923  -0.1847539   0.0000000), wk =   0.0236686
        k(   57) = (   0.3076923  -0.0941534   0.0000000), wk =   0.0236686
        k(   58) = (   0.3076923  -0.0035530   0.0000000), wk =   0.0236686
        k(   59) = (   0.3076923   0.0870475   0.0000000), wk =   0.0236686
        k(   60) = (   0.3846154   0.2220599   0.0000000), wk =   0.0236686
        k(   61) = (   0.3846154   0.3126604   0.0000000), wk =   0.0236686
        k(   62) = (   0.3846154   0.4032609   0.0000000), wk =   0.0236686
        k(   63) = (   0.3846154   0.4938613   0.0000000), wk =   0.0236686
        k(   64) = (   0.3846154   0.5844618   0.0000000), wk =   0.0236686
        k(   65) = (   0.3846154   0.6750622   0.0000000), wk =   0.0236686
        k(   66) = (   0.3846154   0.7656627   0.0000000), wk =   0.0236686
        k(   67) = (   0.3846154  -0.3215428   0.0000000), wk =   0.0236686
        k(   68) = (   0.3846154  -0.2309423   0.0000000), wk =   0.0236686
        k(   69) = (   0.3846154  -0.1403419   0.0000000), wk =   0.0236686
        k(   70) = (   0.3846154  -0.0497414   0.0000000), wk =   0.0236686
        k(   71) = (   0.3846154   0.0408590   0.0000000), wk =   0.0236686
        k(   72) = (   0.3846154   0.1314595   0.0000000), wk =   0.0236686
        k(   73) = (   0.4615385   0.2664719   0.0000000), wk =   0.0236686
        k(   74) = (   0.4615385   0.3570724   0.0000000), wk =   0.0236686
        k(   75) = (   0.4615385   0.4476728   0.0000000), wk =   0.0236686
        k(   76) = (   0.4615385   0.5382733   0.0000000), wk =   0.0236686
        k(   77) = (   0.4615385   0.6288738   0.0000000), wk =   0.0236686
        k(   78) = (   0.4615385   0.7194742   0.0000000), wk =   0.0236686
        k(   79) = (   0.4615385   0.8100747   0.0000000), wk =   0.0236686
        k(   80) = (   0.4615385  -0.2771308   0.0000000), wk =   0.0236686
        k(   81) = (   0.4615385  -0.1865304   0.0000000), wk =   0.0236686
        k(   82) = (   0.4615385  -0.0959299   0.0000000), wk =   0.0236686
        k(   83) = (   0.4615385  -0.0053294   0.0000000), wk =   0.0236686
        k(   84) = (   0.4615385   0.0852710   0.0000000), wk =   0.0236686
        k(   85) = (   0.4615385   0.1758715   0.0000000), wk =   0.0236686

                       cryst. coord.
        k(    1) = (   0.0000000   0.0000000   0.0000000), wk =   0.0118343
        k(    2) = (   0.0000000   0.0769231   0.0000000), wk =   0.0236686
        k(    3) = (   0.0000000   0.1538462   0.0000000), wk =   0.0236686
        k(    4) = (   0.0000000   0.2307692   0.0000000), wk =   0.0236686
        k(    5) = (   0.0000000   0.3076923   0.0000000), wk =   0.0236686
        k(    6) = (   0.0000000   0.3846154   0.0000000), wk =   0.0236686
        k(    7) = (   0.0000000   0.4615385   0.0000000), wk =   0.0236686
        k(    8) = (   0.0769231   0.0000000   0.0000000), wk =   0.0236686
        k(    9) = (   0.0769231   0.0769231   0.0000000), wk =   0.0236686
        k(   10) = (   0.0769231   0.1538462   0.0000000), wk =   0.0236686
        k(   11) = (   0.0769231   0.2307692   0.0000000), wk =   0.0236686
        k(   12) = (   0.0769231   0.3076923   0.0000000), wk =   0.0236686
        k(   13) = (   0.0769231   0.3846154   0.0000000), wk =   0.0236686
        k(   14) = (   0.0769231   0.4615385   0.0000000), wk =   0.0236686
        k(   15) = (   0.0769231  -0.4615385   0.0000000), wk =   0.0236686
        k(   16) = (   0.0769231  -0.3846154   0.0000000), wk =   0.0236686
        k(   17) = (   0.0769231  -0.3076923   0.0000000), wk =   0.0236686
        k(   18) = (   0.0769231  -0.2307692   0.0000000), wk =   0.0236686
        k(   19) = (   0.0769231  -0.1538462   0.0000000), wk =   0.0236686
        k(   20) = (   0.0769231  -0.0769231   0.0000000), wk =   0.0236686
        k(   21) = (   0.1538462   0.0000000   0.0000000), wk =   0.0236686
        k(   22) = (   0.1538462   0.0769231   0.0000000), wk =   0.0236686
        k(   23) = (   0.1538462   0.1538462   0.0000000), wk =   0.0236686
        k(   24) = (   0.1538462   0.2307692   0.0000000), wk =   0.0236686
        k(   25) = (   0.1538462   0.3076923   0.0000000), wk =   0.0236686
        k(   26) = (   0.1538462   0.3846154   0.0000000), wk =   0.0236686
        k(   27) = (   0.1538462   0.4615385   0.0000000), wk =   0.0236686
        k(   28) = (   0.1538462  -0.4615385   0.0000000), wk =   0.0236686
        k(   29) = (   0.1538462  -0.3846154   0.0000000), wk =   0.0236686
        k(   30) = (   0.1538462  -0.3076923   0.0000000), wk =   0.0236686
        k(   31) = (   0.1538462  -0.2307692   0.0000000), wk =   0.0236686
        k(   32) = (   0.1538462  -0.1538462   0.0000000), wk =   0.0236686
        k(   33) = (   0.1538462  -0.0769231   0.0000000), wk =   0.0236686
        k(   34) = (   0.2307692   0.0000000   0.0000000), wk =   0.0236686
        k(   35) = (   0.2307692   0.0769231   0.0000000), wk =   0.0236686
        k(   36) = (   0.2307692   0.1538462   0.0000000), wk =   0.0236686
        k(   37) = (   0.2307692   0.2307692   0.0000000), wk =   0.0236686
        k(   38) = (   0.2307692   0.3076923   0.0000000), wk =   0.0236686
        k(   39) = (   0.2307692   0.3846154   0.0000000), wk =   0.0236686
        k(   40) = (   0.2307692   0.4615385   0.0000000), wk =   0.0236686
        k(   41) = (   0.2307692  -0.4615385   0.0000000), wk =   0.0236686
        k(   42) = (   0.2307692  -0.3846154   0.0000000), wk =   0.0236686
        k(   43) = (   0.2307692  -0.3076923   0.0000000), wk =   0.0236686
        k(   44) = (   0.2307692  -0.2307692   0.0000000), wk =   0.0236686
        k(   45) = (   0.2307692  -0.1538462   0.0000000), wk =   0.0236686
        k(   46) = (   0.2307692  -0.0769231   0.0000000), wk =   0.0236686
        k(   47) = (   0.3076923   0.0000000   0.0000000), wk =   0.0236686
        k(   48) = (   0.3076923   0.0769231   0.0000000), wk =   0.0236686
        k(   49) = (   0.3076923   0.1538462   0.0000000), wk =   0.0236686
        k(   50) = (   0.3076923   0.2307692   0.0000000), wk =   0.0236686
        k(   51) = (   0.3076923   0.3076923   0.0000000), wk =   0.0236686
        k(   52) = (   0.3076923   0.3846154   0.0000000), wk =   0.0236686
        k(   53) = (   0.3076923   0.4615385   0.0000000), wk =   0.0236686
        k(   54) = (   0.3076923  -0.4615385   0.0000000), wk =   0.0236686
        k(   55) = (   0.3076923  -0.3846154   0.0000000), wk =   0.0236686
        k(   56) = (   0.3076923  -0.3076923   0.0000000), wk =   0.0236686
        k(   57) = (   0.3076923  -0.2307692   0.0000000), wk =   0.0236686
        k(   58) = (   0.3076923  -0.1538462   0.0000000), wk =   0.0236686
        k(   59) = (   0.3076923  -0.0769231   0.0000000), wk =   0.0236686
        k(   60) = (   0.3846154   0.0000000   0.0000000), wk =   0.0236686
        k(   61) = (   0.3846154   0.0769231   0.0000000), wk =   0.0236686
        k(   62) = (   0.3846154   0.1538462   0.0000000), wk =   0.0236686
        k(   63) = (   0.3846154   0.2307692   0.0000000), wk =   0.0236686
        k(   64) = (   0.3846154   0.3076923   0.0000000), wk =   0.0236686
        k(   65) = (   0.3846154   0.3846154   0.0000000), wk =   0.0236686
        k(   66) = (   0.3846154   0.4615385   0.0000000), wk =   0.0236686
        k(   67) = (   0.3846154  -0.4615385   0.0000000), wk =   0.0236686
        k(   68) = (   0.3846154  -0.3846154   0.0000000), wk =   0.0236686
        k(   69) = (   0.3846154  -0.3076923   0.0000000), wk =   0.0236686
        k(   70) = (   0.3846154  -0.2307692   0.0000000), wk =   0.0236686
        k(   71) = (   0.3846154  -0.1538462   0.0000000), wk =   0.0236686
        k(   72) = (   0.3846154  -0.0769231   0.0000000), wk =   0.0236686
        k(   73) = (   0.4615385   0.0000000   0.0000000), wk =   0.0236686
        k(   74) = (   0.4615385   0.0769231   0.0000000), wk =   0.0236686
        k(   75) = (   0.4615385   0.1538462   0.0000000), wk =   0.0236686
        k(   76) = (   0.4615385   0.2307692   0.0000000), wk =   0.0236686
        k(   77) = (   0.4615385   0.3076923   0.0000000), wk =   0.0236686
        k(   78) = (   0.4615385   0.3846154   0.0000000), wk =   0.0236686
        k(   79) = (   0.4615385   0.4615385   0.0000000), wk =   0.0236686
        k(   80) = (   0.4615385  -0.4615385   0.0000000), wk =   0.0236686
        k(   81) = (   0.4615385  -0.3846154   0.0000000), wk =   0.0236686
        k(   82) = (   0.4615385  -0.3076923   0.0000000), wk =   0.0236686
        k(   83) = (   0.4615385  -0.2307692   0.0000000), wk =   0.0236686
        k(   84) = (   0.4615385  -0.1538462   0.0000000), wk =   0.0236686
        k(   85) = (   0.4615385  -0.0769231   0.0000000), wk =   0.0236686

     Dense  grid:   194215 G-vectors     FFT dimensions: (  45,  45, 225)

     Dynamical RAM for                 wfc:       0.44 MB

     Dynamical RAM for     wfc (w. buffer):      19.40 MB

     Dynamical RAM for                 EXX:     630.69 MB

     Dynamical RAM for           str. fact:       0.07 MB

     Dynamical RAM for           local pot:       0.00 MB

     Dynamical RAM for          nlocal pot:       0.40 MB

     Dynamical RAM for                qrad:       2.85 MB

     Dynamical RAM for          rho,v,vnew:       0.25 MB

     Dynamical RAM for               rhoin:       0.08 MB

     Dynamical RAM for            rho*nmix:       0.57 MB

     Dynamical RAM for           G-vectors:       0.15 MB

     Dynamical RAM for          h,s,v(r/c):       1.83 MB

     Dynamical RAM for          <psi|beta>:       0.14 MB

     Dynamical RAM for                 psi:       0.88 MB

     Dynamical RAM for                hpsi:       0.88 MB

     Dynamical RAM for      wfcinit/wfcrot:       1.11 MB

     Estimated static dynamical RAM per process >     654.23 MB

     Estimated max dynamical RAM per process >     658.53 MB

     Estimated total dynamical RAM >     107.99 GB
     EXX: ACE will be initialized later

     Initial potential from superposition of free atoms

     starting charge      77.7638, renormalised to      78.0000

     negative rho (up, down):  6.521E-04 0.000E+00
     Starting wfcs are random

     total cpu time spent up to now is        3.4 secs

     Self-consistent Calculation

     iteration #  1     ecut=    70.00 Ry     beta= 0.70
     Davidson diagonalization with overlap

---- Real-time Memory Report at c_bands before calling an iterative solver
           210 MiB given to the printing process from OS
             0 MiB allocation reported by mallinfo(arena+hblkhd)
        104972 MiB available memory on the node where the printing process lives
------------------
     ethr =  1.00E-02,  avg # of iterations =  8.9

     Threshold (ethr) on eigenvalues was too large:
     Diagonalizing with lowered threshold

     Davidson diagonalization with overlap

---- Real-time Memory Report at c_bands before calling an iterative solver
           215 MiB given to the printing process from OS
             0 MiB allocation reported by mallinfo(arena+hblkhd)
        104886 MiB available memory on the node where the printing process lives
------------------
     ethr =  1.22E-04,  avg # of iterations = 10.3

     negative rho (up, down):  5.418E-05 0.000E+00

     total cpu time spent up to now is       54.2 secs

     total energy              =    -806.58377029 Ry
     estimated scf accuracy    <       0.08369863 Ry

     iteration #  2     ecut=    70.00 Ry     beta= 0.70
     Davidson diagonalization with overlap

---- Real-time Memory Report at c_bands before calling an iterative solver
           215 MiB given to the printing process from OS
             0 MiB allocation reported by mallinfo(arena+hblkhd)
        104886 MiB available memory on the node where the printing process lives
------------------
     ethr =  1.07E-04,  avg # of iterations = 10.2

     negative rho (up, down):  4.382E-05 0.000E+00

     total cpu time spent up to now is       73.5 secs

     total energy              =    -806.52299099 Ry
     estimated scf accuracy    <       0.53863438 Ry

     iteration #  3     ecut=    70.00 Ry     beta= 0.70
     Davidson diagonalization with overlap

---- Real-time Memory Report at c_bands before calling an iterative solver
           216 MiB given to the printing process from OS
             0 MiB allocation reported by mallinfo(arena+hblkhd)
        104875 MiB available memory on the node where the printing process lives
------------------
     c_bands:  1 eigenvalues not converged
     ethr =  1.07E-04,  avg # of iterations = 10.7

     negative rho (up, down):  2.675E-05 0.000E+00

     total cpu time spent up to now is       93.2 secs

     total energy              =    -806.59190965 Ry
     estimated scf accuracy    <       0.26920024 Ry

     iteration #  4     ecut=    70.00 Ry     beta= 0.70
     Davidson diagonalization with overlap

---- Real-time Memory Report at c_bands before calling an iterative solver
           216 MiB given to the printing process from OS
             0 MiB allocation reported by mallinfo(arena+hblkhd)
        104874 MiB available memory on the node where the printing process lives
------------------
     ethr =  1.07E-04,  avg # of iterations =  6.0

     negative rho (up, down):  3.677E-06 0.000E+00

     total cpu time spent up to now is      107.7 secs

     total energy              =    -806.61970471 Ry
     estimated scf accuracy    <       0.00253287 Ry

     iteration #  5     ecut=    70.00 Ry     beta= 0.70
     Davidson diagonalization with overlap

---- Real-time Memory Report at c_bands before calling an iterative solver
           216 MiB given to the printing process from OS
             0 MiB allocation reported by mallinfo(arena+hblkhd)
        104871 MiB available memory on the node where the printing process lives
------------------
     c_bands:  1 eigenvalues not converged
     c_bands:  1 eigenvalues not converged
     c_bands:  1 eigenvalues not converged
     c_bands:  1 eigenvalues not converged
     c_bands:  1 eigenvalues not converged
     ethr =  3.25E-06,  avg # of iterations = 10.4

     negative rho (up, down):  2.724E-06 0.000E+00

     total cpu time spent up to now is      127.0 secs

     total energy              =    -806.61897543 Ry
     estimated scf accuracy    <       0.01521117 Ry

     iteration #  6     ecut=    70.00 Ry     beta= 0.70
     Davidson diagonalization with overlap

---- Real-time Memory Report at c_bands before calling an iterative solver
           216 MiB given to the printing process from OS
             0 MiB allocation reported by mallinfo(arena+hblkhd)
        104870 MiB available memory on the node where the printing process lives
------------------
     ethr =  3.25E-06,  avg # of iterations =  8.9

     negative rho (up, down):  1.124E-08 0.000E+00

     total cpu time spent up to now is      143.9 secs

     total energy              =    -806.62012704 Ry
     estimated scf accuracy    <       0.00111797 Ry

     iteration #  7     ecut=    70.00 Ry     beta= 0.70
     Davidson diagonalization with overlap

---- Real-time Memory Report at c_bands before calling an iterative solver
           216 MiB given to the printing process from OS
             0 MiB allocation reported by mallinfo(arena+hblkhd)
        104866 MiB available memory on the node where the printing process lives
------------------
     ethr =  1.43E-06,  avg # of iterations =  5.8

     total cpu time spent up to now is      156.2 secs

     total energy              =    -806.62019427 Ry
     estimated scf accuracy    <       0.00000817 Ry

     iteration #  8     ecut=    70.00 Ry     beta= 0.70
     Davidson diagonalization with overlap

---- Real-time Memory Report at c_bands before calling an iterative solver
           216 MiB given to the printing process from OS
             0 MiB allocation reported by mallinfo(arena+hblkhd)
        104865 MiB available memory on the node where the printing process lives
------------------
     c_bands:  1 eigenvalues not converged
     c_bands:  1 eigenvalues not converged
     c_bands:  1 eigenvalues not converged
     ethr =  1.05E-08,  avg # of iterations = 13.9

     total cpu time spent up to now is      178.0 secs

     total energy              =    -806.62019575 Ry
     estimated scf accuracy    <       0.00000111 Ry

     iteration #  9     ecut=    70.00 Ry     beta= 0.70
     Davidson diagonalization with overlap

---- Real-time Memory Report at c_bands before calling an iterative solver
           216 MiB given to the printing process from OS
             0 MiB allocation reported by mallinfo(arena+hblkhd)
        104862 MiB available memory on the node where the printing process lives
------------------
     c_bands:  1 eigenvalues not converged
     ethr =  1.43E-09,  avg # of iterations =  7.5

     total cpu time spent up to now is      195.4 secs

     total energy              =    -806.62019604 Ry
     estimated scf accuracy    <       0.00000085 Ry

     iteration # 10     ecut=    70.00 Ry     beta= 0.70
     Davidson diagonalization with overlap

---- Real-time Memory Report at c_bands before calling an iterative solver
           216 MiB given to the printing process from OS
             0 MiB allocation reported by mallinfo(arena+hblkhd)
        104855 MiB available memory on the node where the printing process lives
------------------
     ethr =  1.09E-09,  avg # of iterations =  4.7

     total cpu time spent up to now is      207.7 secs

     End of self-consistent calculation

          k = 0.0000 0.0000 0.0000 ( 24159 PWs)   bands (ev):

   -34.7006 -34.7003 -34.7001 -34.6999 -34.6708 -34.6702 -34.6671 -34.6667
   -34.6577 -34.6572 -34.5926 -34.5848 -34.5779 -34.5458 -34.5454 -27.4663
   -27.4661 -27.4660 -27.4657 -27.4583 -27.4579 -27.4549 -27.4546 -27.4536
   -27.4532 -10.6634 -10.1303  -9.0495  -6.2998  -4.9113  -0.1728   0.1092
     0.2791   0.3384   0.4643   0.7836   0.9473   1.0455   1.2794   2.2868
     2.7722   2.8451   3.7331   3.8670   3.9122   6.2146   6.4070   6.9824
     7.5308   7.6162   7.8184   8.3979   8.6214   8.7707   8.8470   9.1431
     9.5927   9.6952  10.0266  10.1285  10.5297  11.0526  11.3396  11.4670
    11.5437  11.6793  12.8139  12.8712  13.8713  14.1341  14.1380  14.2495
    14.4038  15.0818  15.7466  16.0145  16.0472  16.0891  16.2504  16.3546
    16.6920  17.0875  17.1063  17.1434  17.3537  17.3575  17.4538  17.4841
    17.5519  17.6457  17.7071  17.8246  17.8925  18.1615  19.0108  19.0804
    19.1468  19.2592  19.3155  19.4147

     occupation numbers 
     1.0000   1.0000   1.0000   1.0000   1.0000   1.0000   1.0000   1.0000
     1.0000   1.0000   1.0000   1.0000   1.0000   1.0000   1.0000   1.0000
     1.0000   1.0000   1.0000   1.0000   1.0000   1.0000   1.0000   1.0000
     1.0000   1.0000   1.0000   1.0000   1.0000   1.0000   1.0000   1.0000
     1.0000   1.0000   1.0000   1.0000   1.0000   1.0000   1.0000   0.0000
     0.0000   0.0000   0.0000   0.0000   0.0000   0.0000   0.0000   0.0000
     0.0000   0.0000   0.0000   0.0000   0.0000   0.0000   0.0000   0.0000
     0.0000   0.0000   0.0000   0.0000   0.0000   0.0000   0.0000   0.0000
     0.0000   0.0000   0.0000   0.0000   0.0000   0.0000   0.0000   0.0000
     0.0000   0.0000   0.0000   0.0000   0.0000   0.0000   0.0000   0.0000
     0.0000   0.0000   0.0000   0.0000   0.0000   0.0000   0.0000   0.0000
     0.0000   0.0000   0.0000   0.0000   0.0000   0.0000   0.0000   0.0000
     0.0000   0.0000   0.0000   0.0000

          k = 0.0000 0.0906 0.0000 ( 24176 PWs)   bands (ev):

   -34.7006 -34.7002 -34.7001 -34.6998 -34.6708 -34.6702 -34.6671 -34.6667
   -34.6577 -34.6572 -34.5926 -34.5848 -34.5780 -34.5457 -34.5454 -27.4663
   -27.4660 -27.4659 -27.4655 -27.4582 -27.4578 -27.4549 -27.4546 -27.4538
   -27.4534 -10.6116 -10.0827  -9.0202  -6.3061  -4.9950  -0.3998  -0.0862
    -0.0678   0.1145   0.2765   0.5235   1.0135   1.1876   1.6186   2.4233
     2.8631   2.9685   3.6958   3.9524   4.2308   6.3039   6.4296   6.9722
     7.4434   7.6336   7.6705   8.4708   8.6125   8.7596   8.8542   9.2206
     9.7019   9.8054  10.2834  10.4162  10.8052  10.8754  10.9921  11.4651
    11.9675  12.2036  12.8370  13.0326  13.4936  13.5148  14.2707  14.5205
    14.7434  15.0541  15.4187  15.5083  15.9523  16.1009  16.2311  16.3148
    16.4341  16.6602  16.6685  16.8011  16.9374  16.9738  17.3760  17.8543
    18.0342  18.0790  18.2021  18.3276  18.3348  18.4132  18.5270  18.7245
    18.8318  18.9163  19.2356  19.5491

     occupation numbers 
     1.0000   1.0000   1.0000   1.0000   1.0000   1.0000   1.0000   1.0000
     1.0000   1.0000   1.0000   1.0000   1.0000   1.0000   1.0000   1.0000
     1.0000   1.0000   1.0000   1.0000   1.0000   1.0000   1.0000   1.0000
     1.0000   1.0000   1.0000   1.0000   1.0000   1.0000   1.0000   1.0000
     1.0000   1.0000   1.0000   1.0000   1.0000   1.0000   1.0000   0.0000
     0.0000   0.0000   0.0000   0.0000   0.0000   0.0000   0.0000   0.0000
     0.0000   0.0000   0.0000   0.0000   0.0000   0.0000   0.0000   0.0000
     0.0000   0.0000   0.0000   0.0000   0.0000   0.0000   0.0000   0.0000
     0.0000   0.0000   0.0000   0.0000   0.0000   0.0000   0.0000   0.0000
     0.0000   0.0000   0.0000   0.0000   0.0000   0.0000   0.0000   0.0000
     0.0000   0.0000   0.0000   0.0000   0.0000   0.0000   0.0000   0.0000
     0.0000   0.0000   0.0000   0.0000   0.0000   0.0000   0.0000   0.0000
     0.0000   0.0000   0.0000   0.0000

          k = 0.0000 0.1812 0.0000 ( 24196 PWs)   bands (ev):

   -34.7006 -34.7001 -34.7000 -34.6996 -34.6708 -34.6702 -34.6672 -34.6668
   -34.6576 -34.6571 -34.5925 -34.5849 -34.5780 -34.5456 -34.5453 -27.4664
   -27.4661 -27.4652 -27.4649 -27.4579 -27.4574 -27.4551 -27.4546 -27.4542
   -27.4538 -10.4581  -9.9427  -8.9379  -6.3387  -5.2440  -1.1454  -0.4697
    -0.4317  -0.3350   0.0474   0.1844   1.0532   1.2489   1.6073   2.6930
     3.0859   3.3714   3.9329   4.2075   4.6988   6.3576   6.5382   6.8286
     7.3581   7.7147   7.9698   8.3651   8.6522   8.7928   9.0439   9.5514
     9.6815  10.0107  10.5293  10.8593  11.0971  11.1882  11.6293  11.8449
    12.2709  12.3415  12.8360  13.2885  13.4541  13.5235  13.9497  14.3208
    14.5925  14.8048  14.8741  15.2435  15.6877  15.7666  15.8353  15.9485
    16.2041  16.2974  16.5289  16.6621  16.8826  17.1655  17.5329  17.7970
    17.8671  18.0246  18.1328  18.2029  18.4178  18.9861  19.1484  19.3055
    19.3971  19.5162  19.6981  19.8996

     occupation numbers 
     1.0000   1.0000   1.0000   1.0000   1.0000   1.0000   1.0000   1.0000
     1.0000   1.0000   1.0000   1.0000   1.0000   1.0000   1.0000   1.0000
     1.0000   1.0000   1.0000   1.0000   1.0000   1.0000   1.0000   1.0000
     1.0000   1.0000   1.0000   1.0000   1.0000   1.0000   1.0000   1.0000
     1.0000   1.0000   1.0000   1.0000   1.0000   1.0000   1.0000   0.0000
     0.0000   0.0000   0.0000   0.0000   0.0000   0.0000   0.0000   0.0000
     0.0000   0.0000   0.0000   0.0000   0.0000   0.0000   0.0000   0.0000
     0.0000   0.0000   0.0000   0.0000   0.0000   0.0000   0.0000   0.0000
     0.0000   0.0000   0.0000   0.0000   0.0000   0.0000   0.0000   0.0000
     0.0000   0.0000   0.0000   0.0000   0.0000   0.0000   0.0000   0.0000
     0.0000   0.0000   0.0000   0.0000   0.0000   0.0000   0.0000   0.0000
     0.0000   0.0000   0.0000   0.0000   0.0000   0.0000   0.0000   0.0000
     0.0000   0.0000   0.0000   0.0000

          k = 0.0000 0.2718 0.0000 ( 24250 PWs)   bands (ev):

   -34.7006 -34.7001 -34.6997 -34.6993 -34.6708 -34.6703 -34.6673 -34.6668
   -34.6574 -34.6569 -34.5924 -34.5849 -34.5781 -34.5454 -34.5451 -27.4665
   -27.4662 -27.4643 -27.4640 -27.4574 -27.4570 -27.4553 -27.4551 -27.4545
   -27.4543 -10.2084  -9.7194  -8.8211  -6.4370  -5.6329  -1.8695  -1.0160
    -0.7867  -0.7077  -0.2279   0.1970   0.6650   1.0015   1.6727   2.7538
     3.2934   3.7463   4.3038   4.5277   5.1791   5.9882   6.7926   7.0474
     7.5777   7.9909   8.3235   8.4819   8.6931   8.9358   9.5266   9.8254
    10.0105  10.1667  10.5267  11.2650  11.6375  11.8129  12.0743  12.2119
    12.3091  12.5333  13.0478  13.2168  13.3288  13.6796  13.9063  14.1831
    14.3104  14.6015  14.8263  15.2356  15.3217  15.3828  15.5539  15.6698
    15.9186  16.2599  16.2939  16.7306  17.2129  17.2783  17.4981  17.4998
    17.5670  18.0447  18.1298  18.3326  18.4463  18.5472  18.7580  18.8906
    18.9801  19.5807  19.8014  19.8326

     occupation numbers 
     1.0000   1.0000   1.0000   1.0000   1.0000   1.0000   1.0000   1.0000
     1.0000   1.0000   1.0000   1.0000   1.0000   1.0000   1.0000   1.0000
     1.0000   1.0000   1.0000   1.0000   1.0000   1.0000   1.0000   1.0000
     1.0000   1.0000   1.0000   1.0000   1.0000   1.0000   1.0000   1.0000
     1.0000   1.0000   1.0000   1.0000   1.0000   1.0000   1.0000   0.0000
     0.0000   0.0000   0.0000   0.0000   0.0000   0.0000   0.0000   0.0000
     0.0000   0.0000   0.0000   0.0000   0.0000   0.0000   0.0000   0.0000
     0.0000   0.0000   0.0000   0.0000   0.0000   0.0000   0.0000   0.0000
     0.0000   0.0000   0.0000   0.0000   0.0000   0.0000   0.0000   0.0000
     0.0000   0.0000   0.0000   0.0000   0.0000   0.0000   0.0000   0.0000
     0.0000   0.0000   0.0000   0.0000   0.0000   0.0000   0.0000   0.0000
     0.0000   0.0000   0.0000   0.0000   0.0000   0.0000   0.0000   0.0000
     0.0000   0.0000   0.0000   0.0000

          k = 0.0000 0.3624 0.0000 ( 24287 PWs)   bands (ev):

   -34.7005 -34.7001 -34.6994 -34.6989 -34.6708 -34.6703 -34.6673 -34.6669
   -34.6572 -34.6567 -34.5922 -34.5849 -34.5782 -34.5454 -34.5448 -27.4667
   -27.4664 -27.4634 -27.4630 -27.4570 -27.4566 -27.4557 -27.4554 -27.4550
   -27.4545  -9.8744  -9.4334  -8.7067  -6.6509  -6.0824  -2.4336  -1.4841
    -1.0814  -0.9126  -0.4762  -0.0044   0.4545   0.9012   1.3880   2.8250
     3.4186   3.8154   4.5076   4.8298   5.6029   5.6784   7.0757   7.3557
     7.8535   8.3708   8.5652   9.0190   9.2459   9.3970   9.9107  10.0989
    10.2698  10.6774  10.6996  11.0955  11.7156  11.8893  12.1375  12.2611
    12.6952  12.7756  12.9069  13.1053  13.5814  14.0021  14.0878  14.4147
    14.6738  14.7349  14.8445  14.9005  15.2220  15.2988  15.4200  15.6032
    16.1234  16.1542  16.5492  16.6598  16.6868  16.8104  16.9484  17.0713
    17.0931  17.2387  17.4975  17.6446  18.1080  18.2472  18.3932  18.5824
    18.8874  19.4314  19.6901  19.9542

     occupation numbers 
     1.0000   1.0000   1.0000   1.0000   1.0000   1.0000   1.0000   1.0000
     1.0000   1.0000   1.0000   1.0000   1.0000   1.0000   1.0000   1.0000
     1.0000   1.0000   1.0000   1.0000   1.0000   1.0000   1.0000   1.0000
     1.0000   1.0000   1.0000   1.0000   1.0000   1.0000   1.0000   1.0000
     1.0000   1.0000   1.0000   1.0000   1.0000   1.0000   1.0000   0.0000
     0.0000   0.0000   0.0000   0.0000   0.0000   0.0000   0.0000   0.0000
     0.0000   0.0000   0.0000   0.0000   0.0000   0.0000   0.0000   0.0000
     0.0000   0.0000   0.0000   0.0000   0.0000   0.0000   0.0000   0.0000
     0.0000   0.0000   0.0000   0.0000   0.0000   0.0000   0.0000   0.0000
     0.0000   0.0000   0.0000   0.0000   0.0000   0.0000   0.0000   0.0000
     0.0000   0.0000   0.0000   0.0000   0.0000   0.0000   0.0000   0.0000
     0.0000   0.0000   0.0000   0.0000   0.0000   0.0000   0.0000   0.0000
     0.0000   0.0000   0.0000   0.0000

          k = 0.0000 0.4530 0.0000 ( 24287 PWs)   bands (ev):

   -34.7005 -34.7001 -34.6991 -34.6986 -34.6709 -34.6703 -34.6674 -34.6670
   -34.6571 -34.6566 -34.5921 -34.5850 -34.5783 -34.5454 -34.5445 -27.4669
   -27.4666 -27.4626 -27.4623 -27.4570 -27.4564 -27.4560 -27.4555 -27.4552
   -27.4545  -9.4809  -9.1295  -8.6612  -6.9742  -6.4734  -2.8156  -1.7176
    -1.2886  -1.1382  -0.6585  -0.2545   0.5152   0.8056   1.0657   2.8339
     3.4640   3.7073   4.6527   5.0438   5.3479   5.9172   7.0875   7.8645
     8.1914   8.9094   9.1453   9.4007   9.5975   9.9763  10.2519  10.4057
    10.6745  10.8773  11.0112  11.3462  11.4456  11.5039  11.9321  12.3728
    12.7628  13.1479  13.3732  13.4338  13.5619  13.7862  13.9137  14.1412
    14.6007  14.6486  14.6921  14.9978  15.0868  15.2738  15.4858  15.7119
    15.8067  16.0793  16.1435  16.3587  16.4636  16.5886  16.6476  16.7454
    17.0752  17.2760  17.3668  17.4173  17.6060  18.1223  18.6234  18.7974
    19.1348  19.1975  19.4156  19.7965

     occupation numbers 
     1.0000   1.0000   1.0000   1.0000   1.0000   1.0000   1.0000   1.0000
     1.0000   1.0000   1.0000   1.0000   1.0000   1.0000   1.0000   1.0000
     1.0000   1.0000   1.0000   1.0000   1.0000   1.0000   1.0000   1.0000
     1.0000   1.0000   1.0000   1.0000   1.0000   1.0000   1.0000   1.0000
     1.0000   1.0000   1.0000   1.0000   1.0000   1.0000   1.0000   0.0000
     0.0000   0.0000   0.0000   0.0000   0.0000   0.0000   0.0000   0.0000
     0.0000   0.0000   0.0000   0.0000   0.0000   0.0000   0.0000   0.0000
     0.0000   0.0000   0.0000   0.0000   0.0000   0.0000   0.0000   0.0000
     0.0000   0.0000   0.0000   0.0000   0.0000   0.0000   0.0000   0.0000
     0.0000   0.0000   0.0000   0.0000   0.0000   0.0000   0.0000   0.0000
     0.0000   0.0000   0.0000   0.0000   0.0000   0.0000   0.0000   0.0000
     0.0000   0.0000   0.0000   0.0000   0.0000   0.0000   0.0000   0.0000
     0.0000   0.0000   0.0000   0.0000

          k = 0.0000 0.5436 0.0000 ( 24293 PWs)   bands (ev):

   -34.7005 -34.7001 -34.6989 -34.6985 -34.6709 -34.6703 -34.6674 -34.6670
   -34.6570 -34.6565 -34.5921 -34.5850 -34.5783 -34.5453 -34.5443 -27.4670
   -27.4666 -27.4622 -27.4618 -27.4572 -27.4564 -27.4562 -27.4554 -27.4552
   -27.4545  -9.0810  -8.9056  -8.7760  -7.2420  -6.7100  -3.0142  -1.7178
    -1.4105  -1.3843  -0.7538  -0.3109   0.5266   0.7477   0.9045   2.7755
     3.4727   3.6795   4.6778   5.1469   5.2313   5.9313   7.1604   8.3870
     8.6030   8.9802   9.1384   9.5870   9.7203  10.2505  10.5625  10.7584
    11.0635  11.2191  11.3946  11.5097  11.7352  11.8906  12.0196  12.4359
    12.6534  12.7237  12.8522  12.9688  13.4849  13.8003  13.9185  14.1236
    14.3414  14.4308  14.5138  14.7452  14.8639  15.0982  15.2144  15.3624
    15.4150  15.5788  15.9908  16.4191  16.4788  16.7471  17.0461  17.1967
    17.5412  17.6474  17.7462  17.9264  18.0655  18.1636  18.5817  18.6427
    18.8302  19.2411  19.3938  19.5691

     occupation numbers 
     1.0000   1.0000   1.0000   1.0000   1.0000   1.0000   1.0000   1.0000
     1.0000   1.0000   1.0000   1.0000   1.0000   1.0000   1.0000   1.0000
     1.0000   1.0000   1.0000   1.0000   1.0000   1.0000   1.0000   1.0000
     1.0000   1.0000   1.0000   1.0000   1.0000   1.0000   1.0000   1.0000
     1.0000   1.0000   1.0000   1.0000   1.0000   1.0000   1.0000   0.0000
     0.0000   0.0000   0.0000   0.0000   0.0000   0.0000   0.0000   0.0000
     0.0000   0.0000   0.0000   0.0000   0.0000   0.0000   0.0000   0.0000
     0.0000   0.0000   0.0000   0.0000   0.0000   0.0000   0.0000   0.0000
     0.0000   0.0000   0.0000   0.0000   0.0000   0.0000   0.0000   0.0000
     0.0000   0.0000   0.0000   0.0000   0.0000   0.0000   0.0000   0.0000
     0.0000   0.0000   0.0000   0.0000   0.0000   0.0000   0.0000   0.0000
     0.0000   0.0000   0.0000   0.0000   0.0000   0.0000   0.0000   0.0000
     0.0000   0.0000   0.0000   0.0000

          k = 0.0769 0.0444 0.0000 ( 24182 PWs)   bands (ev):

   -34.7005 -34.7003 -34.7001 -34.6999 -34.6708 -34.6702 -34.6671 -34.6667
   -34.6577 -34.6572 -34.5926 -34.5849 -34.5779 -34.5458 -34.5454 -27.4661
   -27.4660 -27.4658 -27.4657 -27.4582 -27.4578 -27.4550 -27.4547 -27.4536
   -27.4532 -10.6136 -10.0848  -9.0221  -6.3088  -5.0013  -0.4507  -0.2366
     0.0572   0.1203   0.3945   0.4876   1.1047   1.1777   1.5932   2.5174
     2.8022   2.9372   3.7727   3.9550   4.1497   6.3018   6.4208   6.9664
     7.3031   7.6275   7.9033   8.4053   8.6061   8.6931   9.0371   9.1229
     9.7134   9.8912  10.1632  10.3884  10.8033  10.8492  11.1102  11.2967
    12.0873  12.1640  12.7624  12.9886  13.4246  13.7158  14.2902  14.5217
    14.6473  14.9350  15.4878  15.6613  15.6728  15.9929  16.0518  16.3865
    16.5811  16.6327  16.8812  16.9564  17.0572  17.1314  17.3535  17.6468
    17.8949  18.0103  18.1673  18.3821  18.4760  18.6094  18.6926  18.7837
    18.9079  18.9654  19.0789  19.2171

     occupation numbers 
     1.0000   1.0000   1.0000   1.0000   1.0000   1.0000   1.0000   1.0000
     1.0000   1.0000   1.0000   1.0000   1.0000   1.0000   1.0000   1.0000
     1.0000   1.0000   1.0000   1.0000   1.0000   1.0000   1.0000   1.0000
     1.0000   1.0000   1.0000   1.0000   1.0000   1.0000   1.0000   1.0000
     1.0000   1.0000   1.0000   1.0000   1.0000   1.0000   1.0000   0.0000
     0.0000   0.0000   0.0000   0.0000   0.0000   0.0000   0.0000   0.0000
     0.0000   0.0000   0.0000   0.0000   0.0000   0.0000   0.0000   0.0000
     0.0000   0.0000   0.0000   0.0000   0.0000   0.0000   0.0000   0.0000
     0.0000   0.0000   0.0000   0.0000   0.0000   0.0000   0.0000   0.0000
     0.0000   0.0000   0.0000   0.0000   0.0000   0.0000   0.0000   0.0000
     0.0000   0.0000   0.0000   0.0000   0.0000   0.0000   0.0000   0.0000
     0.0000   0.0000   0.0000   0.0000   0.0000   0.0000   0.0000   0.0000
     0.0000   0.0000   0.0000   0.0000

          k = 0.0769 0.1350 0.0000 ( 24189 PWs)   bands (ev):

   -34.7005 -34.7001 -34.7001 -34.6997 -34.6708 -34.6703 -34.6672 -34.6667
   -34.6576 -34.6571 -34.5925 -34.5849 -34.5780 -34.5456 -34.5454 -27.4662
   -27.4660 -27.4656 -27.4652 -27.4580 -27.4576 -27.4552 -27.4547 -27.4539
   -27.4534 -10.5119  -9.9920  -8.9671  -6.3294  -5.1705  -0.9129  -0.5606
    -0.3334  -0.1313   0.1510   0.4579   0.8276   1.5306   1.6005   2.6909
     2.9515   3.2224   3.9465   4.0861   4.5214   6.4409   6.4607   6.8701
     7.1440   7.6567   8.1132   8.4168   8.5213   8.7158   9.0041   9.4779
     9.7968  10.0418  10.3606  10.7164  10.9671  11.1133  11.2401  11.5399
    12.4222  12.4612  12.8977  13.0530  13.3717  13.5855  13.8885  14.2583
    14.8106  15.0112  15.0994  15.2562  15.3748  15.5148  15.7476  16.3836
    16.5268  16.5416  16.8639  16.9773  17.1029  17.3268  17.3914  17.5723
    17.6662  17.7617  17.8567  17.9180  18.4588  19.1047  19.3549  19.4443
    19.5119  19.6141  19.7693  19.7769

     occupation numbers 
     1.0000   1.0000   1.0000   1.0000   1.0000   1.0000   1.0000   1.0000
     1.0000   1.0000   1.0000   1.0000   1.0000   1.0000   1.0000   1.0000
     1.0000   1.0000   1.0000   1.0000   1.0000   1.0000   1.0000   1.0000
     1.0000   1.0000   1.0000   1.0000   1.0000   1.0000   1.0000   1.0000
     1.0000   1.0000   1.0000   1.0000   1.0000   1.0000   1.0000   0.0000
     0.0000   0.0000   0.0000   0.0000   0.0000   0.0000   0.0000   0.0000
     0.0000   0.0000   0.0000   0.0000   0.0000   0.0000   0.0000   0.0000
     0.0000   0.0000   0.0000   0.0000   0.0000   0.0000   0.0000   0.0000
     0.0000   0.0000   0.0000   0.0000   0.0000   0.0000   0.0000   0.0000
     0.0000   0.0000   0.0000   0.0000   0.0000   0.0000   0.0000   0.0000
     0.0000   0.0000   0.0000   0.0000   0.0000   0.0000   0.0000   0.0000
     0.0000   0.0000   0.0000   0.0000   0.0000   0.0000   0.0000   0.0000
     0.0000   0.0000   0.0000   0.0000

          k = 0.0769 0.2256 0.0000 ( 24224 PWs)   bands (ev):

   -34.7005 -34.7001 -34.6999 -34.6994 -34.6708 -34.6703 -34.6672 -34.6668
   -34.6575 -34.6570 -34.5924 -34.5849 -34.5780 -34.5454 -34.5453 -27.4664
   -27.4661 -27.4648 -27.4645 -27.4577 -27.4572 -27.4555 -27.4549 -27.4543
   -27.4538 -10.3110  -9.8110  -8.8674  -6.3936  -5.4932  -1.5253  -1.1070
    -0.6697  -0.4534  -0.1433   0.2089   0.7526   1.2824   1.7079   2.8744
     3.0901   3.6563   4.1293   4.5424   4.9511   6.3034   6.6775   6.8342
     7.2249   7.8734   8.3065   8.3939   8.5987   8.8892   9.4033   9.7522
     9.8938  10.1987  10.6805  10.9072  11.3071  11.4426  11.9758  12.1809
    12.4962  12.6644  12.9952  13.2380  13.2957  13.6191  13.8002  14.1114
    14.2115  14.4569  14.6620  14.7458  15.5106  15.6524  15.9018  15.9460
    16.1870  16.4895  16.5584  16.7308  16.9579  17.0560  17.2523  17.5760
    17.8462  18.1223  18.5454  18.5877  18.6478  18.7892  18.8108  18.9749
    19.1175  19.2580  19.4848  19.5436

     occupation numbers 
     1.0000   1.0000   1.0000   1.0000   1.0000   1.0000   1.0000   1.0000
     1.0000   1.0000   1.0000   1.0000   1.0000   1.0000   1.0000   1.0000
     1.0000   1.0000   1.0000   1.0000   1.0000   1.0000   1.0000   1.0000
     1.0000   1.0000   1.0000   1.0000   1.0000   1.0000   1.0000   1.0000
     1.0000   1.0000   1.0000   1.0000   1.0000   1.0000   1.0000   0.0000
     0.0000   0.0000   0.0000   0.0000   0.0000   0.0000   0.0000   0.0000
     0.0000   0.0000   0.0000   0.0000   0.0000   0.0000   0.0000   0.0000
     0.0000   0.0000   0.0000   0.0000   0.0000   0.0000   0.0000   0.0000
     0.0000   0.0000   0.0000   0.0000   0.0000   0.0000   0.0000   0.0000
     0.0000   0.0000   0.0000   0.0000   0.0000   0.0000   0.0000   0.0000
     0.0000   0.0000   0.0000   0.0000   0.0000   0.0000   0.0000   0.0000
     0.0000   0.0000   0.0000   0.0000   0.0000   0.0000   0.0000   0.0000
     0.0000   0.0000   0.0000   0.0000

          k = 0.0769 0.3162 0.0000 ( 24264 PWs)   bands (ev):

   -34.7005 -34.7001 -34.6995 -34.6991 -34.6708 -34.6703 -34.6673 -34.6669
   -34.6573 -34.6568 -34.5923 -34.5849 -34.5781 -34.5453 -34.5450 -27.4665
   -27.4662 -27.4639 -27.4636 -27.4573 -27.4568 -27.4557 -27.4553 -27.4545
   -27.4543 -10.0192  -9.5556  -8.7486  -6.5445  -5.9219  -2.1418  -1.4897
    -0.9793  -0.7936  -0.5234   0.0941   0.6828   0.9073   1.6069   3.0296
     3.2006   3.8116   4.4943   4.8054   5.4374   5.9346   6.9427   7.2036
     7.5793   7.9584   8.3141   8.6953   9.1554   9.3623   9.7488  10.0571
    10.1475  10.3409  11.0159  11.1765  11.4650  12.0295  12.2772  12.3558
    12.6499  12.7060  12.8664  12.9643  13.3639  13.7341  13.9705  14.0998
    14.2769  14.4472  14.7362  14.9721  15.1539  15.3982  15.6029  15.9869
    16.0329  16.1938  16.3972  16.5873  16.6135  16.8893  16.9890  17.4651
    17.6358  17.8206  18.0558  18.2146  18.4400  18.6183  18.7323  18.8173
    19.0516  19.3218  19.4600  19.4890

     occupation numbers 
     1.0000   1.0000   1.0000   1.0000   1.0000   1.0000   1.0000   1.0000
     1.0000   1.0000   1.0000   1.0000   1.0000   1.0000   1.0000   1.0000
     1.0000   1.0000   1.0000   1.0000   1.0000   1.0000   1.0000   1.0000
     1.0000   1.0000   1.0000   1.0000   1.0000   1.0000   1.0000   1.0000
     1.0000   1.0000   1.0000   1.0000   1.0000   1.0000   1.0000   0.0000
     0.0000   0.0000   0.0000   0.0000   0.0000   0.0000   0.0000   0.0000
     0.0000   0.0000   0.0000   0.0000   0.0000   0.0000   0.0000   0.0000
     0.0000   0.0000   0.0000   0.0000   0.0000   0.0000   0.0000   0.0000
     0.0000   0.0000   0.0000   0.0000   0.0000   0.0000   0.0000   0.0000
     0.0000   0.0000   0.0000   0.0000   0.0000   0.0000   0.0000   0.0000
     0.0000   0.0000   0.0000   0.0000   0.0000   0.0000   0.0000   0.0000
     0.0000   0.0000   0.0000   0.0000   0.0000   0.0000   0.0000   0.0000
     0.0000   0.0000   0.0000   0.0000

          k = 0.0769 0.4068 0.0000 ( 24275 PWs)   bands (ev):

   -34.7005 -34.7000 -34.6992 -34.6988 -34.6709 -34.6703 -34.6674 -34.6669
   -34.6571 -34.6567 -34.5922 -34.5850 -34.5782 -34.5453 -34.5447 -27.4666
   -27.4663 -27.4631 -27.4627 -27.4571 -27.4566 -27.4559 -27.4555 -27.4549
   -27.4545  -9.6537  -9.2555  -8.6585  -6.8155  -6.3548  -2.6153  -1.6820
    -1.3474  -1.1045  -0.6409  -0.1125   0.4965   0.8125   1.3706   3.0763
     3.2355   3.8289   4.7309   4.9769   5.5983   5.8283   7.1390   7.6112
     8.0116   8.2968   8.7985   9.1502   9.5437   9.6234  10.2112  10.3572
    10.6189  10.7483  11.1315  11.2804  11.5195  11.6883  11.9569  12.5129
    12.6648  12.9619  13.0990  13.2973  13.4524  13.6194  13.7452  13.9422
    14.0881  14.8526  14.9119  15.1013  15.2574  15.5599  15.6650  15.6668
    15.8878  16.0494  16.2848  16.3630  16.6033  16.7639  16.7903  16.9705
    17.0652  17.4221  17.6040  17.8727  18.2461  18.3230  18.4912  18.8413
    19.0834  19.1863  19.2651  19.4364

     occupation numbers 
     1.0000   1.0000   1.0000   1.0000   1.0000   1.0000   1.0000   1.0000
     1.0000   1.0000   1.0000   1.0000   1.0000   1.0000   1.0000   1.0000
     1.0000   1.0000   1.0000   1.0000   1.0000   1.0000   1.0000   1.0000
     1.0000   1.0000   1.0000   1.0000   1.0000   1.0000   1.0000   1.0000
     1.0000   1.0000   1.0000   1.0000   1.0000   1.0000   1.0000   0.0000
     0.0000   0.0000   0.0000   0.0000   0.0000   0.0000   0.0000   0.0000
     0.0000   0.0000   0.0000   0.0000   0.0000   0.0000   0.0000   0.0000
     0.0000   0.0000   0.0000   0.0000   0.0000   0.0000   0.0000   0.0000
     0.0000   0.0000   0.0000   0.0000   0.0000   0.0000   0.0000   0.0000
     0.0000   0.0000   0.0000   0.0000   0.0000   0.0000   0.0000   0.0000
     0.0000   0.0000   0.0000   0.0000   0.0000   0.0000   0.0000   0.0000
     0.0000   0.0000   0.0000   0.0000   0.0000   0.0000   0.0000   0.0000
     0.0000   0.0000   0.0000   0.0000

          k = 0.0769 0.4974 0.0000 ( 24291 PWs)   bands (ev):

   -34.7005 -34.7000 -34.6990 -34.6986 -34.6709 -34.6703 -34.6674 -34.6670
   -34.6570 -34.6565 -34.5921 -34.5850 -34.5783 -34.5453 -34.5445 -27.4668
   -27.4664 -27.4625 -27.4621 -27.4572 -27.4565 -27.4561 -27.4555 -27.4552
   -27.4545  -9.2509  -8.9764  -8.6765  -7.1371  -6.6771  -2.9061  -1.7246
    -1.5884  -1.3230  -0.7331  -0.3186   0.4689   0.7655   1.1503   3.1100
     3.2080   3.7456   4.9113   5.0225   5.4236   5.9580   7.1531   8.1646
     8.3929   9.0200   9.1664   9.3195   9.7663   9.8596  10.3779  10.6042
    10.8917  11.0023  11.3264  11.4219  11.6757  11.7750  12.0796  12.3543
    12.4661  12.6989  12.9788  13.0804  13.4635  13.6989  13.8600  14.1087
    14.1850  14.5418  14.7078  14.8613  15.0685  15.2347  15.5738  15.6598
    15.8598  15.9372  16.0788  16.3239  16.7384  16.7795  16.9676  17.2068
    17.3379  17.4395  17.6060  17.8822  17.9703  18.2976  18.4364  18.7388
    18.9943  19.0747  19.2552  19.4870

     occupation numbers 
     1.0000   1.0000   1.0000   1.0000   1.0000   1.0000   1.0000   1.0000
     1.0000   1.0000   1.0000   1.0000   1.0000   1.0000   1.0000   1.0000
     1.0000   1.0000   1.0000   1.0000   1.0000   1.0000   1.0000   1.0000
     1.0000   1.0000   1.0000   1.0000   1.0000   1.0000   1.0000   1.0000
     1.0000   1.0000   1.0000   1.0000   1.0000   1.0000   1.0000   0.0000
     0.0000   0.0000   0.0000   0.0000   0.0000   0.0000   0.0000   0.0000
     0.0000   0.0000   0.0000   0.0000   0.0000   0.0000   0.0000   0.0000
     0.0000   0.0000   0.0000   0.0000   0.0000   0.0000   0.0000   0.0000
     0.0000   0.0000   0.0000   0.0000   0.0000   0.0000   0.0000   0.0000
     0.0000   0.0000   0.0000   0.0000   0.0000   0.0000   0.0000   0.0000
     0.0000   0.0000   0.0000   0.0000   0.0000   0.0000   0.0000   0.0000
     0.0000   0.0000   0.0000   0.0000   0.0000   0.0000   0.0000   0.0000
     0.0000   0.0000   0.0000   0.0000

          k = 0.0769 0.5880 0.0000 ( 24285 PWs)   bands (ev):

   -34.7005 -34.7000 -34.6989 -34.6985 -34.6709 -34.6703 -34.6674 -34.6670
   -34.6570 -34.6565 -34.5920 -34.5850 -34.5783 -34.5453 -34.5443 -27.4668
   -27.4665 -27.4622 -27.4619 -27.4572 -27.4565 -27.4562 -27.4554 -27.4552
   -27.4545  -8.8889  -8.8813  -8.8480  -7.2908  -6.8021  -3.0057  -1.7519
    -1.6041  -1.4271  -0.8127  -0.3667   0.5228   0.6862   1.0774   3.0789
     3.2482   3.6770   4.9766   5.0188   5.3899   5.9249   7.2072   8.5096
     8.8197   8.8533   9.0005   9.6575   9.9058   9.9346  10.5309  10.6265
    10.8165  11.1754  11.2791  11.5946  11.8225  11.9445  12.0628  12.2687
    12.5058  12.6853  12.9992  13.2038  13.3700  13.6859  13.9563  14.0328
    14.2387  14.3491  14.5716  14.6273  14.8949  15.0590  15.2920  15.5845
    15.8010  15.8967  16.0217  16.2701  16.3386  16.8255  16.9281  17.3440
    17.7570  17.9549  18.0434  18.1773  18.3606  18.4577  18.5829  18.7530
    18.8897  19.0232  19.1294  19.2264

     occupation numbers 
     1.0000   1.0000   1.0000   1.0000   1.0000   1.0000   1.0000   1.0000
     1.0000   1.0000   1.0000   1.0000   1.0000   1.0000   1.0000   1.0000
     1.0000   1.0000   1.0000   1.0000   1.0000   1.0000   1.0000   1.0000
     1.0000   1.0000   1.0000   1.0000   1.0000   1.0000   1.0000   1.0000
     1.0000   1.0000   1.0000   1.0000   1.0000   1.0000   1.0000   0.0000
     0.0000   0.0000   0.0000   0.0000   0.0000   0.0000   0.0000   0.0000
     0.0000   0.0000   0.0000   0.0000   0.0000   0.0000   0.0000   0.0000
     0.0000   0.0000   0.0000   0.0000   0.0000   0.0000   0.0000   0.0000
     0.0000   0.0000   0.0000   0.0000   0.0000   0.0000   0.0000   0.0000
     0.0000   0.0000   0.0000   0.0000   0.0000   0.0000   0.0000   0.0000
     0.0000   0.0000   0.0000   0.0000   0.0000   0.0000   0.0000   0.0000
     0.0000   0.0000   0.0000   0.0000   0.0000   0.0000   0.0000   0.0000
     0.0000   0.0000   0.0000   0.0000

          k = 0.0769-0.4992 0.0000 ( 24292 PWs)   bands (ev):

   -34.7005 -34.7001 -34.6990 -34.6986 -34.6709 -34.6703 -34.6674 -34.6670
   -34.6570 -34.6565 -34.5921 -34.5850 -34.5783 -34.5453 -34.5444 -27.4668
   -27.4665 -27.4624 -27.4621 -27.4571 -27.4563 -27.4561 -27.4554 -27.4553
   -27.4546  -9.2437  -8.9714  -8.6777  -7.1398  -6.6755  -2.9096  -1.7229
    -1.6067  -1.2994  -0.7524  -0.3009   0.4767   0.7409   1.1542   3.1039
     3.2032   3.7301   4.9157   4.9990   5.4153   5.9403   7.1427   8.1697
     8.4076   8.9283   9.1002   9.3151   9.7660   9.7721  10.3467  10.5313
    10.8704  11.0140  11.4697  11.5333  11.7130  11.7623  12.2028  12.3950
    12.6433  12.7852  12.9648  13.1503  13.5196  13.7601  13.9298  14.0033
    14.1931  14.4707  14.7377  14.8576  14.9665  15.2902  15.5430  15.5981
    15.7903  15.9764  16.0684  16.2691  16.6454  16.7398  16.8559  17.3099
    17.3873  17.4839  17.5940  17.8826  17.9267  18.3245  18.4912  18.7619
    18.9552  19.1320  19.1907  19.4615

     occupation numbers 
     1.0000   1.0000   1.0000   1.0000   1.0000   1.0000   1.0000   1.0000
     1.0000   1.0000   1.0000   1.0000   1.0000   1.0000   1.0000   1.0000
     1.0000   1.0000   1.0000   1.0000   1.0000   1.0000   1.0000   1.0000
     1.0000   1.0000   1.0000   1.0000   1.0000   1.0000   1.0000   1.0000
     1.0000   1.0000   1.0000   1.0000   1.0000   1.0000   1.0000   0.0000
     0.0000   0.0000   0.0000   0.0000   0.0000   0.0000   0.0000   0.0000
     0.0000   0.0000   0.0000   0.0000   0.0000   0.0000   0.0000   0.0000
     0.0000   0.0000   0.0000   0.0000   0.0000   0.0000   0.0000   0.0000
     0.0000   0.0000   0.0000   0.0000   0.0000   0.0000   0.0000   0.0000
     0.0000   0.0000   0.0000   0.0000   0.0000   0.0000   0.0000   0.0000
     0.0000   0.0000   0.0000   0.0000   0.0000   0.0000   0.0000   0.0000
     0.0000   0.0000   0.0000   0.0000   0.0000   0.0000   0.0000   0.0000
     0.0000   0.0000   0.0000   0.0000

          k = 0.0769-0.4086 0.0000 ( 24291 PWs)   bands (ev):

   -34.7005 -34.7001 -34.6992 -34.6988 -34.6708 -34.6703 -34.6674 -34.6670
   -34.6571 -34.6566 -34.5922 -34.5849 -34.5783 -34.5454 -34.5446 -27.4667
   -27.4664 -27.4630 -27.4627 -27.4569 -27.4564 -27.4557 -27.4555 -27.4554
   -27.4546  -9.6465  -9.2487  -8.6560  -6.8173  -6.3504  -2.6220  -1.6913
    -1.3528  -1.0774  -0.6651  -0.0862   0.4993   0.7800   1.3627   3.0813
     3.2112   3.7910   4.7077   4.9742   5.5848   5.7965   7.1199   7.6134
     8.0118   8.1635   8.7948   9.0937   9.5391   9.6139  10.3454  10.3932
    10.6058  10.8082  11.1666  11.2718  11.5918  11.7142  11.9164  12.5198
    12.6810  12.9989  13.1233  13.3077  13.4822  13.6478  13.7926  13.9737
    14.1184  14.8584  15.0327  15.2073  15.4321  15.5717  15.6649  15.7588
    15.8793  16.0580  16.2283  16.3750  16.5786  16.6578  16.7972  16.8362
    17.0983  17.3151  17.5135  17.8751  18.1809  18.2958  18.5126  18.7855
    18.9745  19.1879  19.3681  19.6014

     occupation numbers 
     1.0000   1.0000   1.0000   1.0000   1.0000   1.0000   1.0000   1.0000
     1.0000   1.0000   1.0000   1.0000   1.0000   1.0000   1.0000   1.0000
     1.0000   1.0000   1.0000   1.0000   1.0000   1.0000   1.0000   1.0000
     1.0000   1.0000   1.0000   1.0000   1.0000   1.0000   1.0000   1.0000
     1.0000   1.0000   1.0000   1.0000   1.0000   1.0000   1.0000   0.0000
     0.0000   0.0000   0.0000   0.0000   0.0000   0.0000   0.0000   0.0000
     0.0000   0.0000   0.0000   0.0000   0.0000   0.0000   0.0000   0.0000
     0.0000   0.0000   0.0000   0.0000   0.0000   0.0000   0.0000   0.0000
     0.0000   0.0000   0.0000   0.0000   0.0000   0.0000   0.0000   0.0000
     0.0000   0.0000   0.0000   0.0000   0.0000   0.0000   0.0000   0.0000
     0.0000   0.0000   0.0000   0.0000   0.0000   0.0000   0.0000   0.0000
     0.0000   0.0000   0.0000   0.0000   0.0000   0.0000   0.0000   0.0000
     0.0000   0.0000   0.0000   0.0000

          k = 0.0769-0.3180 0.0000 ( 24268 PWs)   bands (ev):

   -34.7005 -34.7001 -34.6995 -34.6991 -34.6708 -34.6703 -34.6673 -34.6669
   -34.6573 -34.6568 -34.5923 -34.5849 -34.5782 -34.5455 -34.5448 -27.4666
   -27.4663 -27.4638 -27.4635 -27.4570 -27.4567 -27.4554 -27.4553 -27.4549
   -27.4546 -10.0129  -9.5491  -8.7445  -6.5427  -5.9147  -2.1515  -1.4884
    -0.9901  -0.7711  -0.5349   0.1238   0.6479   0.8894   1.5841   3.0042
     3.1779   3.7838   4.4370   4.8340   5.4210   5.9119   6.9219   7.1885
     7.5422   7.9321   8.3110   8.6612   9.1964   9.4682   9.8023  10.0691
    10.1429  10.3622  11.0735  11.1965  11.4074  12.0082  12.2551  12.3752
    12.6358  12.6900  12.9261  12.9695  13.3636  13.7196  14.0382  14.1737
    14.3367  14.4373  14.6991  14.9930  15.1820  15.4166  15.6110  16.0135
    16.1740  16.3495  16.4288  16.5770  16.6453  16.9485  17.1033  17.4864
    17.6612  17.8230  18.0835  18.1647  18.2990  18.5593  18.5740  18.8576
    19.0424  19.1796  19.3265  19.5862

     occupation numbers 
     1.0000   1.0000   1.0000   1.0000   1.0000   1.0000   1.0000   1.0000
     1.0000   1.0000   1.0000   1.0000   1.0000   1.0000   1.0000   1.0000
     1.0000   1.0000   1.0000   1.0000   1.0000   1.0000   1.0000   1.0000
     1.0000   1.0000   1.0000   1.0000   1.0000   1.0000   1.0000   1.0000
     1.0000   1.0000   1.0000   1.0000   1.0000   1.0000   1.0000   0.0000
     0.0000   0.0000   0.0000   0.0000   0.0000   0.0000   0.0000   0.0000
     0.0000   0.0000   0.0000   0.0000   0.0000   0.0000   0.0000   0.0000
     0.0000   0.0000   0.0000   0.0000   0.0000   0.0000   0.0000   0.0000
     0.0000   0.0000   0.0000   0.0000   0.0000   0.0000   0.0000   0.0000
     0.0000   0.0000   0.0000   0.0000   0.0000   0.0000   0.0000   0.0000
     0.0000   0.0000   0.0000   0.0000   0.0000   0.0000   0.0000   0.0000
     0.0000   0.0000   0.0000   0.0000   0.0000   0.0000   0.0000   0.0000
     0.0000   0.0000   0.0000   0.0000

          k = 0.0769-0.2274 0.0000 ( 24219 PWs)   bands (ev):

   -34.7005 -34.7001 -34.6998 -34.6994 -34.6708 -34.6703 -34.6672 -34.6668
   -34.6575 -34.6570 -34.5924 -34.5849 -34.5781 -34.5456 -34.5451 -27.4664
   -27.4661 -27.4647 -27.4644 -27.4575 -27.4571 -27.4552 -27.4548 -27.4546
   -27.4542 -10.3063  -9.8059  -8.8635  -6.3895  -5.4840  -1.5307  -1.0923
    -0.6765  -0.4310  -0.1629   0.2151   0.7228   1.2406   1.6942   2.7878
     3.0889   3.6726   4.0640   4.6003   4.9448   6.2830   6.6802   6.8062
     7.2226   7.8720   8.3059   8.3892   8.6668   8.9063   9.4071   9.7683
     9.8704  10.2151  10.6667  10.9368  11.3045  11.4398  12.0110  12.1881
    12.5201  12.7016  12.9230  13.2660  13.3137  13.6363  13.8132  14.1453
    14.1996  14.4984  14.6733  14.8219  15.4974  15.6163  15.8896  15.9500
    16.2197  16.5150  16.5662  16.7948  16.8878  17.0843  17.1621  17.4319
    18.0020  18.3049  18.4997  18.6170  18.6425  18.7213  18.8899  18.9062
    19.1545  19.2605  19.5137  19.5439

     occupation numbers 
     1.0000   1.0000   1.0000   1.0000   1.0000   1.0000   1.0000   1.0000
     1.0000   1.0000   1.0000   1.0000   1.0000   1.0000   1.0000   1.0000
     1.0000   1.0000   1.0000   1.0000   1.0000   1.0000   1.0000   1.0000
     1.0000   1.0000   1.0000   1.0000   1.0000   1.0000   1.0000   1.0000
     1.0000   1.0000   1.0000   1.0000   1.0000   1.0000   1.0000   0.0000
     0.0000   0.0000   0.0000   0.0000   0.0000   0.0000   0.0000   0.0000
     0.0000   0.0000   0.0000   0.0000   0.0000   0.0000   0.0000   0.0000
     0.0000   0.0000   0.0000   0.0000   0.0000   0.0000   0.0000   0.0000
     0.0000   0.0000   0.0000   0.0000   0.0000   0.0000   0.0000   0.0000
     0.0000   0.0000   0.0000   0.0000   0.0000   0.0000   0.0000   0.0000
     0.0000   0.0000   0.0000   0.0000   0.0000   0.0000   0.0000   0.0000
     0.0000   0.0000   0.0000   0.0000   0.0000   0.0000   0.0000   0.0000
     0.0000   0.0000   0.0000   0.0000

          k = 0.0769-0.1368 0.0000 ( 24184 PWs)   bands (ev):

   -34.7005 -34.7001 -34.7001 -34.6997 -34.6708 -34.6702 -34.6672 -34.6668
   -34.6576 -34.6571 -34.5925 -34.5849 -34.5780 -34.5457 -34.5453 -27.4663
   -27.4660 -27.4654 -27.4651 -27.4579 -27.4575 -27.4551 -27.4547 -27.4540
   -27.4536 -10.5090  -9.9888  -8.9644  -6.3257  -5.1622  -0.8887  -0.5477
    -0.3010  -0.1347   0.0944   0.4437   0.7845   1.5245   1.5717   2.6006
     3.0074   3.1908   3.9185   4.1481   4.5303   6.4489   6.4599   6.8557
     7.1670   7.6692   8.0847   8.4002   8.5381   8.7530   8.9577   9.5063
     9.7570  10.0424  10.3298  10.7325  11.0009  11.1449  11.2637  11.6131
    12.3846  12.4791  12.8415  13.1044  13.3701  13.5543  13.9773  14.2402
    14.7738  15.0881  15.1568  15.2971  15.3991  15.5127  15.7586  16.3244
    16.4568  16.5140  16.9345  17.0092  17.1235  17.2415  17.3496  17.5478
    17.5575  17.7076  17.7394  17.7726  18.5748  19.1168  19.2921  19.3942
    19.4107  19.5446  19.8553  19.9109

     occupation numbers 
     1.0000   1.0000   1.0000   1.0000   1.0000   1.0000   1.0000   1.0000
     1.0000   1.0000   1.0000   1.0000   1.0000   1.0000   1.0000   1.0000
     1.0000   1.0000   1.0000   1.0000   1.0000   1.0000   1.0000   1.0000
     1.0000   1.0000   1.0000   1.0000   1.0000   1.0000   1.0000   1.0000
     1.0000   1.0000   1.0000   1.0000   1.0000   1.0000   1.0000   0.0000
     0.0000   0.0000   0.0000   0.0000   0.0000   0.0000   0.0000   0.0000
     0.0000   0.0000   0.0000   0.0000   0.0000   0.0000   0.0000   0.0000
     0.0000   0.0000   0.0000   0.0000   0.0000   0.0000   0.0000   0.0000
     0.0000   0.0000   0.0000   0.0000   0.0000   0.0000   0.0000   0.0000
     0.0000   0.0000   0.0000   0.0000   0.0000   0.0000   0.0000   0.0000
     0.0000   0.0000   0.0000   0.0000   0.0000   0.0000   0.0000   0.0000
     0.0000   0.0000   0.0000   0.0000   0.0000   0.0000   0.0000   0.0000
     0.0000   0.0000   0.0000   0.0000

          k = 0.0769-0.0462 0.0000 ( 24165 PWs)   bands (ev):

   -34.7005 -34.7003 -34.7001 -34.6998 -34.6708 -34.6702 -34.6671 -34.6667
   -34.6577 -34.6572 -34.5926 -34.5849 -34.5779 -34.5458 -34.5453 -27.4662
   -27.4660 -27.4659 -27.4656 -27.4582 -27.4578 -27.4550 -27.4547 -27.4536
   -27.4533 -10.6126 -10.0837  -9.0211  -6.3074  -4.9979  -0.4251  -0.1558
    -0.0284   0.1247   0.3404   0.5110   1.0488   1.1899   1.6067   2.4626
     2.8419   2.9506   3.7388   3.9418   4.1982   6.3027   6.4255   6.9673
     7.3642   7.6302   7.7986   8.4383   8.6011   8.7313   8.9459   9.1692
     9.7152   9.8393  10.2263  10.4019  10.8006  10.9055  11.0163  11.3719
    12.0212  12.1975  12.8070  12.9988  13.4623  13.6135  14.3021  14.5517
    14.6213  15.0180  15.4564  15.5908  15.8125  16.0747  16.1267  16.3146
    16.5149  16.6425  16.7265  16.8340  17.0162  17.1029  17.4112  17.7490
    18.0008  18.0380  18.0664  18.3331  18.4139  18.4889  18.6516  18.8240
    18.8874  19.0158  19.0906  19.3623

     occupation numbers 
     1.0000   1.0000   1.0000   1.0000   1.0000   1.0000   1.0000   1.0000
     1.0000   1.0000   1.0000   1.0000   1.0000   1.0000   1.0000   1.0000
     1.0000   1.0000   1.0000   1.0000   1.0000   1.0000   1.0000   1.0000
     1.0000   1.0000   1.0000   1.0000   1.0000   1.0000   1.0000   1.0000
     1.0000   1.0000   1.0000   1.0000   1.0000   1.0000   1.0000   0.0000
     0.0000   0.0000   0.0000   0.0000   0.0000   0.0000   0.0000   0.0000
     0.0000   0.0000   0.0000   0.0000   0.0000   0.0000   0.0000   0.0000
     0.0000   0.0000   0.0000   0.0000   0.0000   0.0000   0.0000   0.0000
     0.0000   0.0000   0.0000   0.0000   0.0000   0.0000   0.0000   0.0000
     0.0000   0.0000   0.0000   0.0000   0.0000   0.0000   0.0000   0.0000
     0.0000   0.0000   0.0000   0.0000   0.0000   0.0000   0.0000   0.0000
     0.0000   0.0000   0.0000   0.0000   0.0000   0.0000   0.0000   0.0000
     0.0000   0.0000   0.0000   0.0000

          k = 0.1538 0.0888 0.0000 ( 24247 PWs)   bands (ev):

   -34.7004 -34.7002 -34.7000 -34.6997 -34.6708 -34.6703 -34.6671 -34.6667
   -34.6576 -34.6571 -34.5925 -34.5849 -34.5780 -34.5457 -34.5453 -27.4661
   -27.4658 -27.4656 -27.4653 -27.4581 -27.4576 -27.4555 -27.4549 -27.4537
   -27.4532 -10.4658  -9.9510  -8.9453  -6.3494  -5.2652  -1.2280  -0.5852
    -0.3725  -0.2694   0.1735   0.2139   1.1611   1.2962   1.5974   2.8092
     3.1493   3.2941   3.9719   4.2055   4.5999   6.3172   6.5206   6.8084
     7.3312   7.6899   8.1861   8.3006   8.5480   8.8073   9.2595   9.4769
     9.6501  10.1021  10.4388  10.7181  11.0998  11.2966  11.4809  11.6897
    12.2467  12.4643  12.8515  13.2038  13.2877  13.6636  13.7770  14.3806
    14.5119  14.5712  14.9070  15.3687  15.6015  15.9150  16.0327  16.1107
    16.2810  16.4217  16.5100  16.5786  16.7673  17.0755  17.6641  17.6801
    18.0449  18.1621  18.2413  18.3982  18.4993  19.0078  19.1723  19.2471
    19.3195  19.4798  19.5322  19.6160

     occupation numbers 
     1.0000   1.0000   1.0000   1.0000   1.0000   1.0000   1.0000   1.0000
     1.0000   1.0000   1.0000   1.0000   1.0000   1.0000   1.0000   1.0000
     1.0000   1.0000   1.0000   1.0000   1.0000   1.0000   1.0000   1.0000
     1.0000   1.0000   1.0000   1.0000   1.0000   1.0000   1.0000   1.0000
     1.0000   1.0000   1.0000   1.0000   1.0000   1.0000   1.0000   0.0000
     0.0000   0.0000   0.0000   0.0000   0.0000   0.0000   0.0000   0.0000
     0.0000   0.0000   0.0000   0.0000   0.0000   0.0000   0.0000   0.0000
     0.0000   0.0000   0.0000   0.0000   0.0000   0.0000   0.0000   0.0000
     0.0000   0.0000   0.0000   0.0000   0.0000   0.0000   0.0000   0.0000
     0.0000   0.0000   0.0000   0.0000   0.0000   0.0000   0.0000   0.0000
     0.0000   0.0000   0.0000   0.0000   0.0000   0.0000   0.0000   0.0000
     0.0000   0.0000   0.0000   0.0000   0.0000   0.0000   0.0000   0.0000
     0.0000   0.0000   0.0000   0.0000

          k = 0.1538 0.1794 0.0000 ( 24252 PWs)   bands (ev):

   -34.7004 -34.7000 -34.7000 -34.6995 -34.6708 -34.6703 -34.6672 -34.6668
   -34.6575 -34.6570 -34.5924 -34.5849 -34.5780 -34.5455 -34.5452 -27.4662
   -27.4659 -27.4651 -27.4648 -27.4578 -27.4574 -27.4557 -27.4550 -27.4540
   -27.4534 -10.3168  -9.8174  -8.8733  -6.4029  -5.5071  -1.5945  -1.0449
    -0.7387  -0.3551  -0.1410   0.2568   0.8043   1.3023   1.7346   2.8534
     3.2303   3.6068   4.0705   4.6894   4.8229   6.2542   6.6741   6.8204
     7.2375   7.8437   8.2431   8.3794   8.7744   8.9000   9.4068   9.7333
     9.9629  10.1223  10.6629  10.9280  11.2744  11.4356  11.9561  12.0737
    12.5021  12.5530  12.9838  13.2241  13.4055  13.6033  13.7935  13.9638
    14.0051  14.4765  14.8256  15.0131  15.5488  15.6384  15.7153  15.8892
    16.1071  16.6320  16.7052  16.9134  17.0234  17.1432  17.3937  17.4938
    17.8765  18.1435  18.3811  18.4472  18.5654  18.7087  18.7622  18.8563
    19.0747  19.3079  19.5839  19.6238

     occupation numbers 
     1.0000   1.0000   1.0000   1.0000   1.0000   1.0000   1.0000   1.0000
     1.0000   1.0000   1.0000   1.0000   1.0000   1.0000   1.0000   1.0000
     1.0000   1.0000   1.0000   1.0000   1.0000   1.0000   1.0000   1.0000
     1.0000   1.0000   1.0000   1.0000   1.0000   1.0000   1.0000   1.0000
     1.0000   1.0000   1.0000   1.0000   1.0000   1.0000   1.0000   0.0000
     0.0000   0.0000   0.0000   0.0000   0.0000   0.0000   0.0000   0.0000
     0.0000   0.0000   0.0000   0.0000   0.0000   0.0000   0.0000   0.0000
     0.0000   0.0000   0.0000   0.0000   0.0000   0.0000   0.0000   0.0000
     0.0000   0.0000   0.0000   0.0000   0.0000   0.0000   0.0000   0.0000
     0.0000   0.0000   0.0000   0.0000   0.0000   0.0000   0.0000   0.0000
     0.0000   0.0000   0.0000   0.0000   0.0000   0.0000   0.0000   0.0000
     0.0000   0.0000   0.0000   0.0000   0.0000   0.0000   0.0000   0.0000
     0.0000   0.0000   0.0000   0.0000

          k = 0.1538 0.2700 0.0000 ( 24267 PWs)   bands (ev):

   -34.7004 -34.7000 -34.6997 -34.6993 -34.6709 -34.6703 -34.6672 -34.6668
   -34.6574 -34.6569 -34.5923 -34.5850 -34.5781 -34.5454 -34.5451 -27.4662
   -27.4659 -27.4644 -27.4641 -27.4575 -27.4570 -27.4559 -27.4552 -27.4544
   -27.4538 -10.0734  -9.6033  -8.7697  -6.5167  -5.8768  -1.8639  -1.7364
    -0.8768  -0.7650  -0.4691  -0.0046   0.7392   1.3883   1.4837   2.9632
     3.5434   3.6841   4.2109   5.1054   5.2275   6.4271   6.5019   7.0296
     7.3591   7.9336   8.1642   8.3686   9.2619   9.5228   9.8590   9.9164
    10.1091  10.5307  10.8247  10.9494  11.8178  12.0440  12.1158  12.3288
    12.4767  12.6828  13.0501  13.1530  13.4009  13.4471  13.5786  13.6620
    14.3143  14.5504  14.6971  14.8867  15.2619  15.3849  15.5600  15.7261
    16.0253  16.1519  16.4973  16.5928  16.8886  17.2441  17.7316  17.8261
    17.9278  17.9652  18.0969  18.2449  18.2695  18.4453  18.5979  18.6677
    18.7966  19.2449  19.7257  19.9687

     occupation numbers 
     1.0000   1.0000   1.0000   1.0000   1.0000   1.0000   1.0000   1.0000
     1.0000   1.0000   1.0000   1.0000   1.0000   1.0000   1.0000   1.0000
     1.0000   1.0000   1.0000   1.0000   1.0000   1.0000   1.0000   1.0000
     1.0000   1.0000   1.0000   1.0000   1.0000   1.0000   1.0000   1.0000
     1.0000   1.0000   1.0000   1.0000   1.0000   1.0000   1.0000   0.0000
     0.0000   0.0000   0.0000   0.0000   0.0000   0.0000   0.0000   0.0000
     0.0000   0.0000   0.0000   0.0000   0.0000   0.0000   0.0000   0.0000
     0.0000   0.0000   0.0000   0.0000   0.0000   0.0000   0.0000   0.0000
     0.0000   0.0000   0.0000   0.0000   0.0000   0.0000   0.0000   0.0000
     0.0000   0.0000   0.0000   0.0000   0.0000   0.0000   0.0000   0.0000
     0.0000   0.0000   0.0000   0.0000   0.0000   0.0000   0.0000   0.0000
     0.0000   0.0000   0.0000   0.0000   0.0000   0.0000   0.0000   0.0000
     0.0000   0.0000   0.0000   0.0000

          k = 0.1538 0.3606 0.0000 ( 24275 PWs)   bands (ev):

   -34.7004 -34.6999 -34.6994 -34.6990 -34.6709 -34.6703 -34.6673 -34.6669
   -34.6572 -34.6567 -34.5922 -34.5850 -34.5782 -34.5452 -34.5449 -27.4662
   -27.4659 -27.4637 -27.4634 -27.4573 -27.4568 -27.4560 -27.4554 -27.4547
   -27.4543  -9.7479  -9.3289  -8.6656  -6.7177  -6.3139  -2.3140  -1.9763
    -1.2607  -1.0364  -0.7542  -0.2373   0.7688   1.0106   1.4567   3.0885
     3.6292   3.7140   4.5608   5.2739   5.5845   6.1573   6.9331   7.4599
     7.5126   7.9433   8.5830   8.6235   9.4291   9.5703  10.3534  10.3912
    10.6627  10.8974  10.9178  11.6422  11.8463  11.9363  12.1025  12.3032
    12.6408  12.6836  12.9692  13.0683  13.0761  13.1585  13.8590  14.0775
    14.3229  14.5094  14.6040  14.9105  14.9442  15.1006  15.2346  15.7836
    15.9585  16.1094  16.6214  16.6633  16.8678  17.1190  17.1987  17.5125
    17.6291  17.8007  17.9133  18.0329  18.3734  18.6503  19.0214  19.1375
    19.2781  19.5196  19.6331  19.6385

     occupation numbers 
     1.0000   1.0000   1.0000   1.0000   1.0000   1.0000   1.0000   1.0000
     1.0000   1.0000   1.0000   1.0000   1.0000   1.0000   1.0000   1.0000
     1.0000   1.0000   1.0000   1.0000   1.0000   1.0000   1.0000   1.0000
     1.0000   1.0000   1.0000   1.0000   1.0000   1.0000   1.0000   1.0000
     1.0000   1.0000   1.0000   1.0000   1.0000   1.0000   1.0000   0.0000
     0.0000   0.0000   0.0000   0.0000   0.0000   0.0000   0.0000   0.0000
     0.0000   0.0000   0.0000   0.0000   0.0000   0.0000   0.0000   0.0000
     0.0000   0.0000   0.0000   0.0000   0.0000   0.0000   0.0000   0.0000
     0.0000   0.0000   0.0000   0.0000   0.0000   0.0000   0.0000   0.0000
     0.0000   0.0000   0.0000   0.0000   0.0000   0.0000   0.0000   0.0000
     0.0000   0.0000   0.0000   0.0000   0.0000   0.0000   0.0000   0.0000
     0.0000   0.0000   0.0000   0.0000   0.0000   0.0000   0.0000   0.0000
     0.0000   0.0000   0.0000   0.0000

          k = 0.1538 0.4512 0.0000 ( 24292 PWs)   bands (ev):

[...]
     0.0000   0.0000   0.0000   0.0000

          k = 0.4615 0.7195 0.0000 ( 24282 PWs)   bands (ev):

   -36.5093 -36.5091 -36.5033 -36.5031 -36.4733 -36.4731 -36.4614 -36.4608
   -36.4538 -36.4535 -36.2244 -36.2181 -36.2051 -36.1673 -36.1630 -29.2037
   -29.2027 -29.1990 -29.1982 -29.1903 -29.1895 -29.1792 -29.1783 -29.1720
   -29.1697 -11.0044 -10.8518 -10.6430  -9.1208  -8.7033  -4.2239  -3.2714
    -3.1014  -2.6052  -1.9731  -1.8094  -0.3847  -0.0118   0.5701   2.8698
     3.3819   3.4610   4.7456   5.2052   5.7713   6.3348   7.7150   8.5008
     8.7741   9.0961   9.2723   9.6405   9.8907  10.1073  10.5045  10.6080
    10.7775  10.9688  11.2945  11.8377  11.9591  12.2527  12.3914  12.6716
    12.7508  13.0307  13.4384  13.5134  13.6533  14.0986  14.4731  14.5782
    14.6373  14.8976  15.2161  15.3167  15.6116  15.7955  16.0161  16.3699
    16.5408  16.6669  17.2906  17.3683  17.4340  17.5354  17.8194  17.8890
    18.1799  18.4052  18.5376  18.6254  18.9075  19.1145  19.2574  19.3022
    19.4485  19.6665  19.8829  20.1946

     occupation numbers 
     1.0000   1.0000   1.0000   1.0000   1.0000   1.0000   1.0000   1.0000
     1.0000   1.0000   1.0000   1.0000   1.0000   1.0000   1.0000   1.0000
     1.0000   1.0000   1.0000   1.0000   1.0000   1.0000   1.0000   1.0000
     1.0000   1.0000   1.0000   1.0000   1.0000   1.0000   1.0000   1.0000
     1.0000   1.0000   1.0000   1.0000   1.0000   1.0000   1.0000   0.0000
     0.0000   0.0000   0.0000   0.0000   0.0000   0.0000   0.0000   0.0000
     0.0000   0.0000   0.0000   0.0000   0.0000   0.0000   0.0000   0.0000
     0.0000   0.0000   0.0000   0.0000   0.0000   0.0000   0.0000   0.0000
     0.0000   0.0000   0.0000   0.0000   0.0000   0.0000   0.0000   0.0000
     0.0000   0.0000   0.0000   0.0000   0.0000   0.0000   0.0000   0.0000
     0.0000   0.0000   0.0000   0.0000   0.0000   0.0000   0.0000   0.0000
     0.0000   0.0000   0.0000   0.0000   0.0000   0.0000   0.0000   0.0000
     0.0000   0.0000   0.0000   0.0000

          k = 0.4615 0.8101 0.0000 ( 24295 PWs)   bands (ev):

   -36.5092 -36.5091 -36.5009 -36.5007 -36.4736 -36.4734 -36.4637 -36.4632
   -36.4559 -36.4556 -36.2238 -36.2213 -36.1994 -36.1684 -36.1616 -29.2091
   -29.2082 -29.2031 -29.2022 -29.1918 -29.1901 -29.1792 -29.1784 -29.1697
   -29.1674 -10.9468 -10.9140 -10.8119  -9.1433  -8.5387  -4.3597  -2.9728
    -2.8614  -2.6297  -2.0075  -1.4466  -0.3490  -0.2162   0.4081   2.9005
     2.9699   3.4114   4.7933   4.9010   5.7935   5.8508   7.5423   8.6179
     8.8865   8.9404   9.0802   9.8984   9.9828  10.0354  10.6956  10.9689
    11.2654  11.4764  11.7652  12.0212  12.1222  12.2775  12.6455  12.7792
    12.8744  13.0085  13.4034  13.5898  13.9655  14.1773  14.4898  14.5725
    14.7019  14.8943  14.9237  14.9625  15.3660  15.4398  15.7508  16.0457
    16.2351  16.3634  16.5867  16.7724  17.0297  17.4593  17.4920  17.7837
    18.1874  18.5155  18.6153  18.7661  18.8287  18.8774  19.0070  19.4047
    19.4617  19.5960  19.6855  19.7846

     occupation numbers 
     1.0000   1.0000   1.0000   1.0000   1.0000   1.0000   1.0000   1.0000
     1.0000   1.0000   1.0000   1.0000   1.0000   1.0000   1.0000   1.0000
     1.0000   1.0000   1.0000   1.0000   1.0000   1.0000   1.0000   1.0000
     1.0000   1.0000   1.0000   1.0000   1.0000   1.0000   1.0000   1.0000
     1.0000   1.0000   1.0000   1.0000   1.0000   1.0000   1.0000   0.0000
     0.0000   0.0000   0.0000   0.0000   0.0000   0.0000   0.0000   0.0000
     0.0000   0.0000   0.0000   0.0000   0.0000   0.0000   0.0000   0.0000
     0.0000   0.0000   0.0000   0.0000   0.0000   0.0000   0.0000   0.0000
     0.0000   0.0000   0.0000   0.0000   0.0000   0.0000   0.0000   0.0000
     0.0000   0.0000   0.0000   0.0000   0.0000   0.0000   0.0000   0.0000
     0.0000   0.0000   0.0000   0.0000   0.0000   0.0000   0.0000   0.0000
     0.0000   0.0000   0.0000   0.0000   0.0000   0.0000   0.0000   0.0000
     0.0000   0.0000   0.0000   0.0000

          k = 0.4615-0.2771 0.0000 ( 24291 PWs)   bands (ev):

   -36.5104 -36.5103 -36.5016 -36.5013 -36.4749 -36.4747 -36.4636 -36.4631
   -36.4553 -36.4549 -36.2243 -36.2223 -36.1968 -36.1713 -36.1628 -29.2104
   -29.2095 -29.2050 -29.2042 -29.1923 -29.1895 -29.1802 -29.1787 -29.1686
   -29.1665 -11.1217 -10.9649 -10.7511  -9.0919  -8.4317  -4.3714  -2.9125
    -2.6714  -2.6019  -1.9550  -1.3680  -0.3440  -0.1792   0.2498   2.6290
     3.1422   3.4177   4.6653   4.8617   5.6769   5.8328   7.4736   8.4329
     8.6978   9.0645   9.2760   9.6288  10.0194  10.2829  10.7280  11.1821
    11.3869  11.7039  11.7401  12.0956  12.1658  12.2759  12.4788  12.7717
    12.9755  13.2289  13.4205  13.6249  14.0652  14.2050  14.3945  14.5704
    14.6451  14.7780  14.8516  15.1098  15.3131  15.3970  15.5807  15.7716
    15.9613  16.2015  16.7173  16.9215  17.0482  17.2182  17.5271  17.7737
    18.0275  18.1251  18.2403  18.4651  18.7157  18.8992  18.9798  19.1724
    19.2637  19.9736  20.0060  20.0628

     occupation numbers 
     1.0000   1.0000   1.0000   1.0000   1.0000   1.0000   1.0000   1.0000
     1.0000   1.0000   1.0000   1.0000   1.0000   1.0000   1.0000   1.0000
     1.0000   1.0000   1.0000   1.0000   1.0000   1.0000   1.0000   1.0000
     1.0000   1.0000   1.0000   1.0000   1.0000   1.0000   1.0000   1.0000
     1.0000   1.0000   1.0000   1.0000   1.0000   1.0000   1.0000   0.0000
     0.0000   0.0000   0.0000   0.0000   0.0000   0.0000   0.0000   0.0000
     0.0000   0.0000   0.0000   0.0000   0.0000   0.0000   0.0000   0.0000
     0.0000   0.0000   0.0000   0.0000   0.0000   0.0000   0.0000   0.0000
     0.0000   0.0000   0.0000   0.0000   0.0000   0.0000   0.0000   0.0000
     0.0000   0.0000   0.0000   0.0000   0.0000   0.0000   0.0000   0.0000
     0.0000   0.0000   0.0000   0.0000   0.0000   0.0000   0.0000   0.0000
     0.0000   0.0000   0.0000   0.0000   0.0000   0.0000   0.0000   0.0000
     0.0000   0.0000   0.0000   0.0000

          k = 0.4615-0.1865 0.0000 ( 24268 PWs)   bands (ev):

   -36.5102 -36.5101 -36.5024 -36.5022 -36.4732 -36.4730 -36.4658 -36.4652
   -36.4553 -36.4549 -36.2228 -36.2209 -36.2006 -36.1700 -36.1634 -29.2093
   -29.2083 -29.2030 -29.2022 -29.1923 -29.1908 -29.1799 -29.1791 -29.1699
   -29.1678 -11.2965 -11.0282 -10.6257  -8.9842  -8.4173  -4.2593  -2.9645
    -2.8183  -2.5472  -1.9182  -1.4091  -0.3987  -0.1374   0.4752   2.8970
     2.9709   3.4722   4.7138   4.9141   5.7266   5.9852   7.4840   8.1804
     8.4934   9.2021   9.4414   9.4537  10.0064  10.3045  10.6257  10.7964
    11.2061  11.3315  11.7153  11.8572  12.0284  12.2975  12.4215  12.8263
    12.9619  12.9792  13.3591  13.4207  13.7527  14.0799  14.1660  14.5701
    14.6696  14.9813  15.2136  15.4364  15.5595  15.7174  15.9856  16.1257
    16.3123  16.4340  16.4916  16.8876  17.3021  17.4215  17.4798  17.6441
    17.8718  18.0913  18.3538  18.3857  18.6300  18.8158  18.8942  19.2646
    19.4398  19.6070  19.7223  20.1433

     occupation numbers 
     1.0000   1.0000   1.0000   1.0000   1.0000   1.0000   1.0000   1.0000
     1.0000   1.0000   1.0000   1.0000   1.0000   1.0000   1.0000   1.0000
     1.0000   1.0000   1.0000   1.0000   1.0000   1.0000   1.0000   1.0000
     1.0000   1.0000   1.0000   1.0000   1.0000   1.0000   1.0000   1.0000
     1.0000   1.0000   1.0000   1.0000   1.0000   1.0000   1.0000   0.0000
     0.0000   0.0000   0.0000   0.0000   0.0000   0.0000   0.0000   0.0000
     0.0000   0.0000   0.0000   0.0000   0.0000   0.0000   0.0000   0.0000
     0.0000   0.0000   0.0000   0.0000   0.0000   0.0000   0.0000   0.0000
     0.0000   0.0000   0.0000   0.0000   0.0000   0.0000   0.0000   0.0000
     0.0000   0.0000   0.0000   0.0000   0.0000   0.0000   0.0000   0.0000
     0.0000   0.0000   0.0000   0.0000   0.0000   0.0000   0.0000   0.0000
     0.0000   0.0000   0.0000   0.0000   0.0000   0.0000   0.0000   0.0000
     0.0000   0.0000   0.0000   0.0000

          k = 0.4615-0.0959 0.0000 ( 24293 PWs)   bands (ev):

   -36.5108 -36.5106 -36.5049 -36.5047 -36.4752 -36.4750 -36.4638 -36.4633
   -36.4544 -36.4540 -36.2248 -36.2191 -36.2077 -36.1694 -36.1658 -29.2038
   -29.2028 -29.1985 -29.1976 -29.1907 -29.1898 -29.1809 -29.1800 -29.1727
   -29.1708 -11.4105 -11.0716 -10.5399  -8.8359  -8.4744  -4.0328  -3.2947
    -2.7699  -2.6541  -1.9643  -1.5923  -0.3146   0.0411   0.6374   2.8005
     3.4084   3.5852   4.5697   5.2000   5.6932   6.4797   7.6354   7.9764
     8.3905   8.5949   9.1543   9.3263   9.9229  10.0819  10.4399  10.7790
    11.1441  11.3074  11.5500  11.7288  12.0261  12.2532  12.5340  12.8154
    12.9291  13.1241  13.2565  13.3642  13.5951  13.7749  14.0030  14.1911
    14.5686  14.6827  14.9451  15.4671  15.5076  16.0573  16.1180  16.2272
    16.7424  16.8973  17.1976  17.2488  17.3434  17.4718  17.8308  17.8614
    18.1133  18.3046  18.3565  18.6119  18.6872  18.9278  19.4049  19.4849
    19.6521  20.0081  20.1828  20.3479

     occupation numbers 
     1.0000   1.0000   1.0000   1.0000   1.0000   1.0000   1.0000   1.0000
     1.0000   1.0000   1.0000   1.0000   1.0000   1.0000   1.0000   1.0000
     1.0000   1.0000   1.0000   1.0000   1.0000   1.0000   1.0000   1.0000
     1.0000   1.0000   1.0000   1.0000   1.0000   1.0000   1.0000   1.0000
     1.0000   1.0000   1.0000   1.0000   1.0000   1.0000   1.0000   0.0000
     0.0000   0.0000   0.0000   0.0000   0.0000   0.0000   0.0000   0.0000
     0.0000   0.0000   0.0000   0.0000   0.0000   0.0000   0.0000   0.0000
     0.0000   0.0000   0.0000   0.0000   0.0000   0.0000   0.0000   0.0000
     0.0000   0.0000   0.0000   0.0000   0.0000   0.0000   0.0000   0.0000
     0.0000   0.0000   0.0000   0.0000   0.0000   0.0000   0.0000   0.0000
     0.0000   0.0000   0.0000   0.0000   0.0000   0.0000   0.0000   0.0000
     0.0000   0.0000   0.0000   0.0000   0.0000   0.0000   0.0000   0.0000
     0.0000   0.0000   0.0000   0.0000

          k = 0.4615-0.0053 0.0000 ( 24295 PWs)   bands (ev):

   -36.5136 -36.5133 -36.4976 -36.4973 -36.4739 -36.4736 -36.4654 -36.4649
   -36.4528 -36.4524 -36.2236 -36.2172 -36.2085 -36.1673 -36.1649 -29.2014
   -29.2005 -29.1986 -29.1976 -29.1902 -29.1885 -29.1838 -29.1825 -29.1819
   -29.1805 -11.4497 -11.0877 -10.5055  -8.7495  -8.5338  -3.7624  -3.6597
    -2.7324  -2.4372  -2.3205  -1.6017  -0.1916   0.3029   0.4425   3.1872
     3.2400   3.5952   4.7459   5.3051   5.5721   7.2503   7.3877   7.8274
     8.0006   8.4837   8.9331   9.1053   9.9025   9.9337  10.5952  10.8460
    11.0035  11.2409  11.6825  11.7834  11.8823  12.3970  12.4984  12.5878
    12.8814  13.0137  13.2286  13.5504  13.5973  14.0338  14.1862  14.2758
    14.3804  14.6064  14.6804  14.9226  15.4297  15.6186  16.1519  16.6070
    16.8200  17.0776  17.1376  17.2795  17.3142  17.7044  17.9480  18.1383
    18.3401  18.4044  18.7106  19.0296  19.2922  19.4209  19.4892  19.6446
    19.7306  19.8960  20.3252  20.3834

     occupation numbers 
     1.0000   1.0000   1.0000   1.0000   1.0000   1.0000   1.0000   1.0000
     1.0000   1.0000   1.0000   1.0000   1.0000   1.0000   1.0000   1.0000
     1.0000   1.0000   1.0000   1.0000   1.0000   1.0000   1.0000   1.0000
     1.0000   1.0000   1.0000   1.0000   1.0000   1.0000   1.0000   1.0000
     1.0000   1.0000   1.0000   1.0000   1.0000   1.0000   1.0000   0.0000
     0.0000   0.0000   0.0000   0.0000   0.0000   0.0000   0.0000   0.0000
     0.0000   0.0000   0.0000   0.0000   0.0000   0.0000   0.0000   0.0000
     0.0000   0.0000   0.0000   0.0000   0.0000   0.0000   0.0000   0.0000
     0.0000   0.0000   0.0000   0.0000   0.0000   0.0000   0.0000   0.0000
     0.0000   0.0000   0.0000   0.0000   0.0000   0.0000   0.0000   0.0000
     0.0000   0.0000   0.0000   0.0000   0.0000   0.0000   0.0000   0.0000
     0.0000   0.0000   0.0000   0.0000   0.0000   0.0000   0.0000   0.0000
     0.0000   0.0000   0.0000   0.0000

          k = 0.4615 0.0853 0.0000 ( 24293 PWs)   bands (ev):

   -36.5119 -36.5116 -36.5050 -36.5047 -36.4741 -36.4738 -36.4654 -36.4650
   -36.4550 -36.4546 -36.2250 -36.2175 -36.2101 -36.1694 -36.1661 -29.2027
   -29.2018 -29.1987 -29.1977 -29.1909 -29.1900 -29.1820 -29.1811 -29.1716
   -29.1697 -11.4226 -11.0880 -10.5572  -8.8529  -8.4689  -4.0339  -3.2854
    -2.7526  -2.6275  -1.9732  -1.5586  -0.2937   0.0592   0.6862   2.8716
     3.4636   3.5674   4.5968   5.2542   5.6760   6.5174   7.6213   7.9583
     8.3852   8.5002   9.1310   9.2677   9.8694  10.0857  10.4094  10.7370
    11.1553  11.2426  11.5639  11.6755  12.0769  12.3313  12.6295  12.8301
    13.0094  13.2159  13.3031  13.3603  13.5615  13.7692  13.9875  14.1662
    14.5497  14.7283  15.0109  15.4887  15.5145  15.9768  16.0921  16.1967
    16.6658  16.9997  17.1343  17.2450  17.3359  17.4642  17.8146  17.9240
    18.1323  18.3107  18.3770  18.5173  18.6060  18.7894  19.3286  19.4919
    19.5983  20.0485  20.0639  20.2839

     occupation numbers 
     1.0000   1.0000   1.0000   1.0000   1.0000   1.0000   1.0000   1.0000
     1.0000   1.0000   1.0000   1.0000   1.0000   1.0000   1.0000   1.0000
     1.0000   1.0000   1.0000   1.0000   1.0000   1.0000   1.0000   1.0000
     1.0000   1.0000   1.0000   1.0000   1.0000   1.0000   1.0000   1.0000
     1.0000   1.0000   1.0000   1.0000   1.0000   1.0000   1.0000   0.0000
     0.0000   0.0000   0.0000   0.0000   0.0000   0.0000   0.0000   0.0000
     0.0000   0.0000   0.0000   0.0000   0.0000   0.0000   0.0000   0.0000
     0.0000   0.0000   0.0000   0.0000   0.0000   0.0000   0.0000   0.0000
     0.0000   0.0000   0.0000   0.0000   0.0000   0.0000   0.0000   0.0000
     0.0000   0.0000   0.0000   0.0000   0.0000   0.0000   0.0000   0.0000
     0.0000   0.0000   0.0000   0.0000   0.0000   0.0000   0.0000   0.0000
     0.0000   0.0000   0.0000   0.0000   0.0000   0.0000   0.0000   0.0000
     0.0000   0.0000   0.0000   0.0000

          k = 0.4615 0.1759 0.0000 ( 24323 PWs)   bands (ev):

   -36.5122 -36.5118 -36.5037 -36.5034 -36.4719 -36.4715 -36.4676 -36.4672
   -36.4557 -36.4553 -36.2227 -36.2183 -36.2048 -36.1707 -36.1646 -29.2079
   -29.2070 -29.2031 -29.2023 -29.1924 -29.1908 -29.1808 -29.1800 -29.1681
   -29.1660 -11.3210 -11.0593 -10.6546  -9.0030  -8.4175  -4.2569  -2.9819
    -2.7727  -2.4994  -1.8845  -1.3767  -0.3639  -0.0957   0.5542   2.9691
     3.0655   3.4816   4.7346   4.9938   5.7354   5.9986   7.4560   8.1547
     8.4756   9.1492   9.3712   9.4157   9.9659  10.2436  10.5831  10.7292
    11.1241  11.3383  11.7302  11.9271  12.0827  12.3291  12.4207  12.8730
    12.9675  13.0316  13.3712  13.4829  13.8625  14.0971  14.1945  14.5500
    14.6705  14.9653  15.2471  15.4180  15.5404  15.6857  15.9331  16.1898
    16.3796  16.4225  16.5421  16.8543  17.2220  17.3388  17.3988  17.6466
    17.8072  17.9584  18.2976  18.3346  18.5222  18.8400  18.9785  19.2817
    19.3887  19.5774  19.6962  19.9999

     occupation numbers 
     1.0000   1.0000   1.0000   1.0000   1.0000   1.0000   1.0000   1.0000
     1.0000   1.0000   1.0000   1.0000   1.0000   1.0000   1.0000   1.0000
     1.0000   1.0000   1.0000   1.0000   1.0000   1.0000   1.0000   1.0000
     1.0000   1.0000   1.0000   1.0000   1.0000   1.0000   1.0000   1.0000
     1.0000   1.0000   1.0000   1.0000   1.0000   1.0000   1.0000   0.0000
     0.0000   0.0000   0.0000   0.0000   0.0000   0.0000   0.0000   0.0000
     0.0000   0.0000   0.0000   0.0000   0.0000   0.0000   0.0000   0.0000
     0.0000   0.0000   0.0000   0.0000   0.0000   0.0000   0.0000   0.0000
     0.0000   0.0000   0.0000   0.0000   0.0000   0.0000   0.0000   0.0000
     0.0000   0.0000   0.0000   0.0000   0.0000   0.0000   0.0000   0.0000
     0.0000   0.0000   0.0000   0.0000   0.0000   0.0000   0.0000   0.0000
     0.0000   0.0000   0.0000   0.0000   0.0000   0.0000   0.0000   0.0000
     0.0000   0.0000   0.0000   0.0000

     highest occupied, lowest unoccupied level (ev):     0.9231    2.1158

!    total energy              =    -805.33332833 Ry
     estimated scf accuracy    <       0.00000002 Ry

     convergence has been achieved in   4 iterations

     Using ACE for calculation of exact exchange
     ACE projected onto   100 (nbndproj) and applied to   100 (nbnd) bands

!!   total energy              =    -805.33332840 Ry
     Harris-Foulkes estimate   =    -805.33332773 Ry
     est. exchange err (dexx)  =       0.00000007 Ry
     - averaged Fock potential =      22.96469739 Ry
     + Fock energy (ACE)       =     -11.48236107 Ry

     EXX self-consistency reached

     Writing all to output data dir tmp/Sb2Te3-uatsx-c4-2.0.save/ :
     XML data file, charge density, pseudopotentials, collected wavefunctions

     init_run     :      3.01s CPU      3.09s WALL (       1 calls)
     electrons    :    766.49s CPU    775.75s WALL (       6 calls)

     Called by init_run:
     aceinit0     :      0.00s CPU      0.00s WALL (       1 calls)
     wfcinit      :      2.76s CPU      2.82s WALL (       1 calls)
     wfcinit:wfcr :      2.68s CPU      2.74s WALL (      43 calls)
     potinit      :      0.02s CPU      0.02s WALL (       1 calls)
     hinit0       :      0.16s CPU      0.16s WALL (       1 calls)

     Called by electrons:
     c_bands      :    724.22s CPU    732.19s WALL (      40 calls)
     sum_band     :     41.48s CPU     42.35s WALL (      40 calls)
     v_of_rho     :      0.39s CPU      0.40s WALL (      41 calls)
     v_h          :      0.03s CPU      0.03s WALL (      41 calls)
     v_xc         :      0.37s CPU      0.37s WALL (      41 calls)
     mix_rho      :      0.05s CPU      0.05s WALL (      40 calls)
     energy_londo :      0.06s CPU      0.06s WALL (       6 calls)

     Called by c_bands:
     init_us_2    :      0.97s CPU      1.02s WALL (    3483 calls)
     cegterg      :    652.86s CPU    660.17s WALL (    1725 calls)

     Called by sum_band:
     sum_band:wei :      0.00s CPU      0.00s WALL (      40 calls)
     sum_band:loo :     41.35s CPU     42.22s WALL (      40 calls)
     sum_band:buf :      0.55s CPU      0.60s WALL (    1720 calls)
     sum_band:ini :      0.48s CPU      0.51s WALL (    1720 calls)

     Called by *egterg:
     cdiaghg      :    252.83s CPU    253.91s WALL (   17007 calls)
     cegterg:over :     35.17s CPU     35.52s WALL (   15545 calls)
     cegterg:upda :     10.11s CPU     10.23s WALL (   15545 calls)
     cegterg:last :     13.65s CPU     13.77s WALL (    4892 calls)
     h_psi        :    315.21s CPU    320.73s WALL (   17313 calls)
     g_psi        :      1.45s CPU      1.46s WALL (   15545 calls)

     Called by h_psi:
     h_psi:calbec :     17.25s CPU     17.44s WALL (   17313 calls)
     vloc_psi     :    272.87s CPU    277.95s WALL (   17313 calls)
     add_vuspsi   :      4.95s CPU      5.01s WALL (   17313 calls)

     General routines
     calbec       :     35.58s CPU     35.98s WALL (   31104 calls)
     fft          :      0.50s CPU      0.51s WALL (     403 calls)
     ffts         :      0.02s CPU      0.03s WALL (      40 calls)
     fftw         :    299.95s CPU    305.52s WALL ( 1312668 calls)
     fftc         :   2782.06s CPU   2814.07s WALL ( 5160000 calls)
     fftcw        :     27.02s CPU     27.41s WALL (   77400 calls)

     Parallel routines

     EXX routines
     exx_grid     :      0.04s CPU      0.05s WALL (       1 calls)
     exxinit      :    145.58s CPU    147.04s WALL (       6 calls)
     vexx         :   3126.43s CPU   3162.45s WALL (     258 calls)
     matcalc      :     18.48s CPU     18.67s WALL (   13791 calls)
     aceupdate    :      0.25s CPU      0.26s WALL (     258 calls)
     vexxace      :     22.74s CPU     22.98s WALL (   13060 calls)
     aceinit      :   3127.49s CPU   3163.53s WALL (     258 calls)

     PWSCF        :      1h10m CPU      1h11m WALL


   This run was terminated on:   3:43: 2  20May2025            

=------------------------------------------------------------------------------=
   JOB DONE.
=------------------------------------------------------------------------------=
