
     Program PWSCF v.7.3.1 starts on 19May2025 at 23:35:39 

     This program is part of the open-source Quantum ESPRESSO suite
     for quantum simulation of materials; please cite
         "P. Giannozzi et al., J. Phys.:Condens. Matter 21 395502 (2009);
         "P. Giannozzi et al., J. Phys.:Condens. Matter 29 465901 (2017);
         "P. Giannozzi et al., J. Chem. Phys. 152 154105 (2020);
          URL http://www.quantum-espresso.org", 
     in publications or presentations arising from this work. More details at
     http://www.quantum-espresso.org/quote

     Parallel version (MPI & OpenMP), running on     168 processor cores
     Number of MPI processes:               168
     Threads/MPI process:                     1

     MPI processes distributed on     7 nodes
     112945 MiB available memory on the printing compute node when the environment starts

     Waiting for input...
     Reading input from standard input

     Current dimensions of program PWSCF are:
     Max number of different atomic species (ntypx) = 10
     Max number of k-points (npk) =  40000
     Max angular momentum in pseudopotentials (lmaxx) =  4

     IMPORTANT: XC functional enforced from input :
     Exchange-correlation= GAUP
                           (   1   4  20   4   0   0   0)
     EXX-fraction              =        0.24
     Any further DFT definition will be discarded
     Please, verify this is what you really want


     K-points division:     npool     =       2
     R & G space division:  proc/nbgrp/npool/nimage =      84
     Subspace diagonalization in iterative solution of the eigenvalue problem:
     a serial algorithm will be used

     EXX: q-point mesh:     1    1    1
     EXX: setup a grid of 85 q-points centered on each k-point
     (k+q)-points:
   0.0000000   0.0000000   0.0000000         1    1
   0.0000000   0.0887897   0.0000000         2    1
   0.0000000   0.1775795   0.0000000         3    1
   0.0000000   0.2663692   0.0000000         4    1
   0.0000000   0.3551590   0.0000000         5    1
   0.0000000   0.4439487   0.0000000         6    1
   0.0000000   0.5327385   0.0000000         7    1
   0.0769231   0.0443949   0.0000000         8    1
   0.0769231   0.1331846   0.0000000         9    1
   0.0769231   0.2219744   0.0000000        10    1
   0.0769231   0.3107641   0.0000000        11    1
   0.0769231   0.3995538   0.0000000        12    1
   0.0769231   0.4883436   0.0000000        13    1
   0.0769231   0.5771333   0.0000000        14    1
   0.1538462   0.0887897   0.0000000        15    1
   0.1538462   0.1775795   0.0000000        16    1
   0.1538462   0.2663692   0.0000000        17    1
   0.1538462   0.3551590   0.0000000        18    1
   0.1538462   0.4439487   0.0000000        19    1
   0.1538462   0.5327385   0.0000000        20    1
   0.1538462  -0.0000000   0.0000000        21    1
   0.2307692   0.1331846   0.0000000        22    1
   0.2307692   0.2219744   0.0000000        23    1
   0.2307692   0.3107641   0.0000000        24    1
   0.2307692   0.3995538   0.0000000        25    1
   0.2307692   0.4883436   0.0000000        26    1
   0.2307692   0.5771333   0.0000000        27    1
   0.2307692  -0.0443949   0.0000000        28    1
   0.3076923   0.1775795   0.0000000        29    1
   0.3076923   0.2663692   0.0000000        30    1
   0.3076923   0.3551590   0.0000000        31    1
   0.3076923   0.4439487   0.0000000        32    1
   0.3076923   0.5327385   0.0000000        33    1
   0.3076923  -0.0887897   0.0000000        34    1
   0.3076923  -0.0000000   0.0000000        35    1
   0.3846154   0.2219744   0.0000000        36    1
   0.3846154   0.3107641   0.0000000        37    1
   0.3846154   0.3995538   0.0000000        38    1
   0.3846154   0.4883436   0.0000000        39    1
   0.3846154   0.5771333   0.0000000        40    1
   0.3846154  -0.1331846   0.0000000        41    1
   0.3846154  -0.0443949   0.0000000        42    1
   0.4615385   0.2663692   0.0000000        43    1
   0.4615385   0.3551590   0.0000000        44    1
   0.4615385   0.4439487   0.0000000        45    1
   0.4615385   0.5327385   0.0000000        46    1
   0.4615385  -0.1775795   0.0000000        47    1
   0.4615385  -0.0887897   0.0000000        48    1
   0.4615385  -0.0000000   0.0000000        49    1
  -0.0769231   0.0443949   0.0000000        50    1
  -0.0769231   0.1331846   0.0000000        51    1
  -0.0769231   0.2219744   0.0000000        52    1
  -0.0769231   0.3107641   0.0000000        53    1
  -0.0769231   0.3995538   0.0000000        54    1
  -0.0769231   0.4883436   0.0000000        55    1
  -0.1538462   0.0887897   0.0000000        56    1
  -0.1538462   0.1775795   0.0000000        57    1
  -0.1538462   0.2663692   0.0000000        58    1
  -0.1538462   0.3551590   0.0000000        59    1
  -0.1538462   0.4439487   0.0000000        60    1
  -0.1538462   0.5327385   0.0000000        61    1
  -0.2307692   0.1331846   0.0000000        62    1
  -0.2307692   0.2219744   0.0000000        63    1
  -0.2307692   0.3107641   0.0000000        64    1
  -0.2307692   0.3995538   0.0000000        65    1
  -0.2307692   0.4883436   0.0000000        66    1
  -0.2307692  -0.0443949   0.0000000        67    1
  -0.3076923   0.1775795   0.0000000        68    1
  -0.3076923   0.2663692   0.0000000        69    1
  -0.3076923   0.3551590   0.0000000        70    1
  -0.3076923   0.4439487   0.0000000        71    1
  -0.3076923   0.5327385   0.0000000        72    1
  -0.3076923  -0.0887897   0.0000000        73    1
  -0.3846154   0.2219744   0.0000000        74    1
  -0.3846154   0.3107641   0.0000000        75    1
  -0.3846154   0.3995538   0.0000000        76    1
  -0.3846154   0.4883436   0.0000000        77    1
  -0.3846154  -0.1331846   0.0000000        78    1
  -0.3846154  -0.0443949   0.0000000        79    1
  -0.4615385   0.2663692   0.0000000        80    1
  -0.4615385   0.3551590   0.0000000        81    1
  -0.4615385   0.4439487   0.0000000        82    1
  -0.4615385   0.5327385   0.0000000        83    1
  -0.4615385  -0.1775795   0.0000000        84    1
  -0.4615385  -0.0887897   0.0000000        85    1

     Parallelization info
     --------------------
     sticks:   dense  smooth     PW     G-vecs:    dense   smooth      PW
     Min          15      15      4                 2265     2265     336
     Max          16      16      5                 2292     2292     359
     Sum        1285    1285    367               190727   190727   28809

     Using Slab Decomposition



     bravais-lattice index     =            0
     lattice parameter (alat)  =       8.1456  a.u.
     unit-cell volume          =    2407.5243 (a.u.)^3
     number of atoms/cell      =            5
     number of atomic types    =            2
     number of electrons       =        78.00
     number of Kohn-Sham states=          100
     kinetic-energy cutoff     =      70.0000  Ry
     charge density cutoff     =     280.0000  Ry
     cutoff for Fock operator  =     280.0000  Ry
     scf convergence threshold =      1.0E-07
     mixing beta               =       0.7000
     number of iterations used =            8  plain     mixing
     Exchange-correlation= GAUP
                           (   1   4  20   4   0   0   0)
     EXX-fraction              =        0.24

     celldm(1)=   8.145633  celldm(2)=   0.000000  celldm(3)=   0.000000
     celldm(4)=   0.000000  celldm(5)=   0.000000  celldm(6)=   0.000000

     crystal axes: (cart. coord. in units of alat)
               a(1) = (   1.000000   0.000000   0.000000 )  
               a(2) = (  -0.500000   0.866351   0.000000 )  
               a(3) = (   0.000000   0.000000   5.141647 )  

     reciprocal axes: (cart. coord. in units 2 pi/alat)
               b(1) = (  1.000000  0.577133 -0.000000 )  
               b(2) = (  0.000000  1.154267  0.000000 )  
               b(3) = (  0.000000 -0.000000  0.194490 )  


     PseudoPot. # 1 for Sb read from file:
     /zfs-home/202401017n/pseudos/Sb_ONCV_PBE-1.2.upf
     MD5 check sum: 0417cd6c0fe8ce4611e2b23135f1abd9
     Pseudo is Norm-conserving, Zval = 15.0
     Generated using ONCVPSP code by D. R. Hamann
     Using radial grid of  602 points,  6 beta functions with: 
                l(1) =   0
                l(2) =   0
                l(3) =   1
                l(4) =   1
                l(5) =   2
                l(6) =   2

     PseudoPot. # 2 for Te read from file:
     /zfs-home/202401017n/pseudos/Te_ONCV_PBE-1.2.upf
     MD5 check sum: dd4de4dac1e38587f63aaf3700bb29d3
     Pseudo is Norm-conserving, Zval = 16.0
     Generated using ONCVPSP code by D. R. Hamann
     Using radial grid of  602 points,  6 beta functions with: 
                l(1) =   0
                l(2) =   0
                l(3) =   1
                l(4) =   1
                l(5) =   2
                l(6) =   2

     atomic species   valence    mass     pseudopotential
     Sb               15.00   121.76000     Sb( 1.00)
     Te               16.00   127.60000     Te( 1.00)

     No symmetry found


                                    s                        frac. trans.

      isym =  1     identity                                     

 cryst.   s( 1) = (     1          0          0      )
                  (     0          1          0      )
                  (     0          0          1      )

 cart.    s( 1) = (  1.0000000  0.0000000  0.0000000 )
                  (  0.0000000  1.0000000  0.0000000 )
                  (  0.0000000  0.0000000  1.0000000 )


   Cartesian axes

     site n.     atom                  positions (alat units)
         1        Sb     tau(   1) = (   0.5750834   0.4224062   3.0359551  )
         2        Te     tau(   2) = (   0.5751339   0.4221290   1.7103276  )
         3        Sb     tau(   3) = (   0.0749290   0.1335764   2.1056524  )
         4        Te     tau(   4) = (   0.0751535   0.1333230   3.4312869  )
         5        Te     tau(   5) = (   0.0751717   0.7108473   2.5707967  )

     -------------------------------------------------
     Parameters for Dispersion (Grimme-D2) Correction:
     -------------------------------------------------
       atom      VdW radius       C_6     

        Sb         3.555       1333.532
        Te         3.575       1101.101

   Crystallographic axes

     site n.     atom                  positions (cryst. coord.)
         1        Sb     tau(   1) = (  0.8188681  0.4875694  0.5904636  )
         2        Te     tau(   2) = (  0.8187586  0.4872494  0.3326420  )
         3        Sb     tau(   3) = (  0.1520204  0.1541827  0.4095288  )
         4        Te     tau(   4) = (  0.1520986  0.1538903  0.6673517  )
         5        Te     tau(   5) = (  0.4854254  0.8205074  0.4999948  )

     number of k points=    85
                       cart. coord. in units 2pi/alat
        k(    1) = (   0.0000000   0.0000000   0.0000000), wk =   0.0118343
        k(    2) = (   0.0000000   0.0887897   0.0000000), wk =   0.0236686
        k(    3) = (   0.0000000   0.1775795   0.0000000), wk =   0.0236686
        k(    4) = (   0.0000000   0.2663692   0.0000000), wk =   0.0236686
        k(    5) = (   0.0000000   0.3551590   0.0000000), wk =   0.0236686
        k(    6) = (   0.0000000   0.4439487   0.0000000), wk =   0.0236686
        k(    7) = (   0.0000000   0.5327385   0.0000000), wk =   0.0236686
        k(    8) = (   0.0769231   0.0443949   0.0000000), wk =   0.0236686
        k(    9) = (   0.0769231   0.1331846   0.0000000), wk =   0.0236686
        k(   10) = (   0.0769231   0.2219744   0.0000000), wk =   0.0236686
        k(   11) = (   0.0769231   0.3107641   0.0000000), wk =   0.0236686
        k(   12) = (   0.0769231   0.3995538   0.0000000), wk =   0.0236686
        k(   13) = (   0.0769231   0.4883436   0.0000000), wk =   0.0236686
        k(   14) = (   0.0769231   0.5771333   0.0000000), wk =   0.0236686
        k(   15) = (   0.1538462   0.0887897   0.0000000), wk =   0.0236686
        k(   16) = (   0.1538462   0.1775795   0.0000000), wk =   0.0236686
        k(   17) = (   0.1538462   0.2663692   0.0000000), wk =   0.0236686
        k(   18) = (   0.1538462   0.3551590   0.0000000), wk =   0.0236686
        k(   19) = (   0.1538462   0.4439487   0.0000000), wk =   0.0236686
        k(   20) = (   0.1538462   0.5327385   0.0000000), wk =   0.0236686
        k(   21) = (   0.1538462  -0.0000000   0.0000000), wk =   0.0236686
        k(   22) = (   0.2307692   0.1331846   0.0000000), wk =   0.0236686
        k(   23) = (   0.2307692   0.2219744   0.0000000), wk =   0.0236686
        k(   24) = (   0.2307692   0.3107641   0.0000000), wk =   0.0236686
        k(   25) = (   0.2307692   0.3995538   0.0000000), wk =   0.0236686
        k(   26) = (   0.2307692   0.4883436   0.0000000), wk =   0.0236686
        k(   27) = (   0.2307692   0.5771333   0.0000000), wk =   0.0236686
        k(   28) = (   0.2307692  -0.0443949   0.0000000), wk =   0.0236686
        k(   29) = (   0.3076923   0.1775795   0.0000000), wk =   0.0236686
        k(   30) = (   0.3076923   0.2663692   0.0000000), wk =   0.0236686
        k(   31) = (   0.3076923   0.3551590   0.0000000), wk =   0.0236686
        k(   32) = (   0.3076923   0.4439487   0.0000000), wk =   0.0236686
        k(   33) = (   0.3076923   0.5327385   0.0000000), wk =   0.0236686
        k(   34) = (   0.3076923  -0.0887897   0.0000000), wk =   0.0236686
        k(   35) = (   0.3076923  -0.0000000   0.0000000), wk =   0.0236686
        k(   36) = (   0.3846154   0.2219744   0.0000000), wk =   0.0236686
        k(   37) = (   0.3846154   0.3107641   0.0000000), wk =   0.0236686
        k(   38) = (   0.3846154   0.3995538   0.0000000), wk =   0.0236686
        k(   39) = (   0.3846154   0.4883436   0.0000000), wk =   0.0236686
        k(   40) = (   0.3846154   0.5771333   0.0000000), wk =   0.0236686
        k(   41) = (   0.3846154  -0.1331846   0.0000000), wk =   0.0236686
        k(   42) = (   0.3846154  -0.0443949   0.0000000), wk =   0.0236686
        k(   43) = (   0.4615385   0.2663692   0.0000000), wk =   0.0236686
        k(   44) = (   0.4615385   0.3551590   0.0000000), wk =   0.0236686
        k(   45) = (   0.4615385   0.4439487   0.0000000), wk =   0.0236686
        k(   46) = (   0.4615385   0.5327385   0.0000000), wk =   0.0236686
        k(   47) = (   0.4615385  -0.1775795   0.0000000), wk =   0.0236686
        k(   48) = (   0.4615385  -0.0887897   0.0000000), wk =   0.0236686
        k(   49) = (   0.4615385  -0.0000000   0.0000000), wk =   0.0236686
        k(   50) = (  -0.0769231   0.0443949   0.0000000), wk =   0.0236686
        k(   51) = (  -0.0769231   0.1331846   0.0000000), wk =   0.0236686
        k(   52) = (  -0.0769231   0.2219744   0.0000000), wk =   0.0236686
        k(   53) = (  -0.0769231   0.3107641   0.0000000), wk =   0.0236686
        k(   54) = (  -0.0769231   0.3995538   0.0000000), wk =   0.0236686
        k(   55) = (  -0.0769231   0.4883436   0.0000000), wk =   0.0236686
        k(   56) = (  -0.1538462   0.0887897   0.0000000), wk =   0.0236686
        k(   57) = (  -0.1538462   0.1775795   0.0000000), wk =   0.0236686
        k(   58) = (  -0.1538462   0.2663692   0.0000000), wk =   0.0236686
        k(   59) = (  -0.1538462   0.3551590   0.0000000), wk =   0.0236686
        k(   60) = (  -0.1538462   0.4439487   0.0000000), wk =   0.0236686
        k(   61) = (  -0.1538462   0.5327385   0.0000000), wk =   0.0236686
        k(   62) = (  -0.2307692   0.1331846   0.0000000), wk =   0.0236686
        k(   63) = (  -0.2307692   0.2219744   0.0000000), wk =   0.0236686
        k(   64) = (  -0.2307692   0.3107641   0.0000000), wk =   0.0236686
        k(   65) = (  -0.2307692   0.3995538   0.0000000), wk =   0.0236686
        k(   66) = (  -0.2307692   0.4883436   0.0000000), wk =   0.0236686
        k(   67) = (  -0.2307692  -0.0443949   0.0000000), wk =   0.0236686
        k(   68) = (  -0.3076923   0.1775795   0.0000000), wk =   0.0236686
        k(   69) = (  -0.3076923   0.2663692   0.0000000), wk =   0.0236686
        k(   70) = (  -0.3076923   0.3551590   0.0000000), wk =   0.0236686
        k(   71) = (  -0.3076923   0.4439487   0.0000000), wk =   0.0236686
        k(   72) = (  -0.3076923   0.5327385   0.0000000), wk =   0.0236686
        k(   73) = (  -0.3076923  -0.0887897   0.0000000), wk =   0.0236686
        k(   74) = (  -0.3846154   0.2219744   0.0000000), wk =   0.0236686
        k(   75) = (  -0.3846154   0.3107641   0.0000000), wk =   0.0236686
        k(   76) = (  -0.3846154   0.3995538   0.0000000), wk =   0.0236686
        k(   77) = (  -0.3846154   0.4883436   0.0000000), wk =   0.0236686
        k(   78) = (  -0.3846154  -0.1331846   0.0000000), wk =   0.0236686
        k(   79) = (  -0.3846154  -0.0443949   0.0000000), wk =   0.0236686
        k(   80) = (  -0.4615385   0.2663692   0.0000000), wk =   0.0236686
        k(   81) = (  -0.4615385   0.3551590   0.0000000), wk =   0.0236686
        k(   82) = (  -0.4615385   0.4439487   0.0000000), wk =   0.0236686
        k(   83) = (  -0.4615385   0.5327385   0.0000000), wk =   0.0236686
        k(   84) = (  -0.4615385  -0.1775795   0.0000000), wk =   0.0236686
        k(   85) = (  -0.4615385  -0.0887897   0.0000000), wk =   0.0236686

                       cryst. coord.
        k(    1) = (   0.0000000   0.0000000   0.0000000), wk =   0.0118343
        k(    2) = (   0.0000000   0.0769231   0.0000000), wk =   0.0236686
        k(    3) = (   0.0000000   0.1538462   0.0000000), wk =   0.0236686
        k(    4) = (   0.0000000   0.2307692   0.0000000), wk =   0.0236686
        k(    5) = (   0.0000000   0.3076923   0.0000000), wk =   0.0236686
        k(    6) = (   0.0000000   0.3846154   0.0000000), wk =   0.0236686
        k(    7) = (   0.0000000   0.4615385   0.0000000), wk =   0.0236686
        k(    8) = (   0.0769231   0.0000000   0.0000000), wk =   0.0236686
        k(    9) = (   0.0769231   0.0769231   0.0000000), wk =   0.0236686
        k(   10) = (   0.0769231   0.1538462   0.0000000), wk =   0.0236686
        k(   11) = (   0.0769231   0.2307692   0.0000000), wk =   0.0236686
        k(   12) = (   0.0769231   0.3076923   0.0000000), wk =   0.0236686
        k(   13) = (   0.0769231   0.3846154   0.0000000), wk =   0.0236686
        k(   14) = (   0.0769231   0.4615385   0.0000000), wk =   0.0236686
        k(   15) = (   0.1538462   0.0000000   0.0000000), wk =   0.0236686
        k(   16) = (   0.1538462   0.0769231   0.0000000), wk =   0.0236686
        k(   17) = (   0.1538462   0.1538462   0.0000000), wk =   0.0236686
        k(   18) = (   0.1538462   0.2307692   0.0000000), wk =   0.0236686
        k(   19) = (   0.1538462   0.3076923   0.0000000), wk =   0.0236686
        k(   20) = (   0.1538462   0.3846154   0.0000000), wk =   0.0236686
        k(   21) = (   0.1538462  -0.0769231   0.0000000), wk =   0.0236686
        k(   22) = (   0.2307692   0.0000000   0.0000000), wk =   0.0236686
        k(   23) = (   0.2307692   0.0769231   0.0000000), wk =   0.0236686
        k(   24) = (   0.2307692   0.1538462   0.0000000), wk =   0.0236686
        k(   25) = (   0.2307692   0.2307692   0.0000000), wk =   0.0236686
        k(   26) = (   0.2307692   0.3076923   0.0000000), wk =   0.0236686
        k(   27) = (   0.2307692   0.3846154   0.0000000), wk =   0.0236686
        k(   28) = (   0.2307692  -0.1538462   0.0000000), wk =   0.0236686
        k(   29) = (   0.3076923   0.0000000   0.0000000), wk =   0.0236686
        k(   30) = (   0.3076923   0.0769231   0.0000000), wk =   0.0236686
        k(   31) = (   0.3076923   0.1538462   0.0000000), wk =   0.0236686
        k(   32) = (   0.3076923   0.2307692   0.0000000), wk =   0.0236686
        k(   33) = (   0.3076923   0.3076923   0.0000000), wk =   0.0236686
        k(   34) = (   0.3076923  -0.2307692   0.0000000), wk =   0.0236686
        k(   35) = (   0.3076923  -0.1538462   0.0000000), wk =   0.0236686
        k(   36) = (   0.3846154   0.0000000   0.0000000), wk =   0.0236686
        k(   37) = (   0.3846154   0.0769231   0.0000000), wk =   0.0236686
        k(   38) = (   0.3846154   0.1538462   0.0000000), wk =   0.0236686
        k(   39) = (   0.3846154   0.2307692   0.0000000), wk =   0.0236686
        k(   40) = (   0.3846154   0.3076923   0.0000000), wk =   0.0236686
        k(   41) = (   0.3846154  -0.3076923   0.0000000), wk =   0.0236686
        k(   42) = (   0.3846154  -0.2307692   0.0000000), wk =   0.0236686
        k(   43) = (   0.4615385   0.0000000   0.0000000), wk =   0.0236686
        k(   44) = (   0.4615385   0.0769231   0.0000000), wk =   0.0236686
        k(   45) = (   0.4615385   0.1538462   0.0000000), wk =   0.0236686
        k(   46) = (   0.4615385   0.2307692   0.0000000), wk =   0.0236686
        k(   47) = (   0.4615385  -0.3846154   0.0000000), wk =   0.0236686
        k(   48) = (   0.4615385  -0.3076923   0.0000000), wk =   0.0236686
        k(   49) = (   0.4615385  -0.2307692   0.0000000), wk =   0.0236686
        k(   50) = (  -0.0769231   0.0769231   0.0000000), wk =   0.0236686
        k(   51) = (  -0.0769231   0.1538462   0.0000000), wk =   0.0236686
        k(   52) = (  -0.0769231   0.2307692   0.0000000), wk =   0.0236686
        k(   53) = (  -0.0769231   0.3076923   0.0000000), wk =   0.0236686
        k(   54) = (  -0.0769231   0.3846154   0.0000000), wk =   0.0236686
        k(   55) = (  -0.0769231   0.4615385   0.0000000), wk =   0.0236686
        k(   56) = (  -0.1538462   0.1538462   0.0000000), wk =   0.0236686
        k(   57) = (  -0.1538462   0.2307692   0.0000000), wk =   0.0236686
        k(   58) = (  -0.1538462   0.3076923   0.0000000), wk =   0.0236686
        k(   59) = (  -0.1538462   0.3846154   0.0000000), wk =   0.0236686
        k(   60) = (  -0.1538462   0.4615385   0.0000000), wk =   0.0236686
        k(   61) = (  -0.1538462   0.5384615   0.0000000), wk =   0.0236686
        k(   62) = (  -0.2307692   0.2307692   0.0000000), wk =   0.0236686
        k(   63) = (  -0.2307692   0.3076923   0.0000000), wk =   0.0236686
        k(   64) = (  -0.2307692   0.3846154   0.0000000), wk =   0.0236686
        k(   65) = (  -0.2307692   0.4615385   0.0000000), wk =   0.0236686
        k(   66) = (  -0.2307692   0.5384615   0.0000000), wk =   0.0236686
        k(   67) = (  -0.2307692   0.0769231   0.0000000), wk =   0.0236686
        k(   68) = (  -0.3076923   0.3076923   0.0000000), wk =   0.0236686
        k(   69) = (  -0.3076923   0.3846154   0.0000000), wk =   0.0236686
        k(   70) = (  -0.3076923   0.4615385   0.0000000), wk =   0.0236686
        k(   71) = (  -0.3076923   0.5384615   0.0000000), wk =   0.0236686
        k(   72) = (  -0.3076923   0.6153846   0.0000000), wk =   0.0236686
        k(   73) = (  -0.3076923   0.0769231   0.0000000), wk =   0.0236686
        k(   74) = (  -0.3846154   0.3846154   0.0000000), wk =   0.0236686
        k(   75) = (  -0.3846154   0.4615385   0.0000000), wk =   0.0236686
        k(   76) = (  -0.3846154   0.5384615   0.0000000), wk =   0.0236686
        k(   77) = (  -0.3846154   0.6153846   0.0000000), wk =   0.0236686
        k(   78) = (  -0.3846154   0.0769231   0.0000000), wk =   0.0236686
        k(   79) = (  -0.3846154   0.1538462   0.0000000), wk =   0.0236686
        k(   80) = (  -0.4615385   0.4615385   0.0000000), wk =   0.0236686
        k(   81) = (  -0.4615385   0.5384615   0.0000000), wk =   0.0236686
        k(   82) = (  -0.4615385   0.6153846   0.0000000), wk =   0.0236686
        k(   83) = (  -0.4615385   0.6923077   0.0000000), wk =   0.0236686
        k(   84) = (  -0.4615385   0.0769231   0.0000000), wk =   0.0236686
        k(   85) = (  -0.4615385   0.1538462   0.0000000), wk =   0.0236686

     Dense  grid:   190727 G-vectors     FFT dimensions: (  45,  45, 225)

     Dynamical RAM for                 wfc:       0.43 MB

     Dynamical RAM for     wfc (w. buffer):      19.00 MB

     Dynamical RAM for                 EXX:     618.52 MB

     Dynamical RAM for           str. fact:       0.07 MB

     Dynamical RAM for           local pot:       0.00 MB

     Dynamical RAM for          nlocal pot:       0.39 MB

     Dynamical RAM for                qrad:       2.83 MB

     Dynamical RAM for          rho,v,vnew:       0.24 MB

     Dynamical RAM for               rhoin:       0.08 MB

     Dynamical RAM for            rho*nmix:       0.56 MB

     Dynamical RAM for           G-vectors:       0.15 MB

     Dynamical RAM for          h,s,v(r/c):       1.83 MB

     Dynamical RAM for          <psi|beta>:       0.14 MB

     Dynamical RAM for                 psi:       0.86 MB

     Dynamical RAM for                hpsi:       0.86 MB

     Dynamical RAM for      wfcinit/wfcrot:       1.09 MB

     Estimated static dynamical RAM per process >     641.61 MB

     Estimated max dynamical RAM per process >     645.87 MB

     Estimated total dynamical RAM >     105.92 GB
     EXX: ACE will be initialized later

     Initial potential from superposition of free atoms

     starting charge      77.7638, renormalised to      78.0000

     negative rho (up, down):  6.570E-04 0.000E+00
     Starting wfcs are random

     total cpu time spent up to now is        4.3 secs

     Self-consistent Calculation

     iteration #  1     ecut=    70.00 Ry     beta= 0.70
     Davidson diagonalization with overlap

---- Real-time Memory Report at c_bands before calling an iterative solver
           210 MiB given to the printing process from OS
             0 MiB allocation reported by mallinfo(arena+hblkhd)
        112290 MiB available memory on the node where the printing process lives
------------------
     ethr =  1.00E-02,  avg # of iterations =  9.1

     Threshold (ethr) on eigenvalues was too large:
     Diagonalizing with lowered threshold

     Davidson diagonalization with overlap

---- Real-time Memory Report at c_bands before calling an iterative solver
           215 MiB given to the printing process from OS
             0 MiB allocation reported by mallinfo(arena+hblkhd)
        112198 MiB available memory on the node where the printing process lives
------------------
     ethr =  1.16E-04,  avg # of iterations =  9.9

     negative rho (up, down):  5.511E-05 0.000E+00

     total cpu time spent up to now is       53.8 secs

     total energy              =    -806.58902476 Ry
     estimated scf accuracy    <       0.07999380 Ry

     iteration #  2     ecut=    70.00 Ry     beta= 0.70
     Davidson diagonalization with overlap

---- Real-time Memory Report at c_bands before calling an iterative solver
           215 MiB given to the printing process from OS
             0 MiB allocation reported by mallinfo(arena+hblkhd)
        112198 MiB available memory on the node where the printing process lives
------------------
     ethr =  1.03E-04,  avg # of iterations = 10.6

     negative rho (up, down):  4.424E-05 0.000E+00

     total cpu time spent up to now is       72.9 secs

     total energy              =    -806.53442989 Ry
     estimated scf accuracy    <       0.47570714 Ry

     iteration #  3     ecut=    70.00 Ry     beta= 0.70
     Davidson diagonalization with overlap

---- Real-time Memory Report at c_bands before calling an iterative solver
           216 MiB given to the printing process from OS
             0 MiB allocation reported by mallinfo(arena+hblkhd)
        112185 MiB available memory on the node where the printing process lives
------------------
     ethr =  1.03E-04,  avg # of iterations =  9.7

     negative rho (up, down):  2.730E-05 0.000E+00

     total cpu time spent up to now is       91.7 secs

     total energy              =    -806.59433601 Ry
     estimated scf accuracy    <       0.27829355 Ry

     iteration #  4     ecut=    70.00 Ry     beta= 0.70
     Davidson diagonalization with overlap

---- Real-time Memory Report at c_bands before calling an iterative solver
           216 MiB given to the printing process from OS
             0 MiB allocation reported by mallinfo(arena+hblkhd)
        112185 MiB available memory on the node where the printing process lives
------------------
     ethr =  1.03E-04,  avg # of iterations =  5.9

     negative rho (up, down):  3.408E-06 0.000E+00

     total cpu time spent up to now is      105.6 secs

     total energy              =    -806.62282100 Ry
     estimated scf accuracy    <       0.00250447 Ry

     iteration #  5     ecut=    70.00 Ry     beta= 0.70
     Davidson diagonalization with overlap

---- Real-time Memory Report at c_bands before calling an iterative solver
           216 MiB given to the printing process from OS
             0 MiB allocation reported by mallinfo(arena+hblkhd)
        112185 MiB available memory on the node where the printing process lives
------------------
     ethr =  3.21E-06,  avg # of iterations =  8.7

     negative rho (up, down):  2.376E-07 0.000E+00

     total cpu time spent up to now is      123.9 secs

     total energy              =    -806.62317120 Ry
     estimated scf accuracy    <       0.00012734 Ry

     iteration #  6     ecut=    70.00 Ry     beta= 0.70
     Davidson diagonalization with overlap

---- Real-time Memory Report at c_bands before calling an iterative solver
           216 MiB given to the printing process from OS
             0 MiB allocation reported by mallinfo(arena+hblkhd)
        112183 MiB available memory on the node where the printing process lives
------------------
     ethr =  1.63E-07,  avg # of iterations = 10.9

     negative rho (up, down):  1.729E-08 0.000E+00

     total cpu time spent up to now is      144.3 secs

     total energy              =    -806.62293750 Ry
     estimated scf accuracy    <       0.00491105 Ry

     iteration #  7     ecut=    70.00 Ry     beta= 0.70
     Davidson diagonalization with overlap

---- Real-time Memory Report at c_bands before calling an iterative solver
           216 MiB given to the printing process from OS
             0 MiB allocation reported by mallinfo(arena+hblkhd)
        112181 MiB available memory on the node where the printing process lives
------------------
     c_bands:  1 eigenvalues not converged
     c_bands:  1 eigenvalues not converged
     c_bands:  1 eigenvalues not converged
     ethr =  1.63E-07,  avg # of iterations = 10.8

     total cpu time spent up to now is      163.7 secs

     total energy              =    -806.62322808 Ry
     estimated scf accuracy    <       0.00003645 Ry

     iteration #  8     ecut=    70.00 Ry     beta= 0.70
     Davidson diagonalization with overlap

---- Real-time Memory Report at c_bands before calling an iterative solver
           216 MiB given to the printing process from OS
             0 MiB allocation reported by mallinfo(arena+hblkhd)
        112179 MiB available memory on the node where the printing process lives
------------------
     c_bands:  1 eigenvalues not converged
     c_bands:  1 eigenvalues not converged
     ethr =  4.67E-08,  avg # of iterations =  7.8

     total cpu time spent up to now is      178.1 secs

     total energy              =    -806.62323119 Ry
     estimated scf accuracy    <       0.00000014 Ry

     iteration #  9     ecut=    70.00 Ry     beta= 0.70
     Davidson diagonalization with overlap

---- Real-time Memory Report at c_bands before calling an iterative solver
           216 MiB given to the printing process from OS
             0 MiB allocation reported by mallinfo(arena+hblkhd)
        112177 MiB available memory on the node where the printing process lives
------------------
     ethr =  1.82E-10,  avg # of iterations = 10.3

     total cpu time spent up to now is      199.9 secs

     End of self-consistent calculation

          k = 0.0000 0.0000 0.0000 ( 23771 PWs)   bands (ev):

   -34.5613 -34.5613 -34.5612 -34.5611 -34.5352 -34.5351 -34.5348 -34.5347
   -34.5255 -34.5254 -34.4472 -34.4348 -34.4347 -34.3945 -34.3945 -27.3109
   -27.3109 -27.3106 -27.3105 -27.3019 -27.3014 -27.2986 -27.2986 -27.2982
   -27.2982 -10.5763 -10.0533  -8.9634  -6.2010  -4.7685  -0.1246   0.4047
     0.4060   0.6141   0.6162   0.9232   1.2172   1.2188   1.5045   2.5756
     3.0034   3.0054   4.0432   4.0473   4.0480   6.3233   6.5269   7.0568
     7.7653   7.8851   7.8896   8.5249   8.8053   8.9642   9.1740   9.1784
     9.8221   9.8250  10.1410  10.2811  10.6585  11.3502  11.3543  11.6373
    11.7708  11.7740  12.8874  13.0098  14.1711  14.1748  14.3856  14.3887
    14.5220  15.2502  16.0994  16.1034  16.1903  16.4172  16.4208  16.4873
    16.8808  17.3615  17.4911  17.4950  17.5466  17.6628  17.6665  17.8867
    17.8906  17.9075  17.9330  17.9366  18.1331  18.4012  19.4002  19.4041
    19.4576  19.4826  19.4864  19.7175

     occupation numbers 
     1.0000   1.0000   1.0000   1.0000   1.0000   1.0000   1.0000   1.0000
     1.0000   1.0000   1.0000   1.0000   1.0000   1.0000   1.0000   1.0000
     1.0000   1.0000   1.0000   1.0000   1.0000   1.0000   1.0000   1.0000
     1.0000   1.0000   1.0000   1.0000   1.0000   1.0000   1.0000   1.0000
     1.0000   1.0000   1.0000   1.0000   1.0000   1.0000   1.0000   0.0000
     0.0000   0.0000   0.0000   0.0000   0.0000   0.0000   0.0000   0.0000
     0.0000   0.0000   0.0000   0.0000   0.0000   0.0000   0.0000   0.0000
     0.0000   0.0000   0.0000   0.0000   0.0000   0.0000   0.0000   0.0000
     0.0000   0.0000   0.0000   0.0000   0.0000   0.0000   0.0000   0.0000
     0.0000   0.0000   0.0000   0.0000   0.0000   0.0000   0.0000   0.0000
     0.0000   0.0000   0.0000   0.0000   0.0000   0.0000   0.0000   0.0000
     0.0000   0.0000   0.0000   0.0000   0.0000   0.0000   0.0000   0.0000
     0.0000   0.0000   0.0000   0.0000

          k = 0.0000 0.0888 0.0000 ( 23755 PWs)   bands (ev):

   -34.5613 -34.5612 -34.5612 -34.5611 -34.5352 -34.5352 -34.5349 -34.5347
   -34.5255 -34.5254 -34.4471 -34.4348 -34.4347 -34.3945 -34.3944 -27.3109
   -27.3107 -27.3105 -27.3103 -27.3018 -27.3013 -27.2988 -27.2986 -27.2984
   -27.2982 -10.5243 -10.0053  -8.9330  -6.2048  -4.8504  -0.2919  -0.0159
     0.2139   0.2417   0.5417   0.6927   1.2727   1.3674   1.8368   2.7157
     3.1003   3.1358   3.9293   4.1407   4.4271   6.4160   6.5517   7.0632
     7.5585   7.7843   7.9997   8.6086   8.7468   8.8913   9.1621   9.3105
     9.8556  10.0303  10.4020  10.5753  10.9513  11.0948  11.1526  11.5127
    12.1956  12.3353  12.9172  13.1473  13.6265  13.7711  14.4839  14.7779
    14.8091  15.1478  15.7065  15.7602  16.0381  16.2608  16.3686  16.5427
    16.7598  16.8038  17.0626  17.1276  17.2408  17.2629  17.6185  17.9983
    18.2518  18.3448  18.4015  18.6190  18.7249  18.7986  18.8401  19.0770
    19.0866  19.2188  19.3665  19.6630

     occupation numbers 
     1.0000   1.0000   1.0000   1.0000   1.0000   1.0000   1.0000   1.0000
     1.0000   1.0000   1.0000   1.0000   1.0000   1.0000   1.0000   1.0000
     1.0000   1.0000   1.0000   1.0000   1.0000   1.0000   1.0000   1.0000
     1.0000   1.0000   1.0000   1.0000   1.0000   1.0000   1.0000   1.0000
     1.0000   1.0000   1.0000   1.0000   1.0000   1.0000   1.0000   0.0000
     0.0000   0.0000   0.0000   0.0000   0.0000   0.0000   0.0000   0.0000
     0.0000   0.0000   0.0000   0.0000   0.0000   0.0000   0.0000   0.0000
     0.0000   0.0000   0.0000   0.0000   0.0000   0.0000   0.0000   0.0000
     0.0000   0.0000   0.0000   0.0000   0.0000   0.0000   0.0000   0.0000
     0.0000   0.0000   0.0000   0.0000   0.0000   0.0000   0.0000   0.0000
     0.0000   0.0000   0.0000   0.0000   0.0000   0.0000   0.0000   0.0000
     0.0000   0.0000   0.0000   0.0000   0.0000   0.0000   0.0000   0.0000
     0.0000   0.0000   0.0000   0.0000

          k = 0.0000 0.1776 0.0000 ( 23741 PWs)   bands (ev):

   -34.5613 -34.5612 -34.5610 -34.5608 -34.5353 -34.5352 -34.5349 -34.5347
   -34.5254 -34.5253 -34.4470 -34.4348 -34.4347 -34.3945 -34.3942 -27.3110
   -27.3106 -27.3100 -27.3097 -27.3014 -27.3010 -27.2994 -27.2988 -27.2988
   -27.2982 -10.3698  -9.8639  -8.8476  -6.2305  -5.0962  -1.0339  -0.4002
    -0.2209  -0.1430   0.2805   0.3158   1.3075   1.4682   1.7862   2.9999
     3.3185   3.5267   4.2215   4.3888   4.8672   6.4757   6.6547   6.9525
     7.5136   7.8337   8.3061   8.4902   8.7253   8.9514   9.3542   9.6716
     9.8202  10.2345  10.6716  10.9556  11.3232  11.3760  11.7305  11.9481
    12.4231  12.5656  12.9720  13.4041  13.5922  13.7437  14.0474  14.6161
    14.7036  14.9155  15.1056  15.5279  15.7820  16.0675  16.2114  16.2337
    16.5783  16.6243  16.6358  16.7520  17.0206  17.3024  17.8505  17.9905
    18.2135  18.3720  18.3983  18.4993  18.7001  19.3087  19.4717  19.5350
    19.6771  19.7668  19.8758  20.0809

     occupation numbers 
     1.0000   1.0000   1.0000   1.0000   1.0000   1.0000   1.0000   1.0000
     1.0000   1.0000   1.0000   1.0000   1.0000   1.0000   1.0000   1.0000
     1.0000   1.0000   1.0000   1.0000   1.0000   1.0000   1.0000   1.0000
     1.0000   1.0000   1.0000   1.0000   1.0000   1.0000   1.0000   1.0000
     1.0000   1.0000   1.0000   1.0000   1.0000   1.0000   1.0000   0.0000
     0.0000   0.0000   0.0000   0.0000   0.0000   0.0000   0.0000   0.0000
     0.0000   0.0000   0.0000   0.0000   0.0000   0.0000   0.0000   0.0000
     0.0000   0.0000   0.0000   0.0000   0.0000   0.0000   0.0000   0.0000
     0.0000   0.0000   0.0000   0.0000   0.0000   0.0000   0.0000   0.0000
     0.0000   0.0000   0.0000   0.0000   0.0000   0.0000   0.0000   0.0000
     0.0000   0.0000   0.0000   0.0000   0.0000   0.0000   0.0000   0.0000
     0.0000   0.0000   0.0000   0.0000   0.0000   0.0000   0.0000   0.0000
     0.0000   0.0000   0.0000   0.0000

          k = 0.0000 0.2664 0.0000 ( 23781 PWs)   bands (ev):

   -34.5612 -34.5611 -34.5607 -34.5605 -34.5353 -34.5353 -34.5350 -34.5347
   -34.5252 -34.5251 -34.4468 -34.4349 -34.4347 -34.3944 -34.3938 -27.3111
   -27.3107 -27.3091 -27.3088 -27.3010 -27.3005 -27.3001 -27.2994 -27.2990
   -27.2982 -10.1184  -9.6384  -8.7259  -6.3202  -5.4843  -1.7720  -0.9010
    -0.6724  -0.4987   0.0396   0.2916   0.8523   1.2510   1.8690   3.0163
     3.5266   3.9208   4.5978   4.7120   5.3365   6.0992   6.9115   7.1830
     7.7351   8.1159   8.4371   8.8124   8.8444   9.1268   9.8410   9.9273
    10.0817  10.4004  10.6340  11.4357  11.7762  12.1032  12.1818  12.3942
    12.4550  12.6773  13.1551  13.3175  13.4514  13.7986  14.2116  14.4390
    14.4901  14.8645  14.9965  15.4020  15.4533  15.7225  15.9275  15.9530
    16.2316  16.3419  16.5223  17.0323  17.3614  17.5970  17.8024  17.8254
    17.8826  18.2175  18.4453  18.4840  18.6452  18.8032  19.0751  19.1394
    19.2302  19.6524  20.1350  20.1694

     occupation numbers 
     1.0000   1.0000   1.0000   1.0000   1.0000   1.0000   1.0000   1.0000
     1.0000   1.0000   1.0000   1.0000   1.0000   1.0000   1.0000   1.0000
     1.0000   1.0000   1.0000   1.0000   1.0000   1.0000   1.0000   1.0000
     1.0000   1.0000   1.0000   1.0000   1.0000   1.0000   1.0000   1.0000
     1.0000   1.0000   1.0000   1.0000   1.0000   1.0000   1.0000   0.0000
     0.0000   0.0000   0.0000   0.0000   0.0000   0.0000   0.0000   0.0000
     0.0000   0.0000   0.0000   0.0000   0.0000   0.0000   0.0000   0.0000
     0.0000   0.0000   0.0000   0.0000   0.0000   0.0000   0.0000   0.0000
     0.0000   0.0000   0.0000   0.0000   0.0000   0.0000   0.0000   0.0000
     0.0000   0.0000   0.0000   0.0000   0.0000   0.0000   0.0000   0.0000
     0.0000   0.0000   0.0000   0.0000   0.0000   0.0000   0.0000   0.0000
     0.0000   0.0000   0.0000   0.0000   0.0000   0.0000   0.0000   0.0000
     0.0000   0.0000   0.0000   0.0000

          k = 0.0000 0.3552 0.0000 ( 23839 PWs)   bands (ev):

   -34.5612 -34.5611 -34.5603 -34.5601 -34.5354 -34.5353 -34.5350 -34.5347
   -34.5250 -34.5249 -34.4467 -34.4350 -34.4348 -34.3944 -34.3935 -27.3113
   -27.3109 -27.3081 -27.3078 -27.3010 -27.3007 -27.3000 -27.2997 -27.2992
   -27.2982  -9.7821  -9.3496  -8.6060  -6.5290  -5.9349  -2.3395  -1.4066
    -0.8697  -0.7936  -0.2092   0.1322   0.5768   1.1485   1.5910   3.0854
     3.6457   3.9481   4.7966   5.0155   5.7200   5.8157   7.1692   7.4781
     7.9513   8.5883   8.7371   9.2252   9.5637   9.5694   9.9768  10.3907
    10.3934  10.8109  10.9565  11.2058  11.8580  12.1580  12.2783  12.3713
    12.7870  12.9191  13.1825  13.2439  13.8917  14.1140  14.2642  14.6539
    14.7779  14.9222  15.1884  15.1922  15.5392  15.6148  15.7062  15.9133
    16.2543  16.5525  16.8147  16.8236  16.9901  17.0264  17.1805  17.2832
    17.2986  17.5567  17.7517  17.9334  18.3959  18.4394  18.5798  18.9784
    19.0652  19.7423  19.8560  20.2018

     occupation numbers 
     1.0000   1.0000   1.0000   1.0000   1.0000   1.0000   1.0000   1.0000
     1.0000   1.0000   1.0000   1.0000   1.0000   1.0000   1.0000   1.0000
     1.0000   1.0000   1.0000   1.0000   1.0000   1.0000   1.0000   1.0000
     1.0000   1.0000   1.0000   1.0000   1.0000   1.0000   1.0000   1.0000
     1.0000   1.0000   1.0000   1.0000   1.0000   1.0000   1.0000   0.0000
     0.0000   0.0000   0.0000   0.0000   0.0000   0.0000   0.0000   0.0000
     0.0000   0.0000   0.0000   0.0000   0.0000   0.0000   0.0000   0.0000
     0.0000   0.0000   0.0000   0.0000   0.0000   0.0000   0.0000   0.0000
     0.0000   0.0000   0.0000   0.0000   0.0000   0.0000   0.0000   0.0000
     0.0000   0.0000   0.0000   0.0000   0.0000   0.0000   0.0000   0.0000
     0.0000   0.0000   0.0000   0.0000   0.0000   0.0000   0.0000   0.0000
     0.0000   0.0000   0.0000   0.0000   0.0000   0.0000   0.0000   0.0000
     0.0000   0.0000   0.0000   0.0000

          k = 0.0000 0.4439 0.0000 ( 23831 PWs)   bands (ev):

   -34.5612 -34.5611 -34.5600 -34.5599 -34.5355 -34.5354 -34.5351 -34.5348
   -34.5249 -34.5248 -34.4465 -34.4351 -34.4348 -34.3944 -34.3932 -27.3115
   -27.3111 -27.3073 -27.3070 -27.3016 -27.3011 -27.2996 -27.2993 -27.2993
   -27.2983  -9.3854  -9.0425  -8.5567  -6.8523  -6.3270  -2.7210  -1.6607
    -1.0838  -1.0007  -0.3909  -0.1344   0.6213   1.0534   1.2760   3.1082
     3.6874   3.8061   4.9272   5.2275   5.4539   6.0439   7.1369   7.9865
     8.3105   9.0525   9.3593   9.5658   9.7625  10.1992  10.5236  10.5527
    10.9550  11.0206  11.1231  11.4760  11.6324  11.7126  12.2230  12.5734
    12.9142  13.2703  13.6193  13.6759  13.6856  13.9253  14.1999  14.4553
    14.9173  15.0126  15.0347  15.3447  15.4282  15.6697  15.7047  15.8563
    16.0001  16.2746  16.4825  16.4873  16.6899  16.7665  16.8739  16.9779
    17.4109  17.5891  17.6417  17.6569  17.7913  18.2519  18.9779  18.9792
    19.3541  19.4698  19.5921  19.9251

     occupation numbers 
     1.0000   1.0000   1.0000   1.0000   1.0000   1.0000   1.0000   1.0000
     1.0000   1.0000   1.0000   1.0000   1.0000   1.0000   1.0000   1.0000
     1.0000   1.0000   1.0000   1.0000   1.0000   1.0000   1.0000   1.0000
     1.0000   1.0000   1.0000   1.0000   1.0000   1.0000   1.0000   1.0000
     1.0000   1.0000   1.0000   1.0000   1.0000   1.0000   1.0000   0.0000
     0.0000   0.0000   0.0000   0.0000   0.0000   0.0000   0.0000   0.0000
     0.0000   0.0000   0.0000   0.0000   0.0000   0.0000   0.0000   0.0000
     0.0000   0.0000   0.0000   0.0000   0.0000   0.0000   0.0000   0.0000
     0.0000   0.0000   0.0000   0.0000   0.0000   0.0000   0.0000   0.0000
     0.0000   0.0000   0.0000   0.0000   0.0000   0.0000   0.0000   0.0000
     0.0000   0.0000   0.0000   0.0000   0.0000   0.0000   0.0000   0.0000
     0.0000   0.0000   0.0000   0.0000   0.0000   0.0000   0.0000   0.0000
     0.0000   0.0000   0.0000   0.0000

          k = 0.0000 0.5327 0.0000 ( 23850 PWs)   bands (ev):

   -34.5612 -34.5610 -34.5599 -34.5597 -34.5355 -34.5354 -34.5351 -34.5348
   -34.5248 -34.5247 -34.4465 -34.4352 -34.4348 -34.3944 -34.3930 -27.3116
   -27.3112 -27.3069 -27.3065 -27.3019 -27.3014 -27.2994 -27.2994 -27.2991
   -27.2983  -8.9818  -8.8164  -8.6720  -7.1208  -6.5645  -2.9215  -1.6467
    -1.3643  -1.1071  -0.4858  -0.1952   0.6152   0.9985   1.1257   3.0505
     3.6946   3.7636   4.9503   5.3283   5.3364   6.0393   7.1992   8.4935
     8.7350   9.1110   9.2914   9.7073   9.8424  10.3936  10.7150  11.0462
    11.3192  11.3788  11.6685  11.7153  12.0451  12.0606  12.2104  12.6572
    12.8738  13.0126  13.0476  13.2444  13.7795  14.0588  14.2364  14.2777
    14.5367  14.7574  14.7901  14.9890  15.2140  15.2993  15.5227  15.5570
    15.7289  15.8818  16.2469  16.7279  16.7666  17.0658  17.3924  17.4058
    17.8569  17.8597  17.9015  18.0705  18.2206  18.4276  18.6652  18.8132
    18.9174  19.5177  19.5488  19.8210

     occupation numbers 
     1.0000   1.0000   1.0000   1.0000   1.0000   1.0000   1.0000   1.0000
     1.0000   1.0000   1.0000   1.0000   1.0000   1.0000   1.0000   1.0000
     1.0000   1.0000   1.0000   1.0000   1.0000   1.0000   1.0000   1.0000
     1.0000   1.0000   1.0000   1.0000   1.0000   1.0000   1.0000   1.0000
     1.0000   1.0000   1.0000   1.0000   1.0000   1.0000   1.0000   0.0000
     0.0000   0.0000   0.0000   0.0000   0.0000   0.0000   0.0000   0.0000
     0.0000   0.0000   0.0000   0.0000   0.0000   0.0000   0.0000   0.0000
     0.0000   0.0000   0.0000   0.0000   0.0000   0.0000   0.0000   0.0000
     0.0000   0.0000   0.0000   0.0000   0.0000   0.0000   0.0000   0.0000
     0.0000   0.0000   0.0000   0.0000   0.0000   0.0000   0.0000   0.0000
     0.0000   0.0000   0.0000   0.0000   0.0000   0.0000   0.0000   0.0000
     0.0000   0.0000   0.0000   0.0000   0.0000   0.0000   0.0000   0.0000
     0.0000   0.0000   0.0000   0.0000

          k = 0.0769 0.0444 0.0000 ( 23753 PWs)   bands (ev):

   -34.5613 -34.5612 -34.5612 -34.5611 -34.5352 -34.5352 -34.5349 -34.5347
   -34.5255 -34.5254 -34.4471 -34.4348 -34.4347 -34.3945 -34.3944 -27.3109
   -27.3107 -27.3106 -27.3103 -27.3018 -27.3013 -27.2988 -27.2986 -27.2984
   -27.2982 -10.5242 -10.0053  -8.9330  -6.2047  -4.8504  -0.2919  -0.0141
     0.2127   0.2423   0.5399   0.6932   1.2715   1.3673   1.8373   2.7142
     3.0996   3.1379   3.9286   4.1392   4.4291   6.4161   6.5518   7.0634
     7.5602   7.7845   7.9964   8.6093   8.7473   8.8922   9.1589   9.3123
     9.8554  10.0281  10.4041  10.5767  10.9519  11.0964  11.1497  11.5136
    12.1935  12.3369  12.9181  13.1478  13.6274  13.7681  14.4843  14.7756
    14.8125  15.1492  15.7064  15.7572  16.0418  16.2621  16.3722  16.5419
    16.7568  16.8051  17.0595  17.1256  17.2385  17.2602  17.6189  18.0020
    18.2552  18.3471  18.3989  18.6187  18.7221  18.7957  18.8377  19.0739
    19.0867  19.2172  19.3705  19.6684

     occupation numbers 
     1.0000   1.0000   1.0000   1.0000   1.0000   1.0000   1.0000   1.0000
     1.0000   1.0000   1.0000   1.0000   1.0000   1.0000   1.0000   1.0000
     1.0000   1.0000   1.0000   1.0000   1.0000   1.0000   1.0000   1.0000
     1.0000   1.0000   1.0000   1.0000   1.0000   1.0000   1.0000   1.0000
     1.0000   1.0000   1.0000   1.0000   1.0000   1.0000   1.0000   0.0000
     0.0000   0.0000   0.0000   0.0000   0.0000   0.0000   0.0000   0.0000
     0.0000   0.0000   0.0000   0.0000   0.0000   0.0000   0.0000   0.0000
     0.0000   0.0000   0.0000   0.0000   0.0000   0.0000   0.0000   0.0000
     0.0000   0.0000   0.0000   0.0000   0.0000   0.0000   0.0000   0.0000
     0.0000   0.0000   0.0000   0.0000   0.0000   0.0000   0.0000   0.0000
     0.0000   0.0000   0.0000   0.0000   0.0000   0.0000   0.0000   0.0000
     0.0000   0.0000   0.0000   0.0000   0.0000   0.0000   0.0000   0.0000
     0.0000   0.0000   0.0000   0.0000

          k = 0.0769 0.1332 0.0000 ( 23761 PWs)   bands (ev):

   -34.5613 -34.5612 -34.5611 -34.5609 -34.5352 -34.5352 -34.5349 -34.5347
   -34.5254 -34.5253 -34.4470 -34.4348 -34.4347 -34.3945 -34.3942 -27.3110
   -27.3106 -27.3102 -27.3099 -27.3015 -27.3011 -27.2992 -27.2989 -27.2985
   -27.2983 -10.4210  -9.9105  -8.8750  -6.2191  -5.0148  -0.7504  -0.3894
    -0.1520  -0.0401   0.2970   0.6460   1.0142   1.7480   1.7910   2.9030
     3.2376   3.3954   4.1311   4.3280   4.7399   6.5768   6.5862   6.9994
     7.3093   7.7918   8.3339   8.5873   8.7091   8.8138   9.1777   9.6283
     9.9786  10.2275  10.5432  10.8974  11.1431  11.2662  11.4007  11.7191
    12.5541  12.6211  13.0639  13.2108  13.5524  13.7277  14.1320  14.4077
    15.0344  15.2882  15.3609  15.4641  15.5795  15.6681  15.9011  16.5187
    16.7663  16.7878  17.1383  17.1407  17.3669  17.5361  17.6114  17.7720
    17.9289  17.9856  18.1425  18.1677  18.7470  19.3747  19.6597  19.7275
    19.8038  19.8153  20.0511  20.1695

     occupation numbers 
     1.0000   1.0000   1.0000   1.0000   1.0000   1.0000   1.0000   1.0000
     1.0000   1.0000   1.0000   1.0000   1.0000   1.0000   1.0000   1.0000
     1.0000   1.0000   1.0000   1.0000   1.0000   1.0000   1.0000   1.0000
     1.0000   1.0000   1.0000   1.0000   1.0000   1.0000   1.0000   1.0000
     1.0000   1.0000   1.0000   1.0000   1.0000   1.0000   1.0000   0.0000
     0.0000   0.0000   0.0000   0.0000   0.0000   0.0000   0.0000   0.0000
     0.0000   0.0000   0.0000   0.0000   0.0000   0.0000   0.0000   0.0000
     0.0000   0.0000   0.0000   0.0000   0.0000   0.0000   0.0000   0.0000
     0.0000   0.0000   0.0000   0.0000   0.0000   0.0000   0.0000   0.0000
     0.0000   0.0000   0.0000   0.0000   0.0000   0.0000   0.0000   0.0000
     0.0000   0.0000   0.0000   0.0000   0.0000   0.0000   0.0000   0.0000
     0.0000   0.0000   0.0000   0.0000   0.0000   0.0000   0.0000   0.0000
     0.0000   0.0000   0.0000   0.0000

          k = 0.0769 0.2220 0.0000 ( 23778 PWs)   bands (ev):

   -34.5612 -34.5611 -34.5608 -34.5606 -34.5353 -34.5353 -34.5350 -34.5347
   -34.5253 -34.5251 -34.4469 -34.4349 -34.4347 -34.3944 -34.3940 -27.3110
   -27.3106 -27.3095 -27.3092 -27.3011 -27.3007 -27.2998 -27.2994 -27.2987
   -27.2983 -10.2179  -9.7267  -8.7705  -6.2748  -5.3357  -1.4207  -0.9152
    -0.5805  -0.2543  -0.0018   0.3628   0.9423   1.4887   1.8995   3.0769
     3.3512   3.8519   4.2907   4.8472   5.1065   6.4265   6.8095   6.9794
     7.3861   7.9830   8.4007   8.5341   8.9321   9.1023   9.5889   9.8746
    10.1049  10.3142  10.8947  11.0752  11.4894  11.6113  12.1469  12.3152
    12.6663  12.7902  13.1438  13.4513  13.5425  13.8073  13.9948  14.2380
    14.3152  14.6896  14.9323  15.1054  15.7446  15.8892  15.9778  16.1049
    16.3313  16.8036  16.8238  17.0164  17.2060  17.3148  17.5982  17.7890
    18.1224  18.5352  18.7322  18.7845  18.9088  19.0169  19.1183  19.1563
    19.3789  19.5261  19.7887  19.8792

     occupation numbers 
     1.0000   1.0000   1.0000   1.0000   1.0000   1.0000   1.0000   1.0000
     1.0000   1.0000   1.0000   1.0000   1.0000   1.0000   1.0000   1.0000
     1.0000   1.0000   1.0000   1.0000   1.0000   1.0000   1.0000   1.0000
     1.0000   1.0000   1.0000   1.0000   1.0000   1.0000   1.0000   1.0000
     1.0000   1.0000   1.0000   1.0000   1.0000   1.0000   1.0000   0.0000
     0.0000   0.0000   0.0000   0.0000   0.0000   0.0000   0.0000   0.0000
     0.0000   0.0000   0.0000   0.0000   0.0000   0.0000   0.0000   0.0000
     0.0000   0.0000   0.0000   0.0000   0.0000   0.0000   0.0000   0.0000
     0.0000   0.0000   0.0000   0.0000   0.0000   0.0000   0.0000   0.0000
     0.0000   0.0000   0.0000   0.0000   0.0000   0.0000   0.0000   0.0000
     0.0000   0.0000   0.0000   0.0000   0.0000   0.0000   0.0000   0.0000
     0.0000   0.0000   0.0000   0.0000   0.0000   0.0000   0.0000   0.0000
     0.0000   0.0000   0.0000   0.0000

          k = 0.0769 0.3108 0.0000 ( 23811 PWs)   bands (ev):

   -34.5612 -34.5611 -34.5605 -34.5603 -34.5353 -34.5353 -34.5350 -34.5347
   -34.5251 -34.5250 -34.4467 -34.4350 -34.4348 -34.3944 -34.3936 -27.3111
   -27.3107 -27.3086 -27.3083 -27.3008 -27.3005 -27.3002 -27.2998 -27.2990
   -27.2983  -9.9233  -9.4679  -8.6461  -6.4195  -5.7665  -2.0503  -1.3468
    -0.8654  -0.6041  -0.3668   0.2615   0.8343   1.1042   1.8136   3.2730
     3.4233   3.9606   4.6705   5.0836   5.5879   6.0516   7.0681   7.3353
     7.7363   8.0484   8.4544   8.8497   9.3826   9.7158   9.9298  10.1495
    10.3190  10.5495  11.2768  11.3591  11.6283  12.1585  12.4042  12.5327
    12.7683  12.8363  13.0595  13.1672  13.6025  13.9922  14.1070  14.4084
    14.5920  14.6434  14.8589  15.1260  15.4021  15.5798  15.8376  16.3257
    16.3966  16.5893  16.6197  16.8222  16.9779  17.2235  17.2772  17.5997
    17.8498  17.9326  18.3372  18.5648  18.6117  18.8929  18.9855  19.1448
    19.3370  19.6017  19.6519  19.7531

     occupation numbers 
     1.0000   1.0000   1.0000   1.0000   1.0000   1.0000   1.0000   1.0000
     1.0000   1.0000   1.0000   1.0000   1.0000   1.0000   1.0000   1.0000
     1.0000   1.0000   1.0000   1.0000   1.0000   1.0000   1.0000   1.0000
     1.0000   1.0000   1.0000   1.0000   1.0000   1.0000   1.0000   1.0000
     1.0000   1.0000   1.0000   1.0000   1.0000   1.0000   1.0000   0.0000
     0.0000   0.0000   0.0000   0.0000   0.0000   0.0000   0.0000   0.0000
     0.0000   0.0000   0.0000   0.0000   0.0000   0.0000   0.0000   0.0000
     0.0000   0.0000   0.0000   0.0000   0.0000   0.0000   0.0000   0.0000
     0.0000   0.0000   0.0000   0.0000   0.0000   0.0000   0.0000   0.0000
     0.0000   0.0000   0.0000   0.0000   0.0000   0.0000   0.0000   0.0000
     0.0000   0.0000   0.0000   0.0000   0.0000   0.0000   0.0000   0.0000
     0.0000   0.0000   0.0000   0.0000   0.0000   0.0000   0.0000   0.0000
     0.0000   0.0000   0.0000   0.0000

          k = 0.0769 0.3996 0.0000 ( 23845 PWs)   bands (ev):

   -34.5611 -34.5610 -34.5602 -34.5600 -34.5354 -34.5353 -34.5351 -34.5348
   -34.5249 -34.5248 -34.4466 -34.4351 -34.4348 -34.3944 -34.3933 -27.3112
   -27.3108 -27.3078 -27.3074 -27.3013 -27.3008 -27.2998 -27.2996 -27.2992
   -27.2984  -9.5545  -9.1644  -8.5517  -6.6907  -6.2020  -2.5219  -1.5995
    -1.1770  -0.9267  -0.4972   0.0709   0.6287   0.9945   1.5927   3.3183
     3.4720   3.9406   4.9234   5.2297   5.7189   5.9530   7.2091   7.7399
     8.1264   8.4722   8.9405   9.3111   9.7112   9.7588  10.4717  10.5920
    10.7616  10.9641  11.3870  11.4769  11.7520  11.8488  12.1105  12.7473
    12.8692  13.1954  13.2366  13.5055  13.6626  13.8131  14.0289  14.0975
    14.4315  15.1271  15.2864  15.3699  15.6208  15.7859  15.8762  15.9187
    16.1507  16.3447  16.5656  16.5860  16.7527  16.9566  17.0808  17.1755
    17.3835  17.5586  17.7474  18.1858  18.4120  18.6507  18.8413  19.1101
    19.3287  19.3804  19.5548  19.7704

     occupation numbers 
     1.0000   1.0000   1.0000   1.0000   1.0000   1.0000   1.0000   1.0000
     1.0000   1.0000   1.0000   1.0000   1.0000   1.0000   1.0000   1.0000
     1.0000   1.0000   1.0000   1.0000   1.0000   1.0000   1.0000   1.0000
     1.0000   1.0000   1.0000   1.0000   1.0000   1.0000   1.0000   1.0000
     1.0000   1.0000   1.0000   1.0000   1.0000   1.0000   1.0000   0.0000
     0.0000   0.0000   0.0000   0.0000   0.0000   0.0000   0.0000   0.0000
     0.0000   0.0000   0.0000   0.0000   0.0000   0.0000   0.0000   0.0000
     0.0000   0.0000   0.0000   0.0000   0.0000   0.0000   0.0000   0.0000
     0.0000   0.0000   0.0000   0.0000   0.0000   0.0000   0.0000   0.0000
     0.0000   0.0000   0.0000   0.0000   0.0000   0.0000   0.0000   0.0000
     0.0000   0.0000   0.0000   0.0000   0.0000   0.0000   0.0000   0.0000
     0.0000   0.0000   0.0000   0.0000   0.0000   0.0000   0.0000   0.0000
     0.0000   0.0000   0.0000   0.0000

          k = 0.0769 0.4883 0.0000 ( 23825 PWs)   bands (ev):

   -34.5611 -34.5610 -34.5600 -34.5598 -34.5355 -34.5354 -34.5351 -34.5348
   -34.5248 -34.5247 -34.4465 -34.4352 -34.4348 -34.3943 -34.3931 -27.3113
   -27.3109 -27.3072 -27.3068 -27.3017 -27.3012 -27.2996 -27.2994 -27.2992
   -27.2984  -9.1481  -8.8832  -8.5699  -7.0142  -6.5268  -2.8120  -1.6639
    -1.4298  -1.1314  -0.5707  -0.1497   0.5875   0.9484   1.3868   3.3969
     3.4091   3.8415   5.1178   5.2564   5.5457   6.0715   7.2014   8.2938
     8.5262   9.1342   9.3153   9.4755   9.8940  10.0191  10.5133  10.7340
    11.0168  11.1548  11.6816  11.7550  11.8755  12.0105  12.3739  12.6320
    12.8166  12.9025  13.1214  13.3852  13.7998  13.9175  14.0945  14.3237
    14.4250  14.7605  15.0405  15.1450  15.2891  15.4393  15.7457  15.9779
    16.1337  16.2291  16.3601  16.6521  16.9311  17.0077  17.1476  17.5089
    17.5329  17.6838  17.8177  18.0792  18.2195  18.5576  18.7712  18.9651
    19.2021  19.2940  19.4059  19.6496

     occupation numbers 
     1.0000   1.0000   1.0000   1.0000   1.0000   1.0000   1.0000   1.0000
     1.0000   1.0000   1.0000   1.0000   1.0000   1.0000   1.0000   1.0000
     1.0000   1.0000   1.0000   1.0000   1.0000   1.0000   1.0000   1.0000
     1.0000   1.0000   1.0000   1.0000   1.0000   1.0000   1.0000   1.0000
     1.0000   1.0000   1.0000   1.0000   1.0000   1.0000   1.0000   0.0000
     0.0000   0.0000   0.0000   0.0000   0.0000   0.0000   0.0000   0.0000
     0.0000   0.0000   0.0000   0.0000   0.0000   0.0000   0.0000   0.0000
     0.0000   0.0000   0.0000   0.0000   0.0000   0.0000   0.0000   0.0000
     0.0000   0.0000   0.0000   0.0000   0.0000   0.0000   0.0000   0.0000
     0.0000   0.0000   0.0000   0.0000   0.0000   0.0000   0.0000   0.0000
     0.0000   0.0000   0.0000   0.0000   0.0000   0.0000   0.0000   0.0000
     0.0000   0.0000   0.0000   0.0000   0.0000   0.0000   0.0000   0.0000
     0.0000   0.0000   0.0000   0.0000

          k = 0.0769 0.5771 0.0000 ( 23828 PWs)   bands (ev):

   -34.5611 -34.5610 -34.5599 -34.5597 -34.5355 -34.5354 -34.5351 -34.5348
   -34.5248 -34.5246 -34.4464 -34.4352 -34.4348 -34.3943 -34.3930 -27.3114
   -27.3110 -27.3070 -27.3066 -27.3019 -27.3013 -27.2995 -27.2994 -27.2990
   -27.2984  -8.7911  -8.7729  -8.7544  -7.1670  -6.6531  -2.9113  -1.6279
    -1.5394  -1.2197  -0.6268  -0.2109   0.6140   0.8958   1.3176   3.3691
     3.4620   3.7630   5.1891   5.2556   5.5141   6.0378   7.2561   8.6046
     8.9814   9.0141   9.1242   9.7450  10.0684  10.0705  10.6736  10.9702
    11.0001  11.3637  11.5231  11.8574  11.9950  12.0636  12.2918  12.4518
    12.7887  12.8479  13.3272  13.5913  13.6359  14.0260  14.2494  14.3046
    14.4980  14.5634  14.7025  14.7769  15.1686  15.2168  15.5658  15.8989
    16.1269  16.2538  16.2894  16.5604  16.6514  17.1139  17.2236  17.6278
    17.9043  18.2226  18.3311  18.3755  18.5558  18.5817  18.7081  18.9614
    19.1189  19.2192  19.4106  19.4266

     occupation numbers 
     1.0000   1.0000   1.0000   1.0000   1.0000   1.0000   1.0000   1.0000
     1.0000   1.0000   1.0000   1.0000   1.0000   1.0000   1.0000   1.0000
     1.0000   1.0000   1.0000   1.0000   1.0000   1.0000   1.0000   1.0000
     1.0000   1.0000   1.0000   1.0000   1.0000   1.0000   1.0000   1.0000
     1.0000   1.0000   1.0000   1.0000   1.0000   1.0000   1.0000   0.0000
     0.0000   0.0000   0.0000   0.0000   0.0000   0.0000   0.0000   0.0000
     0.0000   0.0000   0.0000   0.0000   0.0000   0.0000   0.0000   0.0000
     0.0000   0.0000   0.0000   0.0000   0.0000   0.0000   0.0000   0.0000
     0.0000   0.0000   0.0000   0.0000   0.0000   0.0000   0.0000   0.0000
     0.0000   0.0000   0.0000   0.0000   0.0000   0.0000   0.0000   0.0000
     0.0000   0.0000   0.0000   0.0000   0.0000   0.0000   0.0000   0.0000
     0.0000   0.0000   0.0000   0.0000   0.0000   0.0000   0.0000   0.0000
     0.0000   0.0000   0.0000   0.0000

          k = 0.1538 0.0888 0.0000 ( 23745 PWs)   bands (ev):

   -34.5613 -34.5611 -34.5610 -34.5609 -34.5353 -34.5352 -34.5349 -34.5347
   -34.5254 -34.5252 -34.4470 -34.4349 -34.4347 -34.3945 -34.3942 -27.3110
   -27.3106 -27.3100 -27.3097 -27.3014 -27.3010 -27.2994 -27.2988 -27.2988
   -27.2982 -10.3696  -9.8638  -8.8474  -6.2302  -5.0962  -1.0333  -0.3988
    -0.2198  -0.1447   0.2798   0.3137   1.3062   1.4677   1.7864   2.9979
     3.3179   3.5280   4.2204   4.3876   4.8702   6.4763   6.6549   6.9528
     7.5139   7.8341   8.3031   8.4908   8.7266   8.9512   9.3515   9.6723
     9.8206  10.2320  10.6746  10.9569  11.3240  11.3739  11.7324  11.9503
    12.4238  12.5633  12.9717  13.4062  13.5954  13.7412  14.0493  14.6130
    14.7066  14.9191  15.1055  15.5260  15.7832  16.0651  16.2079  16.2323
    16.5768  16.6210  16.6377  16.7531  17.0226  17.3038  17.8481  17.9935
    18.2102  18.3700  18.3968  18.4964  18.6988  19.3093  19.4699  19.5367
    19.6798  19.7650  19.8769  20.0835

     occupation numbers 
     1.0000   1.0000   1.0000   1.0000   1.0000   1.0000   1.0000   1.0000
     1.0000   1.0000   1.0000   1.0000   1.0000   1.0000   1.0000   1.0000
     1.0000   1.0000   1.0000   1.0000   1.0000   1.0000   1.0000   1.0000
     1.0000   1.0000   1.0000   1.0000   1.0000   1.0000   1.0000   1.0000
     1.0000   1.0000   1.0000   1.0000   1.0000   1.0000   1.0000   0.0000
     0.0000   0.0000   0.0000   0.0000   0.0000   0.0000   0.0000   0.0000
     0.0000   0.0000   0.0000   0.0000   0.0000   0.0000   0.0000   0.0000
     0.0000   0.0000   0.0000   0.0000   0.0000   0.0000   0.0000   0.0000
     0.0000   0.0000   0.0000   0.0000   0.0000   0.0000   0.0000   0.0000
     0.0000   0.0000   0.0000   0.0000   0.0000   0.0000   0.0000   0.0000
     0.0000   0.0000   0.0000   0.0000   0.0000   0.0000   0.0000   0.0000
     0.0000   0.0000   0.0000   0.0000   0.0000   0.0000   0.0000   0.0000
     0.0000   0.0000   0.0000   0.0000

          k = 0.1538 0.1776 0.0000 ( 23774 PWs)   bands (ev):

   -34.5612 -34.5611 -34.5608 -34.5606 -34.5353 -34.5352 -34.5350 -34.5347
   -34.5253 -34.5251 -34.4469 -34.4349 -34.4347 -34.3944 -34.3940 -27.3110
   -27.3106 -27.3095 -27.3092 -27.3011 -27.3007 -27.2998 -27.2994 -27.2987
   -27.2983 -10.2178  -9.7266  -8.7704  -6.2746  -5.3357  -1.4201  -0.9155
    -0.5795  -0.2557  -0.0021   0.3619   0.9417   1.4888   1.8990   3.0774
     3.3494   3.8526   4.2914   4.8434   5.1099   6.4272   6.8096   6.9795
     7.3860   7.9833   8.4010   8.5348   8.9299   9.1019   9.5890   9.8748
    10.1036  10.3155  10.8952  11.0736  11.4904  11.6113  12.1473  12.3162
    12.6669  12.7922  13.1448  13.4511  13.5405  13.8072  13.9950  14.2398
    14.3187  14.6900  14.9294  15.1011  15.7445  15.8892  15.9810  16.1050
    16.3330  16.8013  16.8212  17.0135  17.2066  17.3124  17.5960  17.7911
    18.1215  18.5355  18.7344  18.7869  18.9102  19.0185  19.1173  19.1581
    19.3791  19.5253  19.7868  19.8760

     occupation numbers 
     1.0000   1.0000   1.0000   1.0000   1.0000   1.0000   1.0000   1.0000
     1.0000   1.0000   1.0000   1.0000   1.0000   1.0000   1.0000   1.0000
     1.0000   1.0000   1.0000   1.0000   1.0000   1.0000   1.0000   1.0000
     1.0000   1.0000   1.0000   1.0000   1.0000   1.0000   1.0000   1.0000
     1.0000   1.0000   1.0000   1.0000   1.0000   1.0000   1.0000   0.0000
     0.0000   0.0000   0.0000   0.0000   0.0000   0.0000   0.0000   0.0000
     0.0000   0.0000   0.0000   0.0000   0.0000   0.0000   0.0000   0.0000
     0.0000   0.0000   0.0000   0.0000   0.0000   0.0000   0.0000   0.0000
     0.0000   0.0000   0.0000   0.0000   0.0000   0.0000   0.0000   0.0000
     0.0000   0.0000   0.0000   0.0000   0.0000   0.0000   0.0000   0.0000
     0.0000   0.0000   0.0000   0.0000   0.0000   0.0000   0.0000   0.0000
     0.0000   0.0000   0.0000   0.0000   0.0000   0.0000   0.0000   0.0000
     0.0000   0.0000   0.0000   0.0000

          k = 0.1538 0.2664 0.0000 ( 23783 PWs)   bands (ev):

   -34.5611 -34.5610 -34.5606 -34.5604 -34.5353 -34.5353 -34.5350 -34.5347
   -34.5251 -34.5250 -34.4468 -34.4350 -34.4347 -34.3944 -34.3937 -27.3109
   -27.3105 -27.3089 -27.3086 -27.3008 -27.3003 -27.3001 -27.2999 -27.2988
   -27.2985  -9.9710  -9.5084  -8.6607  -6.3805  -5.7088  -1.7368  -1.6021
    -0.6990  -0.6817  -0.3540   0.1377   0.8592   1.5906   1.6273   3.1827
     3.7136   3.8416   4.4333   5.3466   5.4015   6.5904   6.6695   7.1678
     7.5027   8.0566   8.2931   8.5196   9.4676   9.7410  10.0750  10.0882
    10.2505  10.7333  11.0464  11.1441  11.9992  12.2557  12.3444  12.5633
    12.5733  12.8600  13.2716  13.3403  13.5628  13.7519  13.7570  13.8229
    14.5340  14.7496  14.9932  15.0821  15.5082  15.5724  15.7954  15.8351
    16.2966  16.4270  16.7816  16.8792  17.1423  17.4711  18.0198  18.1246
    18.1448  18.2191  18.3277  18.5365  18.6364  18.6411  18.8066  18.9137
    19.0629  19.5274  19.9528  20.3603

     occupation numbers 
     1.0000   1.0000   1.0000   1.0000   1.0000   1.0000   1.0000   1.0000
     1.0000   1.0000   1.0000   1.0000   1.0000   1.0000   1.0000   1.0000
     1.0000   1.0000   1.0000   1.0000   1.0000   1.0000   1.0000   1.0000
     1.0000   1.0000   1.0000   1.0000   1.0000   1.0000   1.0000   1.0000
     1.0000   1.0000   1.0000   1.0000   1.0000   1.0000   1.0000   0.0000
     0.0000   0.0000   0.0000   0.0000   0.0000   0.0000   0.0000   0.0000
     0.0000   0.0000   0.0000   0.0000   0.0000   0.0000   0.0000   0.0000
     0.0000   0.0000   0.0000   0.0000   0.0000   0.0000   0.0000   0.0000
     0.0000   0.0000   0.0000   0.0000   0.0000   0.0000   0.0000   0.0000
     0.0000   0.0000   0.0000   0.0000   0.0000   0.0000   0.0000   0.0000
     0.0000   0.0000   0.0000   0.0000   0.0000   0.0000   0.0000   0.0000
     0.0000   0.0000   0.0000   0.0000   0.0000   0.0000   0.0000   0.0000
     0.0000   0.0000   0.0000   0.0000

          k = 0.1538 0.3552 0.0000 ( 23813 PWs)   bands (ev):

   -34.5610 -34.5610 -34.5603 -34.5601 -34.5354 -34.5353 -34.5351 -34.5348
   -34.5250 -34.5248 -34.4466 -34.4351 -34.4348 -34.3943 -34.3935 -27.3108
   -27.3104 -27.3082 -27.3079 -27.3010 -27.3007 -27.3001 -27.2997 -27.2991
   -27.2986  -9.6417  -9.2297  -8.5512  -6.5810  -6.1514  -2.2190  -1.8381
    -1.1344  -0.8747  -0.6755  -0.0799   0.8854   1.1603   1.6543   3.3220
     3.8224   3.8403   4.7606   5.5116   5.7251   6.3209   7.0791   7.5950
     7.6513   8.0606   8.7063   8.7872   9.5734   9.7573  10.4906  10.5821
    10.8480  11.1331  11.2571  11.8850  12.0589  12.0827  12.3796  12.5104
    12.7392  12.8974  13.1664  13.2759  13.3532  13.4043  14.0504  14.2503
    14.4758  14.6757  14.9003  15.2172  15.2913  15.3407  15.5415  16.0881
    16.1511  16.3635  16.8043  16.9549  17.1349  17.3078  17.3462  17.7420
    17.8096  18.1653  18.2588  18.3605  18.5564  18.9475  19.2732  19.4121
    19.5602  19.7591  19.8294  19.9582

     occupation numbers 
     1.0000   1.0000   1.0000   1.0000   1.0000   1.0000   1.0000   1.0000
     1.0000   1.0000   1.0000   1.0000   1.0000   1.0000   1.0000   1.0000
     1.0000   1.0000   1.0000   1.0000   1.0000   1.0000   1.0000   1.0000
     1.0000   1.0000   1.0000   1.0000   1.0000   1.0000   1.0000   1.0000
     1.0000   1.0000   1.0000   1.0000   1.0000   1.0000   1.0000   0.0000
     0.0000   0.0000   0.0000   0.0000   0.0000   0.0000   0.0000   0.0000
     0.0000   0.0000   0.0000   0.0000   0.0000   0.0000   0.0000   0.0000
     0.0000   0.0000   0.0000   0.0000   0.0000   0.0000   0.0000   0.0000
     0.0000   0.0000   0.0000   0.0000   0.0000   0.0000   0.0000   0.0000
     0.0000   0.0000   0.0000   0.0000   0.0000   0.0000   0.0000   0.0000
     0.0000   0.0000   0.0000   0.0000   0.0000   0.0000   0.0000   0.0000
     0.0000   0.0000   0.0000   0.0000   0.0000   0.0000   0.0000   0.0000
     0.0000   0.0000   0.0000   0.0000

          k = 0.1538 0.4439 0.0000 ( 23820 PWs)   bands (ev):

   -34.5610 -34.5609 -34.5601 -34.5599 -34.5354 -34.5354 -34.5351 -34.5348
   -34.5248 -34.5247 -34.4465 -34.4351 -34.4348 -34.3942 -34.3933 -27.3108
   -27.3104 -27.3077 -27.3074 -27.3014 -27.3010 -27.2998 -27.2994 -27.2992
   -27.2987  -9.2560  -8.9346  -8.4987  -6.8804  -6.5453  -2.5981  -1.8743
    -1.4357  -1.2426  -0.7211  -0.2438   0.6664   1.0429   1.6035   3.2626
     3.8463   3.9749   4.9047   5.6021   5.9381   6.1345   7.3630   7.9806
     8.2811   8.3768   9.0029   9.2832   9.7455   9.9077  10.2414  10.7851
    11.0296  11.2310  11.5044  11.7273  12.0005  12.1712  12.5258  12.7188
    12.7823  13.0715  13.1761  13.2072  13.3491  13.4934  13.7952  13.9460
    14.3997  14.6015  14.6941  15.2896  15.3271  15.5470  15.7904  16.0817
    16.4551  16.7125  16.8115  17.0630  17.1524  17.2330  17.4926  17.6878
    17.8363  18.0618  18.1058  18.1732  18.3691  18.4511  18.9963  19.2683
    19.3397  19.7165  19.8144  20.0690

     occupation numbers 
     1.0000   1.0000   1.0000   1.0000   1.0000   1.0000   1.0000   1.0000
     1.0000   1.0000   1.0000   1.0000   1.0000   1.0000   1.0000   1.0000
     1.0000   1.0000   1.0000   1.0000   1.0000   1.0000   1.0000   1.0000
     1.0000   1.0000   1.0000   1.0000   1.0000   1.0000   1.0000   1.0000
     1.0000   1.0000   1.0000   1.0000   1.0000   1.0000   1.0000   0.0000
     0.0000   0.0000   0.0000   0.0000   0.0000   0.0000   0.0000   0.0000
     0.0000   0.0000   0.0000   0.0000   0.0000   0.0000   0.0000   0.0000
     0.0000   0.0000   0.0000   0.0000   0.0000   0.0000   0.0000   0.0000
     0.0000   0.0000   0.0000   0.0000   0.0000   0.0000   0.0000   0.0000
     0.0000   0.0000   0.0000   0.0000   0.0000   0.0000   0.0000   0.0000
     0.0000   0.0000   0.0000   0.0000   0.0000   0.0000   0.0000   0.0000
     0.0000   0.0000   0.0000   0.0000   0.0000   0.0000   0.0000   0.0000
     0.0000   0.0000   0.0000   0.0000

          k = 0.1538 0.5327 0.0000 ( 23831 PWs)   bands (ev):

   -34.5609 -34.5608 -34.5600 -34.5598 -34.5355 -34.5354 -34.5351 -34.5348
   -34.5247 -34.5246 -34.4464 -34.4352 -34.4349 -34.3942 -34.3932 -27.3107
   -27.3104 -27.3074 -27.3070 -27.3017 -27.3012 -27.2998 -27.2994 -27.2991
   -27.2988  -8.8708  -8.7183  -8.5877  -7.1449  -6.7793  -2.7845  -1.8530
    -1.6908  -1.3023  -0.7280  -0.4694   0.6040   1.0084   1.5070   3.3440
     3.7664   3.9265   5.0644   5.6189   5.9615   6.0861   7.3909   8.5551
     8.8578   8.9966   9.0977   9.5935   9.8893   9.9403  10.4701  10.5558
    10.6505  10.8540  11.2427  11.7270  11.8746  12.1406  12.3467  12.5263
    12.6473  12.8619  13.2073  13.3534  13.5411  13.9904  14.1933  14.3288
    14.4857  14.8170  15.0339  15.1440  15.2074  15.5113  15.8118  15.8641
    16.1581  16.3660  16.9050  16.9491  17.2166  17.3288  17.6073  17.7234
    17.9523  18.0569  18.1906  18.3581  18.6430  18.8629  18.9187  19.0165
    19.1753  19.3460  19.6627  19.7520

     occupation numbers 
     1.0000   1.0000   1.0000   1.0000   1.0000   1.0000   1.0000   1.0000
     1.0000   1.0000   1.0000   1.0000   1.0000   1.0000   1.0000   1.0000
     1.0000   1.0000   1.0000   1.0000   1.0000   1.0000   1.0000   1.0000
     1.0000   1.0000   1.0000   1.0000   1.0000   1.0000   1.0000   1.0000
     1.0000   1.0000   1.0000   1.0000   1.0000   1.0000   1.0000   0.0000
     0.0000   0.0000   0.0000   0.0000   0.0000   0.0000   0.0000   0.0000
     0.0000   0.0000   0.0000   0.0000   0.0000   0.0000   0.0000   0.0000
     0.0000   0.0000   0.0000   0.0000   0.0000   0.0000   0.0000   0.0000
     0.0000   0.0000   0.0000   0.0000   0.0000   0.0000   0.0000   0.0000
     0.0000   0.0000   0.0000   0.0000   0.0000   0.0000   0.0000   0.0000
     0.0000   0.0000   0.0000   0.0000   0.0000   0.0000   0.0000   0.0000
     0.0000   0.0000   0.0000   0.0000   0.0000   0.0000   0.0000   0.0000
     0.0000   0.0000   0.0000   0.0000

          k = 0.1538-0.0000 0.0000 ( 23767 PWs)   bands (ev):

   -34.5613 -34.5611 -34.5610 -34.5610 -34.5353 -34.5352 -34.5349 -34.5347
   -34.5254 -34.5253 -34.4470 -34.4348 -34.4347 -34.3945 -34.3942 -27.3109
   -27.3106 -27.3103 -27.3099 -27.3015 -27.3011 -27.2991 -27.2989 -27.2985
   -27.2983 -10.4208  -9.9104  -8.8749  -6.2191  -5.0147  -0.7505  -0.3896
    -0.1517  -0.0386   0.2955   0.6460   1.0134   1.7483   1.7898   2.8999
     3.2388   3.3955   4.1287   4.3303   4.7410   6.5769   6.5863   6.9990
     7.3098   7.7921   8.3330   8.5858   8.7098   8.8146   9.1767   9.6291
     9.9772  10.2275  10.5430  10.8981  11.1440  11.2662  11.4018  11.7215
    12.5551  12.6197  13.0628  13.2122  13.5523  13.7263  14.1334  14.4086
    15.0327  15.2891  15.3625  15.4654  15.5805  15.6696  15.9017  16.5189
    16.7634  16.7856  17.1399  17.1414  17.3678  17.5347  17.6113  17.7737
    17.9251  17.9833  18.1380  18.1627  18.7495  19.3765  19.6567  19.7286
    19.8006  19.8111  20.0520  20.1708

     occupation numbers 
     1.0000   1.0000   1.0000   1.0000   1.0000   1.0000   1.0000   1.0000
     1.0000   1.0000   1.0000   1.0000   1.0000   1.0000   1.0000   1.0000
     1.0000   1.0000   1.0000   1.0000   1.0000   1.0000   1.0000   1.0000
     1.0000   1.0000   1.0000   1.0000   1.0000   1.0000   1.0000   1.0000
     1.0000   1.0000   1.0000   1.0000   1.0000   1.0000   1.0000   0.0000
     0.0000   0.0000   0.0000   0.0000   0.0000   0.0000   0.0000   0.0000
     0.0000   0.0000   0.0000   0.0000   0.0000   0.0000   0.0000   0.0000
     0.0000   0.0000   0.0000   0.0000   0.0000   0.0000   0.0000   0.0000
     0.0000   0.0000   0.0000   0.0000   0.0000   0.0000   0.0000   0.0000
     0.0000   0.0000   0.0000   0.0000   0.0000   0.0000   0.0000   0.0000
     0.0000   0.0000   0.0000   0.0000   0.0000   0.0000   0.0000   0.0000
     0.0000   0.0000   0.0000   0.0000   0.0000   0.0000   0.0000   0.0000
     0.0000   0.0000   0.0000   0.0000

          k = 0.2308 0.1332 0.0000 ( 23783 PWs)   bands (ev):

   -34.5612 -34.5611 -34.5607 -34.5605 -34.5353 -34.5352 -34.5349 -34.5348
   -34.5252 -34.5251 -34.4468 -34.4350 -34.4347 -34.3944 -34.3938 -27.3111
   -27.3108 -27.3091 -27.3087 -27.3010 -27.3005 -27.3001 -27.2994 -27.2990
   -27.2982 -10.1181  -9.6382  -8.7255  -6.3196  -5.4844  -1.7716  -0.9000
    -0.6714  -0.5008   0.0373   0.2911   0.8517   1.2494   1.8686   3.0141
     3.5259   3.9217   4.5952   4.7109   5.3398   6.0998   6.9118   7.1834
     7.7359   8.1161   8.4372   8.8099   8.8455   9.1264   9.8387   9.9279
    10.0839  10.3982  10.6337  11.4385  11.7762  12.1015  12.1836  12.3965
    12.4523  12.6789  13.1592  13.3197  13.4537  13.8013  14.2082  14.4415
    14.4885  14.8648  14.9953  15.4047  15.4545  15.7190  15.9255  15.9491
    16.2290  16.3431  16.5231  17.0304  17.3632  17.5941  17.8002  17.8248
    17.8797  18.2199  18.4470  18.4877  18.6468  18.8062  19.0795  19.1430
    19.2288  19.6570  20.1336  20.1704

     occupation numbers 
     1.0000   1.0000   1.0000   1.0000   1.0000   1.0000   1.0000   1.0000
     1.0000   1.0000   1.0000   1.0000   1.0000   1.0000   1.0000   1.0000
     1.0000   1.0000   1.0000   1.0000   1.0000   1.0000   1.0000   1.0000
     1.0000   1.0000   1.0000   1.0000   1.0000   1.0000   1.0000   1.0000
     1.0000   1.0000   1.0000   1.0000   1.0000   1.0000   1.0000   0.0000
     0.0000   0.0000   0.0000   0.0000   0.0000   0.0000   0.0000   0.0000
     0.0000   0.0000   0.0000   0.0000   0.0000   0.0000   0.0000   0.0000
     0.0000   0.0000   0.0000   0.0000   0.0000   0.0000   0.0000   0.0000
     0.0000   0.0000   0.0000   0.0000   0.0000   0.0000   0.0000   0.0000
     0.0000   0.0000   0.0000   0.0000   0.0000   0.0000   0.0000   0.0000
     0.0000   0.0000   0.0000   0.0000   0.0000   0.0000   0.0000   0.0000
     0.0000   0.0000   0.0000   0.0000   0.0000   0.0000   0.0000   0.0000
     0.0000   0.0000   0.0000   0.0000

          k = 0.2308 0.2220 0.0000 ( 23809 PWs)   bands (ev):

   -34.5612 -34.5611 -34.5605 -34.5603 -34.5353 -34.5353 -34.5350 -34.5348
   -34.5251 -34.5250 -34.4467 -34.4350 -34.4347 -34.3944 -34.3936 -27.3111
   -27.3107 -27.3086 -27.3083 -27.3008 -27.3005 -27.3001 -27.2998 -27.2990
   -27.2983  -9.9230  -9.4677  -8.6458  -6.4189  -5.7667  -2.0500  -1.3464
    -0.8650  -0.6053  -0.3681   0.2602   0.8341   1.1034   1.8128   3.2717
     3.4221   3.9613   4.6710   5.0803   5.5905   6.0521   7.0688   7.3358
     7.7369   8.0489   8.4547   8.8509   9.3823   9.7128   9.9296  10.1498
    10.3188  10.5498  11.2738  11.3591  11.6285  12.1623  12.4055  12.5336
    12.7696  12.8377  13.0617  13.1653  13.6005  13.9926  14.1101  14.4060
    14.5935  14.6399  14.8608  15.1273  15.4019  15.5807  15.8362  16.3232
    16.3950  16.5868  16.6194  16.8211  16.9760  17.2231  17.2760  17.6021
    17.8505  17.9346  18.3372  18.5637  18.6159  18.8958  18.9863  19.1436
    19.3356  19.6032  19.6539  19.7548

     occupation numbers 
     1.0000   1.0000   1.0000   1.0000   1.0000   1.0000   1.0000   1.0000
     1.0000   1.0000   1.0000   1.0000   1.0000   1.0000   1.0000   1.0000
     1.0000   1.0000   1.0000   1.0000   1.0000   1.0000   1.0000   1.0000
     1.0000   1.0000   1.0000   1.0000   1.0000   1.0000   1.0000   1.0000
     1.0000   1.0000   1.0000   1.0000   1.0000   1.0000   1.0000   0.0000
     0.0000   0.0000   0.0000   0.0000   0.0000   0.0000   0.0000   0.0000
     0.0000   0.0000   0.0000   0.0000   0.0000   0.0000   0.0000   0.0000
     0.0000   0.0000   0.0000   0.0000   0.0000   0.0000   0.0000   0.0000
     0.0000   0.0000   0.0000   0.0000   0.0000   0.0000   0.0000   0.0000
     0.0000   0.0000   0.0000   0.0000   0.0000   0.0000   0.0000   0.0000
     0.0000   0.0000   0.0000   0.0000   0.0000   0.0000   0.0000   0.0000
     0.0000   0.0000   0.0000   0.0000   0.0000   0.0000   0.0000   0.0000
     0.0000   0.0000   0.0000   0.0000

          k = 0.2308 0.3108 0.0000 ( 23817 PWs)   bands (ev):

   -34.5611 -34.5609 -34.5603 -34.5601 -34.5354 -34.5353 -34.5351 -34.5348
   -34.5250 -34.5248 -34.4466 -34.4351 -34.4348 -34.3943 -34.3935 -27.3108
   -27.3105 -27.3082 -27.3079 -27.3010 -27.3006 -27.3001 -27.2997 -27.2991
   -27.2986  -9.6416  -9.2296  -8.5510  -6.5805  -6.1517  -2.2189  -1.8382
    -1.1343  -0.8752  -0.6757  -0.0809   0.8856   1.1598   1.6536   3.3209
     3.8238   3.8387   4.7604   5.5094   5.7272   6.3206   7.0801   7.5952
     7.6518   8.0606   8.7069   8.7876   9.5744   9.7563  10.4908  10.5827
    10.8475  11.1329  11.2549  11.8856  12.0586  12.0855  12.3777  12.5087
    12.7429  12.8973  13.1668  13.2746  13.3527  13.4017  14.0514  14.2520
    14.4779  14.6765  14.8981  15.2174  15.2901  15.3408  15.5389  16.0892
    16.1515  16.3629  16.8061  16.9539  17.1353  17.3085  17.3464  17.7432
    17.8081  18.1619  18.2567  18.3574  18.5591  18.9498  19.2773  19.4126
    19.5633  19.7627  19.8329  19.9573

     occupation numbers 
     1.0000   1.0000   1.0000   1.0000   1.0000   1.0000   1.0000   1.0000
     1.0000   1.0000   1.0000   1.0000   1.0000   1.0000   1.0000   1.0000
     1.0000   1.0000   1.0000   1.0000   1.0000   1.0000   1.0000   1.0000
     1.0000   1.0000   1.0000   1.0000   1.0000   1.0000   1.0000   1.0000
     1.0000   1.0000   1.0000   1.0000   1.0000   1.0000   1.0000   0.0000
     0.0000   0.0000   0.0000   0.0000   0.0000   0.0000   0.0000   0.0000
     0.0000   0.0000   0.0000   0.0000   0.0000   0.0000   0.0000   0.0000
     0.0000   0.0000   0.0000   0.0000   0.0000   0.0000   0.0000   0.0000
     0.0000   0.0000   0.0000   0.0000   0.0000   0.0000   0.0000   0.0000
     0.0000   0.0000   0.0000   0.0000   0.0000   0.0000   0.0000   0.0000
     0.0000   0.0000   0.0000   0.0000   0.0000   0.0000   0.0000   0.0000
     0.0000   0.0000   0.0000   0.0000   0.0000   0.0000   0.0000   0.0000
     0.0000   0.0000   0.0000   0.0000

          k = 0.2308 0.3996 0.0000 ( 23815 PWs)   bands (ev):

   -34.5609 -34.5608 -34.5602 -34.5600 -34.5354 -34.5354 -34.5351 -34.5348
   -34.5248 -34.5247 -34.4465 -34.4351 -34.4348 -34.3941 -34.3934 -27.3104
   -27.3100 -27.3080 -27.3077 -27.3012 -27.3009 -27.3000 -27.2995 -27.2992
   -27.2989  -9.2932  -8.9536  -8.4732  -6.8016  -6.5796  -2.3313  -2.2196
    -1.3317  -1.1383  -1.0153  -0.3052   0.8278   1.1610   1.4771   3.6341
     3.6679   3.9570   5.1282   5.6062   5.8730   6.8825   6.9562   7.6360
     8.1054   8.3883   8.5790   9.2420   9.6018   9.8533  10.4619  10.8783
    10.8796  11.1694  11.7049  11.8017  11.9878  12.3778  12.4088  12.5988
    12.6175  12.8129  12.9812  13.3556  13.5082  13.8626  13.9734  14.0549
    14.1476  14.4054  14.4451  14.5151  15.1608  15.3013  15.9646  16.3735
    16.5562  16.7840  16.9109  17.0033  17.1579  17.4755  17.7026  17.7617
[...]
     0.0000   0.0000   0.0000   0.0000

          k =-0.3846-0.1332 0.0000 ( 23841 PWs)   bands (ev):

   -36.3803 -36.3798 -36.3713 -36.3708 -36.3461 -36.3457 -36.3400 -36.3392
   -36.3272 -36.3265 -36.0789 -36.0770 -36.0577 -36.0239 -36.0185 -29.0591
   -29.0583 -29.0524 -29.0516 -29.0382 -29.0368 -29.0285 -29.0278 -29.0147
   -29.0129 -11.6093 -11.2068 -10.4596  -8.4894  -7.9378  -3.8881  -2.8618
    -2.4447  -2.2011  -1.7173  -1.0774  -0.2698   0.0277   0.8012   2.9957
     3.1963   3.6296   4.6813   5.0634   5.7463   6.2666   7.4996   7.7859
     8.3140   8.8802   9.1246   9.7769   9.9934  10.2953  10.7300  11.0487
    11.1192  11.4801  11.7870  11.9016  11.9598  12.4175  12.6168  13.1505
    13.2697  13.5815  13.6559  13.9914  14.0113  14.1683  14.3908  14.4482
    14.6446  15.6192  15.7766  16.1555  16.2580  16.2782  16.3060  16.5824
    16.6020  16.7347  16.8978  16.9903  17.1176  17.3107  17.5865  17.8914
    18.0682  18.3217  18.5140  18.6676  19.0008  19.0792  19.2103  19.5695
    20.0174  20.1027  20.1548  20.5007

     occupation numbers 
     1.0000   1.0000   1.0000   1.0000   1.0000   1.0000   1.0000   1.0000
     1.0000   1.0000   1.0000   1.0000   1.0000   1.0000   1.0000   1.0000
     1.0000   1.0000   1.0000   1.0000   1.0000   1.0000   1.0000   1.0000
     1.0000   1.0000   1.0000   1.0000   1.0000   1.0000   1.0000   1.0000
     1.0000   1.0000   1.0000   1.0000   1.0000   1.0000   1.0000   0.0000
     0.0000   0.0000   0.0000   0.0000   0.0000   0.0000   0.0000   0.0000
     0.0000   0.0000   0.0000   0.0000   0.0000   0.0000   0.0000   0.0000
     0.0000   0.0000   0.0000   0.0000   0.0000   0.0000   0.0000   0.0000
     0.0000   0.0000   0.0000   0.0000   0.0000   0.0000   0.0000   0.0000
     0.0000   0.0000   0.0000   0.0000   0.0000   0.0000   0.0000   0.0000
     0.0000   0.0000   0.0000   0.0000   0.0000   0.0000   0.0000   0.0000
     0.0000   0.0000   0.0000   0.0000   0.0000   0.0000   0.0000   0.0000
     0.0000   0.0000   0.0000   0.0000

          k =-0.3846-0.0444 0.0000 ( 23816 PWs)   bands (ev):

   -36.3805 -36.3801 -36.3737 -36.3730 -36.3483 -36.3479 -36.3404 -36.3396
   -36.3232 -36.3224 -36.0822 -36.0790 -36.0624 -36.0209 -36.0185 -29.0563
   -29.0555 -29.0490 -29.0481 -29.0370 -29.0357 -29.0306 -29.0292 -29.0219
   -29.0204 -11.6984 -11.2618 -10.4554  -8.3547  -7.9061  -3.5719  -3.1670
    -2.4080  -2.1454  -1.8518  -1.2768  -0.0416   0.2837   0.7927   3.0183
     3.4918   3.5664   4.5725   5.3052   5.5706   6.8371   7.4488   7.7098
     7.9826   8.3995   8.8172   9.2705   9.9069  10.1860  10.8158  10.9164
    11.2313  11.6212  11.9062  12.2608  12.3831  12.4595  12.8158  12.9818
    13.0944  13.2506  13.4861  13.5658  13.6807  13.9152  14.5710  14.6670
    14.7786  15.1267  15.3034  15.6864  15.8938  16.1413  16.2251  16.6506
    16.7098  17.0443  17.2673  17.4716  17.5910  17.7490  17.9458  18.2532
    18.2947  18.3943  18.5319  18.7029  18.9476  19.5878  19.8757  19.9712
    20.0352  20.1627  20.3515  20.4483

     occupation numbers 
     1.0000   1.0000   1.0000   1.0000   1.0000   1.0000   1.0000   1.0000
     1.0000   1.0000   1.0000   1.0000   1.0000   1.0000   1.0000   1.0000
     1.0000   1.0000   1.0000   1.0000   1.0000   1.0000   1.0000   1.0000
     1.0000   1.0000   1.0000   1.0000   1.0000   1.0000   1.0000   1.0000
     1.0000   1.0000   1.0000   1.0000   1.0000   1.0000   1.0000   0.0000
     0.0000   0.0000   0.0000   0.0000   0.0000   0.0000   0.0000   0.0000
     0.0000   0.0000   0.0000   0.0000   0.0000   0.0000   0.0000   0.0000
     0.0000   0.0000   0.0000   0.0000   0.0000   0.0000   0.0000   0.0000
     0.0000   0.0000   0.0000   0.0000   0.0000   0.0000   0.0000   0.0000
     0.0000   0.0000   0.0000   0.0000   0.0000   0.0000   0.0000   0.0000
     0.0000   0.0000   0.0000   0.0000   0.0000   0.0000   0.0000   0.0000
     0.0000   0.0000   0.0000   0.0000   0.0000   0.0000   0.0000   0.0000
     0.0000   0.0000   0.0000   0.0000

          k =-0.4615 0.2664 0.0000 ( 23850 PWs)   bands (ev):

   -36.3760 -36.3758 -36.3664 -36.3659 -36.3453 -36.3451 -36.3353 -36.3343
   -36.3281 -36.3274 -36.0790 -36.0785 -36.0522 -36.0217 -36.0127 -29.0595
   -29.0587 -29.0546 -29.0540 -29.0381 -29.0353 -29.0259 -29.0246 -29.0142
   -29.0123 -11.0032 -10.8505 -10.6215  -8.9595  -8.2908  -4.2941  -2.8541
    -2.5497  -2.4843  -1.7902  -1.2737  -0.2740  -0.0178   0.3849   2.8157
     3.2967   3.4856   4.8680   5.0194   5.7958   5.9426   7.5608   8.5876
     8.8526   9.2366   9.4584   9.8007  10.1617  10.4756  10.9327  11.4712
    11.6535  11.9057  12.0410  12.3379  12.3636  12.5338  12.7111  13.1138
    13.2384  13.5655  13.6614  13.8708  14.4101  14.4420  14.6194  14.8123
    14.8597  15.0126  15.0594  15.3061  15.5937  15.5954  15.7726  16.1600
    16.2535  16.4796  17.0479  17.1733  17.3160  17.4651  17.7953  18.0746
    18.3110  18.3927  18.4606  18.8151  19.0241  19.1797  19.1825  19.4790
    19.5246  20.2056  20.2858  20.3567

     occupation numbers 
     1.0000   1.0000   1.0000   1.0000   1.0000   1.0000   1.0000   1.0000
     1.0000   1.0000   1.0000   1.0000   1.0000   1.0000   1.0000   1.0000
     1.0000   1.0000   1.0000   1.0000   1.0000   1.0000   1.0000   1.0000
     1.0000   1.0000   1.0000   1.0000   1.0000   1.0000   1.0000   1.0000
     1.0000   1.0000   1.0000   1.0000   1.0000   1.0000   1.0000   0.0000
     0.0000   0.0000   0.0000   0.0000   0.0000   0.0000   0.0000   0.0000
     0.0000   0.0000   0.0000   0.0000   0.0000   0.0000   0.0000   0.0000
     0.0000   0.0000   0.0000   0.0000   0.0000   0.0000   0.0000   0.0000
     0.0000   0.0000   0.0000   0.0000   0.0000   0.0000   0.0000   0.0000
     0.0000   0.0000   0.0000   0.0000   0.0000   0.0000   0.0000   0.0000
     0.0000   0.0000   0.0000   0.0000   0.0000   0.0000   0.0000   0.0000
     0.0000   0.0000   0.0000   0.0000   0.0000   0.0000   0.0000   0.0000
     0.0000   0.0000   0.0000   0.0000

          k =-0.4615 0.3552 0.0000 ( 23826 PWs)   bands (ev):

   -36.3747 -36.3744 -36.3658 -36.3653 -36.3440 -36.3437 -36.3351 -36.3341
   -36.3289 -36.3282 -36.0799 -36.0760 -36.0550 -36.0186 -36.0113 -29.0580
   -29.0573 -29.0524 -29.0518 -29.0377 -29.0360 -29.0251 -29.0245 -29.0151
   -29.0131 -10.8280 -10.7943 -10.6803  -9.0111  -8.3983  -4.2821  -2.8728
    -2.7857  -2.5059  -1.8783  -1.3385  -0.2782  -0.0726   0.5516   3.1043
     3.1083   3.4817   4.9541   5.0990   5.9018   5.9829   7.6336   8.7717
     9.0642   9.1202   9.2489  10.0435  10.1902  10.1923  10.9004  11.4052
    11.4580  11.6994  11.9856  12.2814  12.3416  12.4283  12.9002  12.9441
    13.1071  13.3381  13.6471  14.0598  14.1334  14.4861  14.7886  14.8400
    15.0016  15.0818  15.1122  15.1321  15.6210  15.6309  16.0004  16.3066
    16.5309  16.6619  16.9185  17.1099  17.2415  17.7934  17.8394  18.0657
    18.3861  18.8076  18.8389  18.9936  19.0503  19.0978  19.2387  19.7708
    19.7956  19.9516  19.9774  20.0680

     occupation numbers 
     1.0000   1.0000   1.0000   1.0000   1.0000   1.0000   1.0000   1.0000
     1.0000   1.0000   1.0000   1.0000   1.0000   1.0000   1.0000   1.0000
     1.0000   1.0000   1.0000   1.0000   1.0000   1.0000   1.0000   1.0000
     1.0000   1.0000   1.0000   1.0000   1.0000   1.0000   1.0000   1.0000
     1.0000   1.0000   1.0000   1.0000   1.0000   1.0000   1.0000   0.0000
     0.0000   0.0000   0.0000   0.0000   0.0000   0.0000   0.0000   0.0000
     0.0000   0.0000   0.0000   0.0000   0.0000   0.0000   0.0000   0.0000
     0.0000   0.0000   0.0000   0.0000   0.0000   0.0000   0.0000   0.0000
     0.0000   0.0000   0.0000   0.0000   0.0000   0.0000   0.0000   0.0000
     0.0000   0.0000   0.0000   0.0000   0.0000   0.0000   0.0000   0.0000
     0.0000   0.0000   0.0000   0.0000   0.0000   0.0000   0.0000   0.0000
     0.0000   0.0000   0.0000   0.0000   0.0000   0.0000   0.0000   0.0000
     0.0000   0.0000   0.0000   0.0000

          k =-0.4615 0.4439 0.0000 ( 23833 PWs)   bands (ev):

   -36.3744 -36.3741 -36.3680 -36.3675 -36.3441 -36.3439 -36.3322 -36.3311
   -36.3266 -36.3259 -36.0807 -36.0727 -36.0597 -36.0169 -36.0124 -29.0525
   -29.0518 -29.0484 -29.0478 -29.0357 -29.0352 -29.0258 -29.0252 -29.0172
   -29.0151 -10.8668 -10.7269 -10.5159  -8.9890  -8.5601  -4.1452  -3.1856
    -2.9831  -2.5093  -1.9171  -1.6688  -0.3021   0.1003   0.6991   3.0337
     3.4710   3.6008   4.9154   5.3892   5.8878   6.4842   7.8194   8.6931
     8.9716   9.2403   9.3983   9.8005  10.0716  10.2637  10.7204  10.8169
    11.0058  11.3257  11.5303  11.9931  12.2461  12.4499  12.6253  12.8719
    12.9579  13.2054  13.6996  13.7991  14.0500  14.5504  14.6871  14.8766
    14.9502  15.2047  15.4386  15.5615  15.8699  15.9086  16.4156  16.6179
    16.8840  16.9367  17.5222  17.5837  17.7024  17.7426  18.0861  18.1813
    18.4413  18.6025  18.7800  18.8716  19.2628  19.4783  19.5382  19.6587
    19.7237  20.0032  20.2185  20.5492

     occupation numbers 
     1.0000   1.0000   1.0000   1.0000   1.0000   1.0000   1.0000   1.0000
     1.0000   1.0000   1.0000   1.0000   1.0000   1.0000   1.0000   1.0000
     1.0000   1.0000   1.0000   1.0000   1.0000   1.0000   1.0000   1.0000
     1.0000   1.0000   1.0000   1.0000   1.0000   1.0000   1.0000   1.0000
     1.0000   1.0000   1.0000   1.0000   1.0000   1.0000   1.0000   0.0000
     0.0000   0.0000   0.0000   0.0000   0.0000   0.0000   0.0000   0.0000
     0.0000   0.0000   0.0000   0.0000   0.0000   0.0000   0.0000   0.0000
     0.0000   0.0000   0.0000   0.0000   0.0000   0.0000   0.0000   0.0000
     0.0000   0.0000   0.0000   0.0000   0.0000   0.0000   0.0000   0.0000
     0.0000   0.0000   0.0000   0.0000   0.0000   0.0000   0.0000   0.0000
     0.0000   0.0000   0.0000   0.0000   0.0000   0.0000   0.0000   0.0000
     0.0000   0.0000   0.0000   0.0000   0.0000   0.0000   0.0000   0.0000
     0.0000   0.0000   0.0000   0.0000

          k =-0.4615 0.5327 0.0000 ( 23819 PWs)   bands (ev):

   -36.3737 -36.3734 -36.3610 -36.3604 -36.3435 -36.3432 -36.3335 -36.3325
   -36.3262 -36.3256 -36.0779 -36.0699 -36.0591 -36.0153 -36.0127 -29.0491
   -29.0485 -29.0462 -29.0458 -29.0332 -29.0325 -29.0290 -29.0284 -29.0256
   -29.0239 -10.9071 -10.6938 -10.3645  -8.9065  -8.7326  -3.9163  -3.5982
    -2.9258  -2.5369  -2.2606  -1.6522  -0.3204   0.3241   0.5895   3.2594
     3.4680   3.7215   5.1393   5.5246   5.7871   7.2895   8.1767   8.3164
     8.7358   8.9045   9.1982   9.7452  10.0566  10.2127  10.3545  10.8813
    11.0109  11.0850  11.4274  11.6806  12.1251  12.2234  12.2863  12.6557
    13.0560  13.3802  13.4476  13.9228  14.1986  14.5158  14.6974  14.7434
    14.9081  15.0496  15.2709  15.5031  16.0968  16.3821  16.3989  16.7324
    16.9398  17.2630  17.4533  17.8975  18.1189  18.2356  18.5045  18.6891
    18.8857  19.1120  19.1641  19.3824  19.5758  19.6094  19.7643  19.9114
    20.1118  20.3593  20.4855  20.5647

     occupation numbers 
     1.0000   1.0000   1.0000   1.0000   1.0000   1.0000   1.0000   1.0000
     1.0000   1.0000   1.0000   1.0000   1.0000   1.0000   1.0000   1.0000
     1.0000   1.0000   1.0000   1.0000   1.0000   1.0000   1.0000   1.0000
     1.0000   1.0000   1.0000   1.0000   1.0000   1.0000   1.0000   1.0000
     1.0000   1.0000   1.0000   1.0000   1.0000   1.0000   1.0000   0.0000
     0.0000   0.0000   0.0000   0.0000   0.0000   0.0000   0.0000   0.0000
     0.0000   0.0000   0.0000   0.0000   0.0000   0.0000   0.0000   0.0000
     0.0000   0.0000   0.0000   0.0000   0.0000   0.0000   0.0000   0.0000
     0.0000   0.0000   0.0000   0.0000   0.0000   0.0000   0.0000   0.0000
     0.0000   0.0000   0.0000   0.0000   0.0000   0.0000   0.0000   0.0000
     0.0000   0.0000   0.0000   0.0000   0.0000   0.0000   0.0000   0.0000
     0.0000   0.0000   0.0000   0.0000   0.0000   0.0000   0.0000   0.0000
     0.0000   0.0000   0.0000   0.0000

          k =-0.4615-0.1776 0.0000 ( 23827 PWs)   bands (ev):

   -36.3761 -36.3756 -36.3675 -36.3669 -36.3445 -36.3442 -36.3365 -36.3357
   -36.3278 -36.3272 -36.0795 -36.0761 -36.0556 -36.0200 -36.0131 -29.0583
   -29.0575 -29.0524 -29.0518 -29.0379 -29.0363 -29.0262 -29.0256 -29.0149
   -29.0129 -11.1733 -10.9127 -10.4993  -8.8500  -8.2710  -4.1819  -2.8996
    -2.7095  -2.4031  -1.8128  -1.2804  -0.3092  -0.0203   0.6179   3.0547
     3.1466   3.5406   4.8768   5.0983   5.8408   6.1029   7.5748   8.3456
     8.6517   9.3552   9.6061   9.6181  10.1746  10.4484  10.7887  10.9532
    11.3225  11.5094  11.9961  12.2321  12.4175  12.5676  12.7103  13.1110
    13.2309  13.4414  13.6213  13.7577  14.0493  14.2825  14.4199  14.7432
    14.9708  15.3148  15.5434  15.6827  15.7613  15.9739  16.1484  16.4186
    16.5676  16.6866  16.7005  17.1422  17.5245  17.6547  17.7015  18.0478
    18.1588  18.4895  18.5908  18.6672  18.8379  19.0533  19.2692  19.5236
    19.6348  19.8478  20.0391  20.3587

     occupation numbers 
     1.0000   1.0000   1.0000   1.0000   1.0000   1.0000   1.0000   1.0000
     1.0000   1.0000   1.0000   1.0000   1.0000   1.0000   1.0000   1.0000
     1.0000   1.0000   1.0000   1.0000   1.0000   1.0000   1.0000   1.0000
     1.0000   1.0000   1.0000   1.0000   1.0000   1.0000   1.0000   1.0000
     1.0000   1.0000   1.0000   1.0000   1.0000   1.0000   1.0000   0.0000
     0.0000   0.0000   0.0000   0.0000   0.0000   0.0000   0.0000   0.0000
     0.0000   0.0000   0.0000   0.0000   0.0000   0.0000   0.0000   0.0000
     0.0000   0.0000   0.0000   0.0000   0.0000   0.0000   0.0000   0.0000
     0.0000   0.0000   0.0000   0.0000   0.0000   0.0000   0.0000   0.0000
     0.0000   0.0000   0.0000   0.0000   0.0000   0.0000   0.0000   0.0000
     0.0000   0.0000   0.0000   0.0000   0.0000   0.0000   0.0000   0.0000
     0.0000   0.0000   0.0000   0.0000   0.0000   0.0000   0.0000   0.0000
     0.0000   0.0000   0.0000   0.0000

          k =-0.4615-0.0888 0.0000 ( 23823 PWs)   bands (ev):

   -36.3758 -36.3754 -36.3697 -36.3691 -36.3468 -36.3463 -36.3350 -36.3342
   -36.3265 -36.3258 -36.0816 -36.0757 -36.0605 -36.0187 -36.0151 -29.0531
   -29.0524 -29.0480 -29.0473 -29.0357 -29.0350 -29.0279 -29.0274 -29.0176
   -29.0159 -11.2807 -10.9503 -10.4106  -8.7007  -8.3198  -3.9546  -3.2043
    -2.6721  -2.5297  -1.9073  -1.4434  -0.2304   0.1364   0.7687   2.9517
     3.5450   3.6644   4.7394   5.3730   5.8035   6.6133   7.7477   8.1440
     8.5387   8.6903   9.3420   9.4568  10.0957  10.2665  10.5762  10.9512
    11.3222  11.4706  11.8399  11.9361  12.3214  12.6513  12.9570  13.1233
    13.2369  13.5084  13.5719  13.6523  13.7765  14.0717  14.2328  14.3214
    14.8742  14.9878  15.2649  15.7349  16.0395  16.2660  16.3827  16.4657
    16.9448  17.1407  17.4202  17.5490  17.6332  17.9189  18.0409  18.1072
    18.3146  18.5984  18.6728  18.8599  18.9747  19.0939  19.7011  19.8083
    19.9691  20.2358  20.3039  20.5725

     occupation numbers 
     1.0000   1.0000   1.0000   1.0000   1.0000   1.0000   1.0000   1.0000
     1.0000   1.0000   1.0000   1.0000   1.0000   1.0000   1.0000   1.0000
     1.0000   1.0000   1.0000   1.0000   1.0000   1.0000   1.0000   1.0000
     1.0000   1.0000   1.0000   1.0000   1.0000   1.0000   1.0000   1.0000
     1.0000   1.0000   1.0000   1.0000   1.0000   1.0000   1.0000   0.0000
     0.0000   0.0000   0.0000   0.0000   0.0000   0.0000   0.0000   0.0000
     0.0000   0.0000   0.0000   0.0000   0.0000   0.0000   0.0000   0.0000
     0.0000   0.0000   0.0000   0.0000   0.0000   0.0000   0.0000   0.0000
     0.0000   0.0000   0.0000   0.0000   0.0000   0.0000   0.0000   0.0000
     0.0000   0.0000   0.0000   0.0000   0.0000   0.0000   0.0000   0.0000
     0.0000   0.0000   0.0000   0.0000   0.0000   0.0000   0.0000   0.0000
     0.0000   0.0000   0.0000   0.0000   0.0000   0.0000   0.0000   0.0000
     0.0000   0.0000   0.0000   0.0000

     highest occupied, lowest unoccupied level (ev):     1.0618    2.4226

!    total energy              =    -805.34638647 Ry
     estimated scf accuracy    <       0.00000005 Ry

     convergence has been achieved in   3 iterations

     Using ACE for calculation of exact exchange
     ACE projected onto   100 (nbndproj) and applied to   100 (nbnd) bands

!!   total energy              =    -805.34638653 Ry
     Harris-Foulkes estimate   =    -805.34638613 Ry
     est. exchange err (dexx)  =       0.00000006 Ry
     - averaged Fock potential =      22.99437210 Ry
     + Fock energy (ACE)       =     -11.49719752 Ry

     EXX self-consistency reached

     Writing all to output data dir tmp/Sb2Te3-uatsx-c4-0.0.save/ :
     XML data file, charge density, pseudopotentials, collected wavefunctions

     init_run     :      3.04s CPU      3.38s WALL (       1 calls)
     electrons    :    784.37s CPU    794.96s WALL (       6 calls)

     Called by init_run:
     aceinit0     :      0.00s CPU      0.00s WALL (       1 calls)
     wfcinit      :      2.78s CPU      2.92s WALL (       1 calls)
     wfcinit:wfcr :      2.70s CPU      2.85s WALL (      43 calls)
     potinit      :      0.01s CPU      0.01s WALL (       1 calls)
     hinit0       :      0.16s CPU      0.30s WALL (       1 calls)

     Called by electrons:
     c_bands      :    741.03s CPU    750.16s WALL (      41 calls)
     sum_band     :     42.52s CPU     43.49s WALL (      41 calls)
     v_of_rho     :      0.40s CPU      0.41s WALL (      42 calls)
     v_h          :      0.03s CPU      0.03s WALL (      42 calls)
     v_xc         :      0.37s CPU      0.38s WALL (      42 calls)
     mix_rho      :      0.05s CPU      0.06s WALL (      41 calls)
     energy_londo :      0.06s CPU      0.06s WALL (       6 calls)

     Called by c_bands:
     init_us_2    :      0.91s CPU      0.95s WALL (    3569 calls)
     cegterg      :    677.61s CPU    686.07s WALL (    1784 calls)

     Called by sum_band:
     sum_band:wei :      0.02s CPU      0.02s WALL (      41 calls)
     sum_band:loo :     42.42s CPU     43.39s WALL (      41 calls)
     sum_band:buf :      0.53s CPU      0.57s WALL (    1763 calls)
     sum_band:ini :      0.45s CPU      0.48s WALL (    1763 calls)

     Called by *egterg:
     cdiaghg      :    261.16s CPU    262.62s WALL (   17203 calls)
     cegterg:over :     37.04s CPU     37.45s WALL (   15698 calls)
     cegterg:upda :      8.91s CPU      9.02s WALL (   15698 calls)
     cegterg:last :     12.39s CPU     12.51s WALL (    5014 calls)
     h_psi        :    328.84s CPU    335.06s WALL (   17525 calls)
     g_psi        :      1.32s CPU      1.33s WALL (   15698 calls)

     Called by h_psi:
     h_psi:calbec :     17.79s CPU     18.04s WALL (   17525 calls)
     vloc_psi     :    285.05s CPU    290.75s WALL (   17525 calls)
     add_vuspsi   :      4.49s CPU      4.56s WALL (   17525 calls)

     General routines
     calbec       :     37.61s CPU     38.09s WALL (   31775 calls)
     fft          :      0.51s CPU      0.64s WALL (     413 calls)
     ffts         :      0.03s CPU      0.03s WALL (      41 calls)
     fftw         :    312.67s CPU    318.95s WALL ( 1365478 calls)
     fftc         :   2757.79s CPU   2790.34s WALL ( 5160000 calls)
     fftcw        :     27.28s CPU     27.65s WALL (   77400 calls)

     Parallel routines

     EXX routines
     exx_grid     :      0.01s CPU      0.01s WALL (       1 calls)
     exxinit      :    143.61s CPU    145.18s WALL (       6 calls)
     vexx         :   3124.37s CPU   3161.48s WALL (     258 calls)
     matcalc      :     19.97s CPU     20.18s WALL (   14250 calls)
     aceupdate    :      0.25s CPU      0.25s WALL (     258 calls)
     vexxace      :     24.20s CPU     24.45s WALL (   13519 calls)
     aceinit      :   3125.41s CPU   3162.56s WALL (     258 calls)

     PWSCF        :      1h10m CPU      1h11m WALL


   This run was terminated on:   0:47:16  20May2025            

=------------------------------------------------------------------------------=
   JOB DONE.
=------------------------------------------------------------------------------=
