
     Program PWSCF v.7.3.1 starts on 20May2025 at  1: 2:42 

     This program is part of the open-source Quantum ESPRESSO suite
     for quantum simulation of materials; please cite
         "P. Giannozzi et al., J. Phys.:Condens. Matter 21 395502 (2009);
         "P. Giannozzi et al., J. Phys.:Condens. Matter 29 465901 (2017);
         "P. Giannozzi et al., J. Chem. Phys. 152 154105 (2020);
          URL http://www.quantum-espresso.org", 
     in publications or presentations arising from this work. More details at
     http://www.quantum-espresso.org/quote

     Parallel version (MPI & OpenMP), running on     168 processor cores
     Number of MPI processes:               168
     Threads/MPI process:                     1

     MPI processes distributed on     7 nodes
     109289 MiB available memory on the printing compute node when the environment starts

     Waiting for input...
     Reading input from standard input

     Current dimensions of program PWSCF are:
     Max number of different atomic species (ntypx) = 10
     Max number of k-points (npk) =  40000
     Max angular momentum in pseudopotentials (lmaxx) =  4

     IMPORTANT: XC functional enforced from input :
     Exchange-correlation= GAUP
                           (   1   4  20   4   0   0   0)
     EXX-fraction              =        0.24
     Any further DFT definition will be discarded
     Please, verify this is what you really want


     K-points division:     npool     =       2
     R & G space division:  proc/nbgrp/npool/nimage =      84
     Subspace diagonalization in iterative solution of the eigenvalue problem:
     a serial algorithm will be used

     EXX: q-point mesh:     1    1    1
     EXX: setup a grid of 85 q-points centered on each k-point
     (k+q)-points:
   0.0000000   0.0000000   0.0000000         1    1
   0.0000000   0.0897122   0.0000000         2    1
   0.0000000   0.1794244   0.0000000         3    1
   0.0000000   0.2691367   0.0000000         4    1
   0.0000000   0.3588489   0.0000000         5    1
   0.0000000   0.4485611   0.0000000         6    1
   0.0000000   0.5382733   0.0000000         7    1
   0.0769231   0.0444120   0.0000000         8    1
   0.0769231   0.1341242   0.0000000         9    1
   0.0769231   0.2238364   0.0000000        10    1
   0.0769231   0.3135486   0.0000000        11    1
   0.0769231   0.4032609   0.0000000        12    1
   0.0769231   0.4929731   0.0000000        13    1
   0.0769231   0.5826853   0.0000000        14    1
   0.0769231  -0.4938613   0.0000000        15    1
   0.0769231  -0.4041491   0.0000000        16    1
   0.0769231  -0.3144369   0.0000000        17    1
   0.0769231  -0.2247247   0.0000000        18    1
   0.0769231  -0.1350124   0.0000000        19    1
   0.0769231  -0.0453002   0.0000000        20    1
   0.1538462   0.0888240   0.0000000        21    1
   0.1538462   0.1785362   0.0000000        22    1
   0.1538462   0.2682484   0.0000000        23    1
   0.1538462   0.3579606   0.0000000        24    1
   0.1538462   0.4476728   0.0000000        25    1
   0.1538462   0.5373851   0.0000000        26    1
   0.1538462   0.6270973   0.0000000        27    1
   0.1538462  -0.4494493   0.0000000        28    1
   0.1538462  -0.3597371   0.0000000        29    1
   0.1538462  -0.2700249   0.0000000        30    1
   0.1538462  -0.1803127   0.0000000        31    1
   0.1538462  -0.0906005   0.0000000        32    1
   0.1538462  -0.0008882   0.0000000        33    1
   0.2307692   0.1332360   0.0000000        34    1
   0.2307692   0.2229482   0.0000000        35    1
   0.2307692   0.3126604   0.0000000        36    1
   0.2307692   0.4023726   0.0000000        37    1
   0.2307692   0.4920848   0.0000000        38    1
   0.2307692   0.5817971   0.0000000        39    1
   0.2307692   0.6715093   0.0000000        40    1
   0.2307692  -0.4050373   0.0000000        41    1
   0.2307692  -0.3153251   0.0000000        42    1
   0.2307692  -0.2256129   0.0000000        43    1
   0.2307692  -0.1359007   0.0000000        44    1
   0.2307692  -0.0461885   0.0000000        45    1
   0.2307692   0.0435237   0.0000000        46    1
   0.3076923   0.1776480   0.0000000        47    1
   0.3076923   0.2673602   0.0000000        48    1
   0.3076923   0.3570724   0.0000000        49    1
   0.3076923   0.4467846   0.0000000        50    1
   0.3076923   0.5364968   0.0000000        51    1
   0.3076923   0.6262090   0.0000000        52    1
   0.3076923   0.7159213   0.0000000        53    1
   0.3076923  -0.3606253   0.0000000        54    1
   0.3076923  -0.2709131   0.0000000        55    1
   0.3076923  -0.1812009   0.0000000        56    1
   0.3076923  -0.0914887   0.0000000        57    1
   0.3076923  -0.0017765   0.0000000        58    1
   0.3076923   0.0879357   0.0000000        59    1
   0.3846154   0.2220599   0.0000000        60    1
   0.3846154   0.3117722   0.0000000        61    1
   0.3846154   0.4014844   0.0000000        62    1
   0.3846154   0.4911966   0.0000000        63    1
   0.3846154   0.5809088   0.0000000        64    1
   0.3846154   0.6706210   0.0000000        65    1
   0.3846154   0.7603332   0.0000000        66    1
   0.3846154  -0.3162134   0.0000000        67    1
   0.3846154  -0.2265011   0.0000000        68    1
   0.3846154  -0.1367889   0.0000000        69    1
   0.3846154  -0.0470767   0.0000000        70    1
   0.3846154   0.0426355   0.0000000        71    1
   0.3846154   0.1323477   0.0000000        72    1
   0.4615385   0.2664719   0.0000000        73    1
   0.4615385   0.3561841   0.0000000        74    1
   0.4615385   0.4458964   0.0000000        75    1
   0.4615385   0.5356086   0.0000000        76    1
   0.4615385   0.6253208   0.0000000        77    1
   0.4615385   0.7150330   0.0000000        78    1
   0.4615385   0.8047452   0.0000000        79    1
   0.4615385  -0.2718014   0.0000000        80    1
   0.4615385  -0.1820892   0.0000000        81    1
   0.4615385  -0.0923769   0.0000000        82    1
   0.4615385  -0.0026647   0.0000000        83    1
   0.4615385   0.0870475   0.0000000        84    1
   0.4615385   0.1767597   0.0000000        85    1

     Parallelization info
     --------------------
     sticks:   dense  smooth     PW     G-vecs:    dense   smooth      PW
     Min          15      15      4                 2281     2281     352
     Max          16      16      5                 2308     2308     385
     Sum        1285    1285    379               192371   192371   30683

     Using Slab Decomposition



     bravais-lattice index     =            0
     lattice parameter (alat)  =       8.2271  a.u.
     unit-cell volume          =    2430.6623 (a.u.)^3
     number of atoms/cell      =            5
     number of atomic types    =            2
     number of electrons       =        78.00
     number of Kohn-Sham states=          100
     kinetic-energy cutoff     =      70.0000  Ry
     charge density cutoff     =     280.0000  Ry
     cutoff for Fock operator  =     280.0000  Ry
     scf convergence threshold =      1.0E-07
     mixing beta               =       0.7000
     number of iterations used =            8  plain     mixing
     Exchange-correlation= GAUP
                           (   1   4  20   4   0   0   0)
     EXX-fraction              =        0.24

     celldm(1)=   8.227090  celldm(2)=   0.000000  celldm(3)=   0.000000
     celldm(4)=   0.000000  celldm(5)=   0.000000  celldm(6)=   0.000000

     crystal axes: (cart. coord. in units of alat)
               a(1) = (   1.000000   0.000000   0.000000 )  
               a(2) = (  -0.495050   0.857443   0.000000 )  
               a(3) = (   0.000000   0.000000   5.090739 )  

     reciprocal axes: (cart. coord. in units 2 pi/alat)
               b(1) = (  1.000000  0.577356 -0.000000 )  
               b(2) = (  0.000000  1.166259  0.000000 )  
               b(3) = (  0.000000 -0.000000  0.196435 )  


     PseudoPot. # 1 for Sb read from file:
     /zfs-home/202401017n/pseudos/Sb_ONCV_PBE-1.2.upf
     MD5 check sum: 0417cd6c0fe8ce4611e2b23135f1abd9
     Pseudo is Norm-conserving, Zval = 15.0
     Generated using ONCVPSP code by D. R. Hamann
     Using radial grid of  602 points,  6 beta functions with: 
                l(1) =   0
                l(2) =   0
                l(3) =   1
                l(4) =   1
                l(5) =   2
                l(6) =   2

     PseudoPot. # 2 for Te read from file:
     /zfs-home/202401017n/pseudos/Te_ONCV_PBE-1.2.upf
     MD5 check sum: dd4de4dac1e38587f63aaf3700bb29d3
     Pseudo is Norm-conserving, Zval = 16.0
     Generated using ONCVPSP code by D. R. Hamann
     Using radial grid of  602 points,  6 beta functions with: 
                l(1) =   0
                l(2) =   0
                l(3) =   1
                l(4) =   1
                l(5) =   2
                l(6) =   2

     atomic species   valence    mass     pseudopotential
     Sb               15.00   121.76000     Sb( 1.00)
     Te               16.00   127.60000     Te( 1.00)

     No symmetry found


                                    s                        frac. trans.

      isym =  1     identity                                     

 cryst.   s( 1) = (     1          0          0      )
                  (     0          1          0      )
                  (     0          0          1      )

 cart.    s( 1) = (  1.0000000  0.0000000  0.0000000 )
                  (  0.0000000  1.0000000  0.0000000 )
                  (  0.0000000  0.0000000  1.0000000 )


   Cartesian axes

     site n.     atom                  positions (alat units)
         1        Sb     tau(   1) = (   0.5788554   0.4207610   3.0040749  )
         2        Te     tau(   2) = (   0.5752577   0.4138624   1.6972962  )
         3        Sb     tau(   3) = (   0.0743102   0.1298379   2.0866212  )
         4        Te     tau(   4) = (   0.0782247   0.1361538   3.3933943  )
         5        Te     tau(   5) = (   0.0792404   0.7036244   2.5453648  )

     -------------------------------------------------
     Parameters for Dispersion (Grimme-D2) Correction:
     -------------------------------------------------
       atom      VdW radius       C_6     

        Sb         3.555       1333.532
        Te         3.575       1101.101

   Crystallographic axes

     site n.     atom                  positions (cryst. coord.)
         1        Sb     tau(   1) = (  0.8217842  0.4907162  0.5901058  )
         2        Te     tau(   2) = (  0.8142035  0.4826706  0.3334086  )
         3        Sb     tau(   3) = (  0.1492728  0.1514246  0.4098857  )
         4        Te     tau(   4) = (  0.1568340  0.1587906  0.6665818  )
         5        Te     tau(   5) = (  0.4854821  0.8206082  0.4999990  )

     number of k points=    85
                       cart. coord. in units 2pi/alat
        k(    1) = (   0.0000000   0.0000000   0.0000000), wk =   0.0118343
        k(    2) = (   0.0000000   0.0897122   0.0000000), wk =   0.0236686
        k(    3) = (   0.0000000   0.1794244   0.0000000), wk =   0.0236686
        k(    4) = (   0.0000000   0.2691367   0.0000000), wk =   0.0236686
        k(    5) = (   0.0000000   0.3588489   0.0000000), wk =   0.0236686
        k(    6) = (   0.0000000   0.4485611   0.0000000), wk =   0.0236686
        k(    7) = (   0.0000000   0.5382733   0.0000000), wk =   0.0236686
        k(    8) = (   0.0769231   0.0444120   0.0000000), wk =   0.0236686
        k(    9) = (   0.0769231   0.1341242   0.0000000), wk =   0.0236686
        k(   10) = (   0.0769231   0.2238364   0.0000000), wk =   0.0236686
        k(   11) = (   0.0769231   0.3135486   0.0000000), wk =   0.0236686
        k(   12) = (   0.0769231   0.4032609   0.0000000), wk =   0.0236686
        k(   13) = (   0.0769231   0.4929731   0.0000000), wk =   0.0236686
        k(   14) = (   0.0769231   0.5826853   0.0000000), wk =   0.0236686
        k(   15) = (   0.0769231  -0.4938613   0.0000000), wk =   0.0236686
        k(   16) = (   0.0769231  -0.4041491   0.0000000), wk =   0.0236686
        k(   17) = (   0.0769231  -0.3144369   0.0000000), wk =   0.0236686
        k(   18) = (   0.0769231  -0.2247247   0.0000000), wk =   0.0236686
        k(   19) = (   0.0769231  -0.1350124   0.0000000), wk =   0.0236686
        k(   20) = (   0.0769231  -0.0453002   0.0000000), wk =   0.0236686
        k(   21) = (   0.1538462   0.0888240   0.0000000), wk =   0.0236686
        k(   22) = (   0.1538462   0.1785362   0.0000000), wk =   0.0236686
        k(   23) = (   0.1538462   0.2682484   0.0000000), wk =   0.0236686
        k(   24) = (   0.1538462   0.3579606   0.0000000), wk =   0.0236686
        k(   25) = (   0.1538462   0.4476728   0.0000000), wk =   0.0236686
        k(   26) = (   0.1538462   0.5373851   0.0000000), wk =   0.0236686
        k(   27) = (   0.1538462   0.6270973   0.0000000), wk =   0.0236686
        k(   28) = (   0.1538462  -0.4494493   0.0000000), wk =   0.0236686
        k(   29) = (   0.1538462  -0.3597371   0.0000000), wk =   0.0236686
        k(   30) = (   0.1538462  -0.2700249   0.0000000), wk =   0.0236686
        k(   31) = (   0.1538462  -0.1803127   0.0000000), wk =   0.0236686
        k(   32) = (   0.1538462  -0.0906005   0.0000000), wk =   0.0236686
        k(   33) = (   0.1538462  -0.0008882   0.0000000), wk =   0.0236686
        k(   34) = (   0.2307692   0.1332360   0.0000000), wk =   0.0236686
        k(   35) = (   0.2307692   0.2229482   0.0000000), wk =   0.0236686
        k(   36) = (   0.2307692   0.3126604   0.0000000), wk =   0.0236686
        k(   37) = (   0.2307692   0.4023726   0.0000000), wk =   0.0236686
        k(   38) = (   0.2307692   0.4920848   0.0000000), wk =   0.0236686
        k(   39) = (   0.2307692   0.5817971   0.0000000), wk =   0.0236686
        k(   40) = (   0.2307692   0.6715093   0.0000000), wk =   0.0236686
        k(   41) = (   0.2307692  -0.4050373   0.0000000), wk =   0.0236686
        k(   42) = (   0.2307692  -0.3153251   0.0000000), wk =   0.0236686
        k(   43) = (   0.2307692  -0.2256129   0.0000000), wk =   0.0236686
        k(   44) = (   0.2307692  -0.1359007   0.0000000), wk =   0.0236686
        k(   45) = (   0.2307692  -0.0461885   0.0000000), wk =   0.0236686
        k(   46) = (   0.2307692   0.0435237   0.0000000), wk =   0.0236686
        k(   47) = (   0.3076923   0.1776480   0.0000000), wk =   0.0236686
        k(   48) = (   0.3076923   0.2673602   0.0000000), wk =   0.0236686
        k(   49) = (   0.3076923   0.3570724   0.0000000), wk =   0.0236686
        k(   50) = (   0.3076923   0.4467846   0.0000000), wk =   0.0236686
        k(   51) = (   0.3076923   0.5364968   0.0000000), wk =   0.0236686
        k(   52) = (   0.3076923   0.6262090   0.0000000), wk =   0.0236686
        k(   53) = (   0.3076923   0.7159213   0.0000000), wk =   0.0236686
        k(   54) = (   0.3076923  -0.3606253   0.0000000), wk =   0.0236686
        k(   55) = (   0.3076923  -0.2709131   0.0000000), wk =   0.0236686
        k(   56) = (   0.3076923  -0.1812009   0.0000000), wk =   0.0236686
        k(   57) = (   0.3076923  -0.0914887   0.0000000), wk =   0.0236686
        k(   58) = (   0.3076923  -0.0017765   0.0000000), wk =   0.0236686
        k(   59) = (   0.3076923   0.0879357   0.0000000), wk =   0.0236686
        k(   60) = (   0.3846154   0.2220599   0.0000000), wk =   0.0236686
        k(   61) = (   0.3846154   0.3117722   0.0000000), wk =   0.0236686
        k(   62) = (   0.3846154   0.4014844   0.0000000), wk =   0.0236686
        k(   63) = (   0.3846154   0.4911966   0.0000000), wk =   0.0236686
        k(   64) = (   0.3846154   0.5809088   0.0000000), wk =   0.0236686
        k(   65) = (   0.3846154   0.6706210   0.0000000), wk =   0.0236686
        k(   66) = (   0.3846154   0.7603332   0.0000000), wk =   0.0236686
        k(   67) = (   0.3846154  -0.3162134   0.0000000), wk =   0.0236686
        k(   68) = (   0.3846154  -0.2265011   0.0000000), wk =   0.0236686
        k(   69) = (   0.3846154  -0.1367889   0.0000000), wk =   0.0236686
        k(   70) = (   0.3846154  -0.0470767   0.0000000), wk =   0.0236686
        k(   71) = (   0.3846154   0.0426355   0.0000000), wk =   0.0236686
        k(   72) = (   0.3846154   0.1323477   0.0000000), wk =   0.0236686
        k(   73) = (   0.4615385   0.2664719   0.0000000), wk =   0.0236686
        k(   74) = (   0.4615385   0.3561841   0.0000000), wk =   0.0236686
        k(   75) = (   0.4615385   0.4458964   0.0000000), wk =   0.0236686
        k(   76) = (   0.4615385   0.5356086   0.0000000), wk =   0.0236686
        k(   77) = (   0.4615385   0.6253208   0.0000000), wk =   0.0236686
        k(   78) = (   0.4615385   0.7150330   0.0000000), wk =   0.0236686
        k(   79) = (   0.4615385   0.8047452   0.0000000), wk =   0.0236686
        k(   80) = (   0.4615385  -0.2718014   0.0000000), wk =   0.0236686
        k(   81) = (   0.4615385  -0.1820892   0.0000000), wk =   0.0236686
        k(   82) = (   0.4615385  -0.0923769   0.0000000), wk =   0.0236686
        k(   83) = (   0.4615385  -0.0026647   0.0000000), wk =   0.0236686
        k(   84) = (   0.4615385   0.0870475   0.0000000), wk =   0.0236686
        k(   85) = (   0.4615385   0.1767597   0.0000000), wk =   0.0236686

                       cryst. coord.
        k(    1) = (   0.0000000   0.0000000   0.0000000), wk =   0.0118343
        k(    2) = (   0.0000000   0.0769231   0.0000000), wk =   0.0236686
        k(    3) = (   0.0000000   0.1538462   0.0000000), wk =   0.0236686
        k(    4) = (   0.0000000   0.2307692   0.0000000), wk =   0.0236686
        k(    5) = (   0.0000000   0.3076923   0.0000000), wk =   0.0236686
        k(    6) = (   0.0000000   0.3846154   0.0000000), wk =   0.0236686
        k(    7) = (   0.0000000   0.4615385   0.0000000), wk =   0.0236686
        k(    8) = (   0.0769231  -0.0000000   0.0000000), wk =   0.0236686
        k(    9) = (   0.0769231   0.0769231   0.0000000), wk =   0.0236686
        k(   10) = (   0.0769231   0.1538462   0.0000000), wk =   0.0236686
        k(   11) = (   0.0769231   0.2307692   0.0000000), wk =   0.0236686
        k(   12) = (   0.0769231   0.3076923   0.0000000), wk =   0.0236686
        k(   13) = (   0.0769231   0.3846154   0.0000000), wk =   0.0236686
        k(   14) = (   0.0769231   0.4615385   0.0000000), wk =   0.0236686
        k(   15) = (   0.0769231  -0.4615385   0.0000000), wk =   0.0236686
        k(   16) = (   0.0769231  -0.3846154   0.0000000), wk =   0.0236686
        k(   17) = (   0.0769231  -0.3076923   0.0000000), wk =   0.0236686
        k(   18) = (   0.0769231  -0.2307692   0.0000000), wk =   0.0236686
        k(   19) = (   0.0769231  -0.1538462   0.0000000), wk =   0.0236686
        k(   20) = (   0.0769231  -0.0769231   0.0000000), wk =   0.0236686
        k(   21) = (   0.1538462  -0.0000000   0.0000000), wk =   0.0236686
        k(   22) = (   0.1538462   0.0769231   0.0000000), wk =   0.0236686
        k(   23) = (   0.1538462   0.1538462   0.0000000), wk =   0.0236686
        k(   24) = (   0.1538462   0.2307692   0.0000000), wk =   0.0236686
        k(   25) = (   0.1538462   0.3076923   0.0000000), wk =   0.0236686
        k(   26) = (   0.1538462   0.3846154   0.0000000), wk =   0.0236686
        k(   27) = (   0.1538462   0.4615385   0.0000000), wk =   0.0236686
        k(   28) = (   0.1538462  -0.4615385   0.0000000), wk =   0.0236686
        k(   29) = (   0.1538462  -0.3846154   0.0000000), wk =   0.0236686
        k(   30) = (   0.1538462  -0.3076923   0.0000000), wk =   0.0236686
        k(   31) = (   0.1538462  -0.2307692   0.0000000), wk =   0.0236686
        k(   32) = (   0.1538462  -0.1538462   0.0000000), wk =   0.0236686
        k(   33) = (   0.1538462  -0.0769231   0.0000000), wk =   0.0236686
        k(   34) = (   0.2307692  -0.0000000   0.0000000), wk =   0.0236686
        k(   35) = (   0.2307692   0.0769231   0.0000000), wk =   0.0236686
        k(   36) = (   0.2307692   0.1538462   0.0000000), wk =   0.0236686
        k(   37) = (   0.2307692   0.2307692   0.0000000), wk =   0.0236686
        k(   38) = (   0.2307692   0.3076923   0.0000000), wk =   0.0236686
        k(   39) = (   0.2307692   0.3846154   0.0000000), wk =   0.0236686
        k(   40) = (   0.2307692   0.4615385   0.0000000), wk =   0.0236686
        k(   41) = (   0.2307692  -0.4615385   0.0000000), wk =   0.0236686
        k(   42) = (   0.2307692  -0.3846154   0.0000000), wk =   0.0236686
        k(   43) = (   0.2307692  -0.3076923   0.0000000), wk =   0.0236686
        k(   44) = (   0.2307692  -0.2307692   0.0000000), wk =   0.0236686
        k(   45) = (   0.2307692  -0.1538462   0.0000000), wk =   0.0236686
        k(   46) = (   0.2307692  -0.0769231   0.0000000), wk =   0.0236686
        k(   47) = (   0.3076923  -0.0000000   0.0000000), wk =   0.0236686
        k(   48) = (   0.3076923   0.0769231   0.0000000), wk =   0.0236686
        k(   49) = (   0.3076923   0.1538462   0.0000000), wk =   0.0236686
        k(   50) = (   0.3076923   0.2307692   0.0000000), wk =   0.0236686
        k(   51) = (   0.3076923   0.3076923   0.0000000), wk =   0.0236686
        k(   52) = (   0.3076923   0.3846154   0.0000000), wk =   0.0236686
        k(   53) = (   0.3076923   0.4615385   0.0000000), wk =   0.0236686
        k(   54) = (   0.3076923  -0.4615385   0.0000000), wk =   0.0236686
        k(   55) = (   0.3076923  -0.3846154   0.0000000), wk =   0.0236686
        k(   56) = (   0.3076923  -0.3076923   0.0000000), wk =   0.0236686
        k(   57) = (   0.3076923  -0.2307692   0.0000000), wk =   0.0236686
        k(   58) = (   0.3076923  -0.1538462   0.0000000), wk =   0.0236686
        k(   59) = (   0.3076923  -0.0769231   0.0000000), wk =   0.0236686
        k(   60) = (   0.3846154   0.0000000   0.0000000), wk =   0.0236686
        k(   61) = (   0.3846154   0.0769231   0.0000000), wk =   0.0236686
        k(   62) = (   0.3846154   0.1538462   0.0000000), wk =   0.0236686
        k(   63) = (   0.3846154   0.2307692   0.0000000), wk =   0.0236686
        k(   64) = (   0.3846154   0.3076923   0.0000000), wk =   0.0236686
        k(   65) = (   0.3846154   0.3846154   0.0000000), wk =   0.0236686
        k(   66) = (   0.3846154   0.4615385   0.0000000), wk =   0.0236686
        k(   67) = (   0.3846154  -0.4615385   0.0000000), wk =   0.0236686
        k(   68) = (   0.3846154  -0.3846154   0.0000000), wk =   0.0236686
        k(   69) = (   0.3846154  -0.3076923   0.0000000), wk =   0.0236686
        k(   70) = (   0.3846154  -0.2307692   0.0000000), wk =   0.0236686
        k(   71) = (   0.3846154  -0.1538462   0.0000000), wk =   0.0236686
        k(   72) = (   0.3846154  -0.0769231   0.0000000), wk =   0.0236686
        k(   73) = (   0.4615385  -0.0000000   0.0000000), wk =   0.0236686
        k(   74) = (   0.4615385   0.0769231   0.0000000), wk =   0.0236686
        k(   75) = (   0.4615385   0.1538462   0.0000000), wk =   0.0236686
        k(   76) = (   0.4615385   0.2307692   0.0000000), wk =   0.0236686
        k(   77) = (   0.4615385   0.3076923   0.0000000), wk =   0.0236686
        k(   78) = (   0.4615385   0.3846154   0.0000000), wk =   0.0236686
        k(   79) = (   0.4615385   0.4615385   0.0000000), wk =   0.0236686
        k(   80) = (   0.4615385  -0.4615385   0.0000000), wk =   0.0236686
        k(   81) = (   0.4615385  -0.3846154   0.0000000), wk =   0.0236686
        k(   82) = (   0.4615385  -0.3076923   0.0000000), wk =   0.0236686
        k(   83) = (   0.4615385  -0.2307692   0.0000000), wk =   0.0236686
        k(   84) = (   0.4615385  -0.1538462   0.0000000), wk =   0.0236686
        k(   85) = (   0.4615385  -0.0769231   0.0000000), wk =   0.0236686

     Dense  grid:   192371 G-vectors     FFT dimensions: (  45,  45, 225)

     Dynamical RAM for                 wfc:       0.44 MB

     Dynamical RAM for     wfc (w. buffer):      19.20 MB

     Dynamical RAM for                 EXX:     624.41 MB

     Dynamical RAM for           str. fact:       0.07 MB

     Dynamical RAM for           local pot:       0.00 MB

     Dynamical RAM for          nlocal pot:       0.39 MB

     Dynamical RAM for                qrad:       2.85 MB

     Dynamical RAM for          rho,v,vnew:       0.24 MB

     Dynamical RAM for               rhoin:       0.08 MB

     Dynamical RAM for            rho*nmix:       0.56 MB

     Dynamical RAM for           G-vectors:       0.15 MB

     Dynamical RAM for          h,s,v(r/c):       1.83 MB

     Dynamical RAM for          <psi|beta>:       0.14 MB

     Dynamical RAM for                 psi:       0.87 MB

     Dynamical RAM for                hpsi:       0.87 MB

     Dynamical RAM for      wfcinit/wfcrot:       1.10 MB

     Estimated static dynamical RAM per process >     647.73 MB

     Estimated max dynamical RAM per process >     652.01 MB

     Estimated total dynamical RAM >     106.92 GB
     EXX: ACE will be initialized later

     Initial potential from superposition of free atoms

     starting charge      77.7638, renormalised to      78.0000

     negative rho (up, down):  6.495E-04 0.000E+00
     Starting wfcs are random

     total cpu time spent up to now is        3.4 secs

     Self-consistent Calculation

     iteration #  1     ecut=    70.00 Ry     beta= 0.70
     Davidson diagonalization with overlap

---- Real-time Memory Report at c_bands before calling an iterative solver
           208 MiB given to the printing process from OS
             0 MiB allocation reported by mallinfo(arena+hblkhd)
        108653 MiB available memory on the node where the printing process lives
------------------
     ethr =  1.00E-02,  avg # of iterations =  9.2

     Threshold (ethr) on eigenvalues was too large:
     Diagonalizing with lowered threshold

     Davidson diagonalization with overlap

---- Real-time Memory Report at c_bands before calling an iterative solver
           214 MiB given to the printing process from OS
             0 MiB allocation reported by mallinfo(arena+hblkhd)
        108562 MiB available memory on the node where the printing process lives
------------------
     ethr =  1.19E-04,  avg # of iterations =  9.9

     negative rho (up, down):  5.370E-05 0.000E+00

     total cpu time spent up to now is       53.6 secs

     total energy              =    -806.58669454 Ry
     estimated scf accuracy    <       0.08175023 Ry

     iteration #  2     ecut=    70.00 Ry     beta= 0.70
     Davidson diagonalization with overlap

---- Real-time Memory Report at c_bands before calling an iterative solver
           214 MiB given to the printing process from OS
             0 MiB allocation reported by mallinfo(arena+hblkhd)
        108561 MiB available memory on the node where the printing process lives
------------------
     ethr =  1.05E-04,  avg # of iterations = 10.4

     negative rho (up, down):  4.323E-05 0.000E+00

     total cpu time spent up to now is       72.8 secs

     total energy              =    -806.52939481 Ry
     estimated scf accuracy    <       0.50303954 Ry

     iteration #  3     ecut=    70.00 Ry     beta= 0.70
     Davidson diagonalization with overlap

---- Real-time Memory Report at c_bands before calling an iterative solver
           215 MiB given to the printing process from OS
             0 MiB allocation reported by mallinfo(arena+hblkhd)
        108551 MiB available memory on the node where the printing process lives
------------------
     ethr =  1.05E-04,  avg # of iterations = 10.1

     negative rho (up, down):  2.651E-05 0.000E+00

     total cpu time spent up to now is       92.1 secs

     total energy              =    -806.59327702 Ry
     estimated scf accuracy    <       0.27456791 Ry

     iteration #  4     ecut=    70.00 Ry     beta= 0.70
     Davidson diagonalization with overlap

---- Real-time Memory Report at c_bands before calling an iterative solver
           215 MiB given to the printing process from OS
             0 MiB allocation reported by mallinfo(arena+hblkhd)
        108549 MiB available memory on the node where the printing process lives
------------------
     ethr =  1.05E-04,  avg # of iterations =  5.8

     negative rho (up, down):  3.304E-06 0.000E+00

     total cpu time spent up to now is      106.0 secs

     total energy              =    -806.62153312 Ry
     estimated scf accuracy    <       0.00245525 Ry

     iteration #  5     ecut=    70.00 Ry     beta= 0.70
     Davidson diagonalization with overlap

---- Real-time Memory Report at c_bands before calling an iterative solver
           215 MiB given to the printing process from OS
             0 MiB allocation reported by mallinfo(arena+hblkhd)
        108547 MiB available memory on the node where the printing process lives
------------------
     ethr =  3.15E-06,  avg # of iterations =  8.7

     negative rho (up, down):  1.854E-06 0.000E+00

     total cpu time spent up to now is      124.5 secs

     total energy              =    -806.62158710 Ry
     estimated scf accuracy    <       0.00110496 Ry

     iteration #  6     ecut=    70.00 Ry     beta= 0.70
     Davidson diagonalization with overlap

---- Real-time Memory Report at c_bands before calling an iterative solver
           215 MiB given to the printing process from OS
             0 MiB allocation reported by mallinfo(arena+hblkhd)
        108546 MiB available memory on the node where the printing process lives
------------------
     ethr =  1.42E-06,  avg # of iterations =  9.1

     negative rho (up, down):  1.345E-08 0.000E+00

     total cpu time spent up to now is      142.6 secs

     total energy              =    -806.62144629 Ry
     estimated scf accuracy    <       0.00909084 Ry

     iteration #  7     ecut=    70.00 Ry     beta= 0.70
     Davidson diagonalization with overlap

---- Real-time Memory Report at c_bands before calling an iterative solver
           215 MiB given to the printing process from OS
             0 MiB allocation reported by mallinfo(arena+hblkhd)
        108539 MiB available memory on the node where the printing process lives
------------------
     ethr =  1.42E-06,  avg # of iterations =  8.4

     total cpu time spent up to now is      158.9 secs

     total energy              =    -806.62193882 Ry
     estimated scf accuracy    <       0.00000921 Ry

     iteration #  8     ecut=    70.00 Ry     beta= 0.70
     Davidson diagonalization with overlap

---- Real-time Memory Report at c_bands before calling an iterative solver
           215 MiB given to the printing process from OS
             0 MiB allocation reported by mallinfo(arena+hblkhd)
        108538 MiB available memory on the node where the printing process lives
------------------
     c_bands:  1 eigenvalues not converged
     c_bands:  1 eigenvalues not converged
     ethr =  1.18E-08,  avg # of iterations = 10.5

     total cpu time spent up to now is      178.7 secs

     total energy              =    -806.62194055 Ry
     estimated scf accuracy    <       0.00000019 Ry

     iteration #  9     ecut=    70.00 Ry     beta= 0.70
     Davidson diagonalization with overlap

---- Real-time Memory Report at c_bands before calling an iterative solver
           215 MiB given to the printing process from OS
             0 MiB allocation reported by mallinfo(arena+hblkhd)
        108534 MiB available memory on the node where the printing process lives
------------------
     ethr =  2.44E-10,  avg # of iterations = 10.5

     total cpu time spent up to now is      197.9 secs

     total energy              =    -806.62194053 Ry
     estimated scf accuracy    <       0.00000039 Ry

     iteration # 10     ecut=    70.00 Ry     beta= 0.70
     Davidson diagonalization with overlap

---- Real-time Memory Report at c_bands before calling an iterative solver
           216 MiB given to the printing process from OS
             0 MiB allocation reported by mallinfo(arena+hblkhd)
        108533 MiB available memory on the node where the printing process lives
------------------
     ethr =  2.44E-10,  avg # of iterations =  5.6

     total cpu time spent up to now is      212.4 secs

     End of self-consistent calculation

          k = 0.0000 0.0000 0.0000 ( 23927 PWs)   bands (ev):

   -34.6303 -34.6302 -34.6301 -34.6300 -34.6025 -34.6020 -34.6004 -34.6003
   -34.5912 -34.5910 -34.5183 -34.5082 -34.5048 -34.4685 -34.4683 -27.3876
   -27.3875 -27.3873 -27.3872 -27.3791 -27.3787 -27.3758 -27.3755 -27.3751
   -27.3748 -10.6181 -10.0913  -9.0055  -6.2492  -4.8388  -0.1458   0.2568
     0.3431   0.4770   0.5414   0.8547   1.0848   1.1360   1.3899   2.4370
     2.8861   2.9245   3.8893   3.9556   3.9811   6.2694   6.4675   7.0185
     7.6916   7.7090   7.8550   8.4641   8.7124   8.8680   9.0096   9.1607
     9.7069   9.7609  10.0823  10.2061  10.5931  11.2001  11.3476  11.5497
    11.6559  11.7262  12.8498  12.9417  14.0209  14.1561  14.2631  14.3243
    14.4519  15.1645  15.9249  16.0652  16.1153  16.2585  16.3427  16.4176
    16.7815  17.2284  17.2997  17.3624  17.4305  17.4985  17.6007  17.6847
    17.6878  17.7852  17.8016  17.8799  18.0053  18.2744  19.2072  19.2850
    19.3156  19.3384  19.4077  19.5539

     occupation numbers 
     1.0000   1.0000   1.0000   1.0000   1.0000   1.0000   1.0000   1.0000
     1.0000   1.0000   1.0000   1.0000   1.0000   1.0000   1.0000   1.0000
     1.0000   1.0000   1.0000   1.0000   1.0000   1.0000   1.0000   1.0000
     1.0000   1.0000   1.0000   1.0000   1.0000   1.0000   1.0000   1.0000
     1.0000   1.0000   1.0000   1.0000   1.0000   1.0000   1.0000   0.0000
     0.0000   0.0000   0.0000   0.0000   0.0000   0.0000   0.0000   0.0000
     0.0000   0.0000   0.0000   0.0000   0.0000   0.0000   0.0000   0.0000
     0.0000   0.0000   0.0000   0.0000   0.0000   0.0000   0.0000   0.0000
     0.0000   0.0000   0.0000   0.0000   0.0000   0.0000   0.0000   0.0000
     0.0000   0.0000   0.0000   0.0000   0.0000   0.0000   0.0000   0.0000
     0.0000   0.0000   0.0000   0.0000   0.0000   0.0000   0.0000   0.0000
     0.0000   0.0000   0.0000   0.0000   0.0000   0.0000   0.0000   0.0000
     0.0000   0.0000   0.0000   0.0000

          k = 0.0000 0.0897 0.0000 ( 23925 PWs)   bands (ev):

   -34.6303 -34.6301 -34.6301 -34.6299 -34.6025 -34.6020 -34.6004 -34.6003
   -34.5912 -34.5910 -34.5183 -34.5082 -34.5048 -34.4684 -34.4683 -27.3876
   -27.3873 -27.3873 -27.3870 -27.3789 -27.3786 -27.3759 -27.3755 -27.3753
   -27.3750 -10.5662 -10.0435  -8.9756  -6.2542  -4.9215  -0.3420  -0.0447
     0.0681   0.1786   0.4080   0.6105   1.1437   1.2797   1.7281   2.5733
     2.9802   3.0538   3.8149   4.0449   4.3282   6.3604   6.4913   7.0168
     7.5056   7.7122   7.8303   8.5407   8.6856   8.8238   9.0047   9.2636
     9.7789   9.9158  10.3435  10.4991  10.8790  11.0085  11.0466  11.4872
    12.0787  12.2696  12.8785  13.0897  13.5677  13.6324  14.3784  14.6488
    14.7770  15.1020  15.5817  15.6164  15.9982  16.1832  16.3107  16.4262
    16.5922  16.7385  16.8650  16.9700  17.0805  17.1051  17.4986  17.9388
    18.1834  18.2156  18.2665  18.4757  18.5295  18.5965  18.6787  18.8961
    18.9604  19.0612  19.2997  19.6095

     occupation numbers 
     1.0000   1.0000   1.0000   1.0000   1.0000   1.0000   1.0000   1.0000
     1.0000   1.0000   1.0000   1.0000   1.0000   1.0000   1.0000   1.0000
     1.0000   1.0000   1.0000   1.0000   1.0000   1.0000   1.0000   1.0000
     1.0000   1.0000   1.0000   1.0000   1.0000   1.0000   1.0000   1.0000
     1.0000   1.0000   1.0000   1.0000   1.0000   1.0000   1.0000   0.0000
     0.0000   0.0000   0.0000   0.0000   0.0000   0.0000   0.0000   0.0000
     0.0000   0.0000   0.0000   0.0000   0.0000   0.0000   0.0000   0.0000
     0.0000   0.0000   0.0000   0.0000   0.0000   0.0000   0.0000   0.0000
     0.0000   0.0000   0.0000   0.0000   0.0000   0.0000   0.0000   0.0000
     0.0000   0.0000   0.0000   0.0000   0.0000   0.0000   0.0000   0.0000
     0.0000   0.0000   0.0000   0.0000   0.0000   0.0000   0.0000   0.0000
     0.0000   0.0000   0.0000   0.0000   0.0000   0.0000   0.0000   0.0000
     0.0000   0.0000   0.0000   0.0000

          k = 0.0000 0.1794 0.0000 ( 23955 PWs)   bands (ev):

   -34.6303 -34.6301 -34.6299 -34.6296 -34.6025 -34.6021 -34.6004 -34.6004
   -34.5911 -34.5908 -34.5182 -34.5082 -34.5049 -34.4683 -34.4682 -27.3877
   -27.3874 -27.3866 -27.3864 -27.3786 -27.3782 -27.3761 -27.3759 -27.3755
   -27.3754 -10.4121  -9.9026  -8.8916  -6.2832  -5.1687  -1.0879  -0.4301
    -0.2871  -0.2784   0.1805   0.2320   1.1805   1.3605   1.6978   2.8477
     3.2011   3.4514   4.0791   4.2953   4.7850   6.4167   6.5972   6.8906
     7.4376   7.7759   8.1370   8.4283   8.6896   8.8706   9.1970   9.6122
     9.7506  10.1202  10.6026  10.9141  11.2254  11.2599  11.6813  11.8986
    12.3474  12.4496  12.9026  13.3495  13.5503  13.6051  13.9995  14.4677
    14.6513  14.8666  14.9874  15.3826  15.7440  15.9111  16.0243  16.0901
    16.3998  16.4527  16.5795  16.7053  16.9492  17.2350  17.6920  17.9169
    18.0260  18.2088  18.2621  18.3386  18.5508  19.1737  19.2994  19.4530
    19.5353  19.6235  19.7688  20.0045

     occupation numbers 
     1.0000   1.0000   1.0000   1.0000   1.0000   1.0000   1.0000   1.0000
     1.0000   1.0000   1.0000   1.0000   1.0000   1.0000   1.0000   1.0000
     1.0000   1.0000   1.0000   1.0000   1.0000   1.0000   1.0000   1.0000
     1.0000   1.0000   1.0000   1.0000   1.0000   1.0000   1.0000   1.0000
     1.0000   1.0000   1.0000   1.0000   1.0000   1.0000   1.0000   0.0000
     0.0000   0.0000   0.0000   0.0000   0.0000   0.0000   0.0000   0.0000
     0.0000   0.0000   0.0000   0.0000   0.0000   0.0000   0.0000   0.0000
     0.0000   0.0000   0.0000   0.0000   0.0000   0.0000   0.0000   0.0000
     0.0000   0.0000   0.0000   0.0000   0.0000   0.0000   0.0000   0.0000
     0.0000   0.0000   0.0000   0.0000   0.0000   0.0000   0.0000   0.0000
     0.0000   0.0000   0.0000   0.0000   0.0000   0.0000   0.0000   0.0000
     0.0000   0.0000   0.0000   0.0000   0.0000   0.0000   0.0000   0.0000
     0.0000   0.0000   0.0000   0.0000

          k = 0.0000 0.2691 0.0000 ( 23986 PWs)   bands (ev):

   -34.6303 -34.6301 -34.6295 -34.6293 -34.6025 -34.6021 -34.6005 -34.6005
   -34.5909 -34.5907 -34.5180 -34.5083 -34.5050 -34.4683 -34.4678 -27.3878
   -27.3875 -27.3857 -27.3855 -27.3781 -27.3777 -27.3767 -27.3763 -27.3760
   -27.3754 -10.1615  -9.6781  -8.7721  -6.3770  -5.5572  -1.8190  -0.9574
    -0.6886  -0.6425  -0.0949   0.2444   0.7601   1.1258   1.7714   2.8860
     3.4101   3.8348   4.4506   4.6178   5.2605   6.0430   6.8530   7.1163
     7.6601   8.0530   8.3793   8.6456   8.7686   9.0314   9.6821   9.8778
    10.0483  10.2815  10.5778  11.3532  11.7074  11.9571  12.1293  12.3309
    12.3533  12.6058  13.1061  13.2688  13.3890  13.7402  14.0575  14.3290
    14.3846  14.7474  14.9034  15.3378  15.3776  15.5456  15.7513  15.7983
    16.0668  16.3022  16.4071  16.8808  17.2943  17.4330  17.6603  17.6691
    17.7131  18.1565  18.2953  18.3913  18.5809  18.6464  18.9198  19.0264
    19.0813  19.6208  19.9698  20.0066

     occupation numbers 
     1.0000   1.0000   1.0000   1.0000   1.0000   1.0000   1.0000   1.0000
     1.0000   1.0000   1.0000   1.0000   1.0000   1.0000   1.0000   1.0000
     1.0000   1.0000   1.0000   1.0000   1.0000   1.0000   1.0000   1.0000
     1.0000   1.0000   1.0000   1.0000   1.0000   1.0000   1.0000   1.0000
     1.0000   1.0000   1.0000   1.0000   1.0000   1.0000   1.0000   0.0000
     0.0000   0.0000   0.0000   0.0000   0.0000   0.0000   0.0000   0.0000
     0.0000   0.0000   0.0000   0.0000   0.0000   0.0000   0.0000   0.0000
     0.0000   0.0000   0.0000   0.0000   0.0000   0.0000   0.0000   0.0000
     0.0000   0.0000   0.0000   0.0000   0.0000   0.0000   0.0000   0.0000
     0.0000   0.0000   0.0000   0.0000   0.0000   0.0000   0.0000   0.0000
     0.0000   0.0000   0.0000   0.0000   0.0000   0.0000   0.0000   0.0000
     0.0000   0.0000   0.0000   0.0000   0.0000   0.0000   0.0000   0.0000
     0.0000   0.0000   0.0000   0.0000

          k = 0.0000 0.3588 0.0000 ( 24054 PWs)   bands (ev):

   -34.6302 -34.6300 -34.6292 -34.6290 -34.6026 -34.6021 -34.6006 -34.6006
   -34.5907 -34.5905 -34.5179 -34.5083 -34.5051 -34.4683 -34.4675 -27.3880
   -27.3877 -27.3848 -27.3845 -27.3779 -27.3774 -27.3771 -27.3768 -27.3763
   -27.3755  -9.8262  -9.3905  -8.6548  -6.5882  -6.0074  -2.3849  -1.4445
    -0.9376  -0.8902  -0.3439   0.0652   0.5163   1.0240   1.4892   2.9556
     3.5315   3.8823   4.6517   4.9210   5.6624   5.7472   7.1235   7.4179
     7.9027   8.4850   8.6489   9.1233   9.4018   9.4849   9.9452  10.2438
    10.3312  10.7440  10.8262  11.1511  11.7881  12.0212  12.2096  12.3177
    12.7434  12.8499  13.0449  13.1742  13.7350  14.0631  14.1807  14.5352
    14.7360  14.8218  15.0167  15.0437  15.4058  15.4335  15.5639  15.7507
    16.1896  16.3724  16.6836  16.7582  16.8183  16.9526  17.0889  17.1273
    17.2033  17.3892  17.6203  17.7801  18.2549  18.3446  18.4813  18.7939
    18.9700  19.5856  19.7830  20.0810

     occupation numbers 
     1.0000   1.0000   1.0000   1.0000   1.0000   1.0000   1.0000   1.0000
     1.0000   1.0000   1.0000   1.0000   1.0000   1.0000   1.0000   1.0000
     1.0000   1.0000   1.0000   1.0000   1.0000   1.0000   1.0000   1.0000
     1.0000   1.0000   1.0000   1.0000   1.0000   1.0000   1.0000   1.0000
     1.0000   1.0000   1.0000   1.0000   1.0000   1.0000   1.0000   0.0000
     0.0000   0.0000   0.0000   0.0000   0.0000   0.0000   0.0000   0.0000
     0.0000   0.0000   0.0000   0.0000   0.0000   0.0000   0.0000   0.0000
     0.0000   0.0000   0.0000   0.0000   0.0000   0.0000   0.0000   0.0000
     0.0000   0.0000   0.0000   0.0000   0.0000   0.0000   0.0000   0.0000
     0.0000   0.0000   0.0000   0.0000   0.0000   0.0000   0.0000   0.0000
     0.0000   0.0000   0.0000   0.0000   0.0000   0.0000   0.0000   0.0000
     0.0000   0.0000   0.0000   0.0000   0.0000   0.0000   0.0000   0.0000
     0.0000   0.0000   0.0000   0.0000

          k = 0.0000 0.4486 0.0000 ( 24060 PWs)   bands (ev):

   -34.6302 -34.6300 -34.6289 -34.6287 -34.6026 -34.6021 -34.6006 -34.6006
   -34.5905 -34.5903 -34.5177 -34.5083 -34.5052 -34.4682 -34.4672 -27.3881
   -27.3878 -27.3840 -27.3837 -27.3783 -27.3776 -27.3770 -27.3766 -27.3764
   -27.3755  -9.4309  -9.0847  -8.6071  -6.9115  -6.3993  -2.7667  -1.6882
    -1.1451  -1.1100  -0.5259  -0.1938   0.5695   0.9287   1.1698   2.9703
     3.5745   3.7576   4.7888   5.1338   5.3997   5.9818   7.1116   7.9268
     8.2514   8.9863   9.2541   9.4867   9.6790  10.0917  10.3972  10.4662
    10.8135  10.9495  11.0670  11.4116  11.5652  11.5808  12.0763  12.4741
    12.8428  13.2130  13.5206  13.5366  13.6231  13.8596  14.0547  14.2952
    14.7623  14.8354  14.8587  15.1778  15.2507  15.4802  15.5880  15.7864
    15.9066  16.1850  16.3106  16.4255  16.5836  16.6911  16.7450  16.8626
    17.2404  17.4418  17.4996  17.5310  17.6938  18.1844  18.8044  18.8932
    19.2547  19.3322  19.5002  19.8668

     occupation numbers 
     1.0000   1.0000   1.0000   1.0000   1.0000   1.0000   1.0000   1.0000
     1.0000   1.0000   1.0000   1.0000   1.0000   1.0000   1.0000   1.0000
     1.0000   1.0000   1.0000   1.0000   1.0000   1.0000   1.0000   1.0000
     1.0000   1.0000   1.0000   1.0000   1.0000   1.0000   1.0000   1.0000
     1.0000   1.0000   1.0000   1.0000   1.0000   1.0000   1.0000   0.0000
     0.0000   0.0000   0.0000   0.0000   0.0000   0.0000   0.0000   0.0000
     0.0000   0.0000   0.0000   0.0000   0.0000   0.0000   0.0000   0.0000
     0.0000   0.0000   0.0000   0.0000   0.0000   0.0000   0.0000   0.0000
     0.0000   0.0000   0.0000   0.0000   0.0000   0.0000   0.0000   0.0000
     0.0000   0.0000   0.0000   0.0000   0.0000   0.0000   0.0000   0.0000
     0.0000   0.0000   0.0000   0.0000   0.0000   0.0000   0.0000   0.0000
     0.0000   0.0000   0.0000   0.0000   0.0000   0.0000   0.0000   0.0000
     0.0000   0.0000   0.0000   0.0000

          k = 0.0000 0.5383 0.0000 ( 24063 PWs)   bands (ev):

   -34.6302 -34.6300 -34.6288 -34.6285 -34.6026 -34.6022 -34.6007 -34.6007
   -34.5905 -34.5903 -34.5177 -34.5083 -34.5052 -34.4682 -34.4670 -27.3882
   -27.3879 -27.3835 -27.3833 -27.3786 -27.3779 -27.3768 -27.3764 -27.3763
   -27.3755  -9.0290  -8.8595  -8.7219  -7.1799  -6.6366  -2.9662  -1.6810
    -1.3827  -1.2506  -0.6210  -0.2525   0.5715   0.8730   1.0138   2.9122
     3.5822   3.7220   4.8127   5.2356   5.2823   5.9860   7.1786   8.4421
     8.6704   9.0474   9.2162   9.6491   9.7807  10.3245  10.6407  10.9100
    11.1909  11.3019  11.5425  11.5991  11.8907  11.9821  12.1129  12.5502
    12.7729  12.8635  12.9499  13.0981  13.6363  13.9350  14.0764  14.2010
    14.4398  14.6077  14.6408  14.8660  15.0392  15.1959  15.3702  15.4627
    15.5631  15.7282  16.1221  16.5724  16.6211  16.9077  17.2183  17.3069
    17.6998  17.7570  17.8246  18.0017  18.1505  18.2897  18.6265  18.7302
    18.8750  19.3787  19.4758  19.6952

     occupation numbers 
     1.0000   1.0000   1.0000   1.0000   1.0000   1.0000   1.0000   1.0000
     1.0000   1.0000   1.0000   1.0000   1.0000   1.0000   1.0000   1.0000
     1.0000   1.0000   1.0000   1.0000   1.0000   1.0000   1.0000   1.0000
     1.0000   1.0000   1.0000   1.0000   1.0000   1.0000   1.0000   1.0000
     1.0000   1.0000   1.0000   1.0000   1.0000   1.0000   1.0000   0.0000
     0.0000   0.0000   0.0000   0.0000   0.0000   0.0000   0.0000   0.0000
     0.0000   0.0000   0.0000   0.0000   0.0000   0.0000   0.0000   0.0000
     0.0000   0.0000   0.0000   0.0000   0.0000   0.0000   0.0000   0.0000
     0.0000   0.0000   0.0000   0.0000   0.0000   0.0000   0.0000   0.0000
     0.0000   0.0000   0.0000   0.0000   0.0000   0.0000   0.0000   0.0000
     0.0000   0.0000   0.0000   0.0000   0.0000   0.0000   0.0000   0.0000
     0.0000   0.0000   0.0000   0.0000   0.0000   0.0000   0.0000   0.0000
     0.0000   0.0000   0.0000   0.0000

          k = 0.0769 0.0444 0.0000 ( 23957 PWs)   bands (ev):

   -34.6302 -34.6302 -34.6301 -34.6299 -34.6025 -34.6020 -34.6004 -34.6003
   -34.5912 -34.5910 -34.5183 -34.5082 -34.5048 -34.4685 -34.4683 -27.3876
   -27.3873 -27.3872 -27.3871 -27.3790 -27.3786 -27.3760 -27.3756 -27.3752
   -27.3748 -10.5672 -10.0445  -8.9765  -6.2556  -4.9246  -0.3644  -0.1239
     0.1384   0.1740   0.4687   0.5909   1.1910   1.2735   1.7160   2.6190
     2.9694   3.0201   3.8513   4.0495   4.2867   6.3594   6.4871   7.0149
     7.4327   7.7073   7.9522   8.5066   8.6771   8.7924   9.1223   9.1937
     9.7847   9.9610  10.2812  10.4837  10.8754  10.9712  11.1309  11.4029
    12.1417  12.2489  12.8420  13.0655  13.5243  13.7425  14.3923  14.6597
    14.7155  15.0389  15.6049  15.7120  15.8545  16.1433  16.1920  16.4645
    16.6806  16.7039  16.9782  17.0463  17.1436  17.1941  17.4889  17.8226
    18.0754  18.1743  18.2971  18.4917  18.6133  18.7043  18.7620  18.9437
    19.0056  19.1056  19.1889  19.4260

     occupation numbers 
     1.0000   1.0000   1.0000   1.0000   1.0000   1.0000   1.0000   1.0000
     1.0000   1.0000   1.0000   1.0000   1.0000   1.0000   1.0000   1.0000
     1.0000   1.0000   1.0000   1.0000   1.0000   1.0000   1.0000   1.0000
     1.0000   1.0000   1.0000   1.0000   1.0000   1.0000   1.0000   1.0000
     1.0000   1.0000   1.0000   1.0000   1.0000   1.0000   1.0000   0.0000
     0.0000   0.0000   0.0000   0.0000   0.0000   0.0000   0.0000   0.0000
     0.0000   0.0000   0.0000   0.0000   0.0000   0.0000   0.0000   0.0000
     0.0000   0.0000   0.0000   0.0000   0.0000   0.0000   0.0000   0.0000
     0.0000   0.0000   0.0000   0.0000   0.0000   0.0000   0.0000   0.0000
     0.0000   0.0000   0.0000   0.0000   0.0000   0.0000   0.0000   0.0000
     0.0000   0.0000   0.0000   0.0000   0.0000   0.0000   0.0000   0.0000
     0.0000   0.0000   0.0000   0.0000   0.0000   0.0000   0.0000   0.0000
     0.0000   0.0000   0.0000   0.0000

          k = 0.0769 0.1341 0.0000 ( 23979 PWs)   bands (ev):

   -34.6302 -34.6301 -34.6300 -34.6298 -34.6025 -34.6021 -34.6004 -34.6004
   -34.5911 -34.5909 -34.5182 -34.5082 -34.5048 -34.4684 -34.4682 -27.3876
   -27.3873 -27.3869 -27.3866 -27.3788 -27.3784 -27.3762 -27.3758 -27.3754
   -27.3750 -10.4647  -9.9507  -8.9200  -6.2730  -5.0913  -0.8286  -0.4713
    -0.2389  -0.0883   0.2205   0.5538   0.9213   1.6468   1.6911   2.7968
     3.1029   3.3044   4.0391   4.2097   4.6286   6.5131   6.5208   6.9347
     7.2280   7.7250   8.2282   8.5029   8.6143   8.7626   9.0919   9.5503
     9.8908  10.1338  10.4508  10.8066  11.0580  11.1905  11.3170  11.6283
    12.4892  12.5402  12.9791  13.1301  13.4633  13.6544  14.0219  14.3216
    14.9275  15.1720  15.2241  15.3719  15.4649  15.5782  15.8194  16.4562
    16.6444  16.6673  17.0033  17.0632  17.2437  17.4271  17.4968  17.6730
    17.7947  17.8703  17.9929  18.0382  18.6133  19.2360  19.5181  19.5923
    19.6601  19.7071  19.9264  19.9896

     occupation numbers 
     1.0000   1.0000   1.0000   1.0000   1.0000   1.0000   1.0000   1.0000
     1.0000   1.0000   1.0000   1.0000   1.0000   1.0000   1.0000   1.0000
     1.0000   1.0000   1.0000   1.0000   1.0000   1.0000   1.0000   1.0000
     1.0000   1.0000   1.0000   1.0000   1.0000   1.0000   1.0000   1.0000
     1.0000   1.0000   1.0000   1.0000   1.0000   1.0000   1.0000   0.0000
     0.0000   0.0000   0.0000   0.0000   0.0000   0.0000   0.0000   0.0000
     0.0000   0.0000   0.0000   0.0000   0.0000   0.0000   0.0000   0.0000
     0.0000   0.0000   0.0000   0.0000   0.0000   0.0000   0.0000   0.0000
     0.0000   0.0000   0.0000   0.0000   0.0000   0.0000   0.0000   0.0000
     0.0000   0.0000   0.0000   0.0000   0.0000   0.0000   0.0000   0.0000
     0.0000   0.0000   0.0000   0.0000   0.0000   0.0000   0.0000   0.0000
     0.0000   0.0000   0.0000   0.0000   0.0000   0.0000   0.0000   0.0000
     0.0000   0.0000   0.0000   0.0000

          k = 0.0769 0.2238 0.0000 ( 23983 PWs)   bands (ev):

   -34.6302 -34.6300 -34.6297 -34.6295 -34.6025 -34.6021 -34.6005 -34.6004
   -34.5910 -34.5907 -34.5181 -34.5083 -34.5049 -34.4683 -34.4680 -27.3877
   -27.3874 -27.3862 -27.3859 -27.3784 -27.3779 -27.3766 -27.3763 -27.3755
   -27.3753 -10.2626  -9.7682  -8.8178  -6.3329  -5.4130  -1.4713  -1.0088
    -0.6206  -0.3542  -0.0763   0.2871   0.8465   1.3878   1.8037   2.9762
     3.2227   3.7545   4.2098   4.6937   5.0314   6.3648   6.7447   6.9070
     7.3060   7.9300   8.3530   8.4635   8.7670   8.9956   9.4992   9.8117
     9.9978  10.2591  10.7860  10.9894  11.3995  11.5272  12.0612  12.2486
    12.5845  12.7287  13.0677  13.3467  13.4175  13.7124  13.8981  14.1750
    14.2663  14.5864  14.7846  14.9181  15.6286  15.7808  15.9421  16.0176
    16.2650  16.6448  16.6913  16.8690  17.1231  17.1409  17.4244  17.6857
    17.9880  18.3289  18.6423  18.7134  18.7786  18.9136  18.9440  19.0619
    19.2436  19.3862  19.6326  19.7099

     occupation numbers 
     1.0000   1.0000   1.0000   1.0000   1.0000   1.0000   1.0000   1.0000
     1.0000   1.0000   1.0000   1.0000   1.0000   1.0000   1.0000   1.0000
     1.0000   1.0000   1.0000   1.0000   1.0000   1.0000   1.0000   1.0000
     1.0000   1.0000   1.0000   1.0000   1.0000   1.0000   1.0000   1.0000
     1.0000   1.0000   1.0000   1.0000   1.0000   1.0000   1.0000   0.0000
     0.0000   0.0000   0.0000   0.0000   0.0000   0.0000   0.0000   0.0000
     0.0000   0.0000   0.0000   0.0000   0.0000   0.0000   0.0000   0.0000
     0.0000   0.0000   0.0000   0.0000   0.0000   0.0000   0.0000   0.0000
     0.0000   0.0000   0.0000   0.0000   0.0000   0.0000   0.0000   0.0000
     0.0000   0.0000   0.0000   0.0000   0.0000   0.0000   0.0000   0.0000
     0.0000   0.0000   0.0000   0.0000   0.0000   0.0000   0.0000   0.0000
     0.0000   0.0000   0.0000   0.0000   0.0000   0.0000   0.0000   0.0000
     0.0000   0.0000   0.0000   0.0000

          k = 0.0769 0.3135 0.0000 ( 24030 PWs)   bands (ev):

   -34.6302 -34.6300 -34.6294 -34.6291 -34.6026 -34.6021 -34.6005 -34.6005
   -34.5908 -34.5906 -34.5179 -34.5083 -34.5050 -34.4682 -34.4677 -27.3878
   -27.3875 -27.3853 -27.3850 -27.3780 -27.3775 -27.3770 -27.3768 -27.3759
   -27.3755  -9.9693  -9.5108  -8.6960  -6.4805  -5.8428  -2.0943  -1.4154
    -0.9182  -0.6964  -0.4530   0.1796   0.7585   1.0060   1.7099   3.1511
     3.3134   3.8865   4.5826   4.9431   5.5146   5.9922   7.0067   7.2704
     7.6594   8.0017   8.3853   8.7725   9.2753   9.5352   9.8437  10.1035
    10.2351  10.4397  11.1446  11.2674  11.5463  12.0957  12.3446  12.4453
    12.7110  12.7703  12.9902  13.0405  13.4803  13.8671  14.0422  14.2503
    14.4536  14.5260  14.7987  15.0491  15.2783  15.5009  15.7102  16.1732
    16.2082  16.3877  16.5152  16.7063  16.7856  17.0704  17.1168  17.5357
    17.7392  17.8799  18.1990  18.3904  18.5321  18.7587  18.8601  18.9767
    19.1944  19.4641  19.5518  19.6178

     occupation numbers 
     1.0000   1.0000   1.0000   1.0000   1.0000   1.0000   1.0000   1.0000
     1.0000   1.0000   1.0000   1.0000   1.0000   1.0000   1.0000   1.0000
     1.0000   1.0000   1.0000   1.0000   1.0000   1.0000   1.0000   1.0000
     1.0000   1.0000   1.0000   1.0000   1.0000   1.0000   1.0000   1.0000
     1.0000   1.0000   1.0000   1.0000   1.0000   1.0000   1.0000   0.0000
     0.0000   0.0000   0.0000   0.0000   0.0000   0.0000   0.0000   0.0000
     0.0000   0.0000   0.0000   0.0000   0.0000   0.0000   0.0000   0.0000
     0.0000   0.0000   0.0000   0.0000   0.0000   0.0000   0.0000   0.0000
     0.0000   0.0000   0.0000   0.0000   0.0000   0.0000   0.0000   0.0000
     0.0000   0.0000   0.0000   0.0000   0.0000   0.0000   0.0000   0.0000
     0.0000   0.0000   0.0000   0.0000   0.0000   0.0000   0.0000   0.0000
     0.0000   0.0000   0.0000   0.0000   0.0000   0.0000   0.0000   0.0000
     0.0000   0.0000   0.0000   0.0000

          k = 0.0769 0.4033 0.0000 ( 24058 PWs)   bands (ev):

   -34.6302 -34.6300 -34.6291 -34.6288 -34.6026 -34.6022 -34.6006 -34.6006
   -34.5906 -34.5904 -34.5178 -34.5083 -34.5051 -34.4682 -34.4674 -27.3879
   -27.3876 -27.3844 -27.3842 -27.3780 -27.3774 -27.3772 -27.3768 -27.3762
   -27.3755  -9.6020  -9.2088  -8.6034  -6.7515  -6.2774  -2.5669  -1.6382
    -1.2592  -1.0147  -0.5747  -0.0199   0.5646   0.9020   1.4809   3.1982
     3.3526   3.8848   4.8281   5.1003   5.6578   5.8916   7.1741   7.6766
     8.0688   8.3864   8.8708   9.2322   9.6288   9.6929  10.4072  10.4174
    10.6916  10.8506  11.2620  11.3731  11.6444  11.7620  12.0317  12.6320
    12.7686  13.0873  13.1661  13.4069  13.5529  13.7340  13.8697  14.0186
    14.2568  14.9937  15.1033  15.2350  15.4381  15.7042  15.7489  15.7928
    16.0178  16.1947  16.4311  16.4783  16.6844  16.8618  16.9227  17.0752
    17.2214  17.4888  17.6775  18.0328  18.3267  18.4842  18.6649  18.9793
    19.2120  19.2830  19.4080  19.6061

     occupation numbers 
     1.0000   1.0000   1.0000   1.0000   1.0000   1.0000   1.0000   1.0000
     1.0000   1.0000   1.0000   1.0000   1.0000   1.0000   1.0000   1.0000
     1.0000   1.0000   1.0000   1.0000   1.0000   1.0000   1.0000   1.0000
     1.0000   1.0000   1.0000   1.0000   1.0000   1.0000   1.0000   1.0000
     1.0000   1.0000   1.0000   1.0000   1.0000   1.0000   1.0000   0.0000
     0.0000   0.0000   0.0000   0.0000   0.0000   0.0000   0.0000   0.0000
     0.0000   0.0000   0.0000   0.0000   0.0000   0.0000   0.0000   0.0000
     0.0000   0.0000   0.0000   0.0000   0.0000   0.0000   0.0000   0.0000
     0.0000   0.0000   0.0000   0.0000   0.0000   0.0000   0.0000   0.0000
     0.0000   0.0000   0.0000   0.0000   0.0000   0.0000   0.0000   0.0000
     0.0000   0.0000   0.0000   0.0000   0.0000   0.0000   0.0000   0.0000
     0.0000   0.0000   0.0000   0.0000   0.0000   0.0000   0.0000   0.0000
     0.0000   0.0000   0.0000   0.0000

          k = 0.0769 0.4930 0.0000 ( 24038 PWs)   bands (ev):

   -34.6302 -34.6300 -34.6288 -34.6286 -34.6026 -34.6022 -34.6006 -34.6006
   -34.5905 -34.5903 -34.5177 -34.5084 -34.5052 -34.4682 -34.4672 -27.3880
   -27.3877 -27.3838 -27.3836 -27.3784 -27.3778 -27.3770 -27.3765 -27.3763
   -27.3756  -9.1973  -8.9284  -8.6212  -7.0742  -6.6012  -2.8574  -1.6929
    -1.5038  -1.2292  -0.6553  -0.2342   0.5303   0.8552   1.2677   3.2525
     3.3082   3.7936   5.0184   5.1327   5.4829   6.0156   7.1760   8.2306
     8.4604   9.0802   9.2420   9.3982   9.8322   9.9403  10.4471  10.6707
    10.9556  11.0801  11.5217  11.5898  11.7693  11.8818  12.2347  12.4960
    12.6426  12.7949  13.0491  13.2302  13.6323  13.8128  13.9831  14.2118
    14.2992  14.6514  14.8791  15.0020  15.1830  15.3435  15.6622  15.8206
    15.9975  16.0796  16.2127  16.4892  16.8398  16.8910  17.0588  17.3649
    17.4501  17.5493  17.7128  17.9821  18.0933  18.4268  18.6075  18.8498
    19.1010  19.1883  19.3284  19.5635

     occupation numbers 
     1.0000   1.0000   1.0000   1.0000   1.0000   1.0000   1.0000   1.0000
     1.0000   1.0000   1.0000   1.0000   1.0000   1.0000   1.0000   1.0000
     1.0000   1.0000   1.0000   1.0000   1.0000   1.0000   1.0000   1.0000
     1.0000   1.0000   1.0000   1.0000   1.0000   1.0000   1.0000   1.0000
     1.0000   1.0000   1.0000   1.0000   1.0000   1.0000   1.0000   0.0000
     0.0000   0.0000   0.0000   0.0000   0.0000   0.0000   0.0000   0.0000
     0.0000   0.0000   0.0000   0.0000   0.0000   0.0000   0.0000   0.0000
     0.0000   0.0000   0.0000   0.0000   0.0000   0.0000   0.0000   0.0000
     0.0000   0.0000   0.0000   0.0000   0.0000   0.0000   0.0000   0.0000
     0.0000   0.0000   0.0000   0.0000   0.0000   0.0000   0.0000   0.0000
     0.0000   0.0000   0.0000   0.0000   0.0000   0.0000   0.0000   0.0000
     0.0000   0.0000   0.0000   0.0000   0.0000   0.0000   0.0000   0.0000
     0.0000   0.0000   0.0000   0.0000

          k = 0.0769 0.5827 0.0000 ( 24046 PWs)   bands (ev):

   -34.6302 -34.6300 -34.6288 -34.6285 -34.6026 -34.6022 -34.6007 -34.6007
   -34.5904 -34.5902 -34.5176 -34.5084 -34.5052 -34.4682 -34.4671 -27.3881
   -27.3877 -27.3836 -27.3833 -27.3786 -27.3779 -27.3769 -27.3764 -27.3763
   -27.3756  -8.8354  -8.8270  -8.7999  -7.2276  -6.7270  -2.9570  -1.6866
    -1.5689  -1.3254  -0.7225  -0.2891   0.5690   0.7908   1.1966   3.2235
     3.3538   3.7202   5.0988   5.1178   5.4502   5.9820   7.2301   8.5587
     8.9019   8.9353   9.0637   9.7020   9.9893  10.0034  10.6038  10.8067
    10.9049  11.2748  11.4013  11.7258  11.9104  12.0053  12.1755  12.3567
    12.6547  12.7657  13.1636  13.4013  13.4971  13.8638  14.0974  14.1713
    14.3844  14.4427  14.6393  14.7035  15.0273  15.1374  15.4316  15.7441
    15.9620  16.0740  16.1558  16.4367  16.4670  16.9749  17.0782  17.4885
    17.8354  18.0957  18.1903  18.2756  18.4606  18.5165  18.6447  18.8617
    19.0097  19.1200  19.2697  19.3254

     occupation numbers 
     1.0000   1.0000   1.0000   1.0000   1.0000   1.0000   1.0000   1.0000
     1.0000   1.0000   1.0000   1.0000   1.0000   1.0000   1.0000   1.0000
     1.0000   1.0000   1.0000   1.0000   1.0000   1.0000   1.0000   1.0000
     1.0000   1.0000   1.0000   1.0000   1.0000   1.0000   1.0000   1.0000
     1.0000   1.0000   1.0000   1.0000   1.0000   1.0000   1.0000   0.0000
     0.0000   0.0000   0.0000   0.0000   0.0000   0.0000   0.0000   0.0000
     0.0000   0.0000   0.0000   0.0000   0.0000   0.0000   0.0000   0.0000
     0.0000   0.0000   0.0000   0.0000   0.0000   0.0000   0.0000   0.0000
     0.0000   0.0000   0.0000   0.0000   0.0000   0.0000   0.0000   0.0000
     0.0000   0.0000   0.0000   0.0000   0.0000   0.0000   0.0000   0.0000
     0.0000   0.0000   0.0000   0.0000   0.0000   0.0000   0.0000   0.0000
     0.0000   0.0000   0.0000   0.0000   0.0000   0.0000   0.0000   0.0000
     0.0000   0.0000   0.0000   0.0000

          k = 0.0769-0.4939 0.0000 ( 24062 PWs)   bands (ev):

   -34.6302 -34.6300 -34.6288 -34.6286 -34.6026 -34.6021 -34.6007 -34.6006
   -34.5905 -34.5903 -34.5177 -34.5083 -34.5052 -34.4682 -34.4671 -27.3880
   -27.3877 -27.3838 -27.3835 -27.3784 -27.3777 -27.3768 -27.3765 -27.3764
   -27.3756  -9.1936  -8.9259  -8.6218  -7.0755  -6.6005  -2.8593  -1.6923
    -1.5134  -1.2167  -0.6647  -0.2253   0.5332   0.8441   1.2695   3.2514
     3.3045   3.7854   5.0191   5.1223   5.4785   6.0070   7.1707   8.2334
     8.4678   9.0456   9.2013   9.3948   9.8336   9.8901  10.4355  10.6289
    10.9427  11.0848  11.5803  11.6435  11.7945  11.8844  12.2905  12.5140
    12.7320  12.8467  13.0446  13.2679  13.6614  13.8421  14.0144  14.1681
    14.3030  14.6199  14.8971  15.0063  15.1183  15.3665  15.6478  15.7945
    15.9609  16.0984  16.2048  16.4589  16.7957  16.8768  17.0037  17.4210
    17.4709  17.5728  17.7019  17.9852  18.0690  18.4378  18.6368  18.8583
    19.0849  19.2277  19.2833  19.5548

     occupation numbers 
     1.0000   1.0000   1.0000   1.0000   1.0000   1.0000   1.0000   1.0000
     1.0000   1.0000   1.0000   1.0000   1.0000   1.0000   1.0000   1.0000
     1.0000   1.0000   1.0000   1.0000   1.0000   1.0000   1.0000   1.0000
     1.0000   1.0000   1.0000   1.0000   1.0000   1.0000   1.0000   1.0000
     1.0000   1.0000   1.0000   1.0000   1.0000   1.0000   1.0000   0.0000
     0.0000   0.0000   0.0000   0.0000   0.0000   0.0000   0.0000   0.0000
     0.0000   0.0000   0.0000   0.0000   0.0000   0.0000   0.0000   0.0000
     0.0000   0.0000   0.0000   0.0000   0.0000   0.0000   0.0000   0.0000
     0.0000   0.0000   0.0000   0.0000   0.0000   0.0000   0.0000   0.0000
     0.0000   0.0000   0.0000   0.0000   0.0000   0.0000   0.0000   0.0000
     0.0000   0.0000   0.0000   0.0000   0.0000   0.0000   0.0000   0.0000
     0.0000   0.0000   0.0000   0.0000   0.0000   0.0000   0.0000   0.0000
     0.0000   0.0000   0.0000   0.0000

          k = 0.0769-0.4041 0.0000 ( 24067 PWs)   bands (ev):

   -34.6302 -34.6300 -34.6290 -34.6288 -34.6026 -34.6021 -34.6006 -34.6006
   -34.5906 -34.5904 -34.5178 -34.5083 -34.5051 -34.4682 -34.4673 -27.3879
   -27.3876 -27.3844 -27.3841 -27.3780 -27.3774 -27.3769 -27.3767 -27.3765
   -27.3756  -9.5983  -9.2055  -8.6022  -6.7523  -6.2753  -2.5704  -1.6428
    -1.2628  -1.0003  -0.5857  -0.0071   0.5649   0.8869   1.4770   3.2038
     3.3379   3.8657   4.8160   5.0987   5.6506   5.8761   7.1646   7.6779
     8.0699   8.3179   8.8681   9.2027   9.6299   9.6819  10.4162  10.4865
    10.6842  10.8872  11.2765  11.3742  11.6742  11.7798  12.0128  12.6358
    12.7756  13.1041  13.1790  13.4083  13.5695  13.7360  13.9058  14.0348
    14.2731  14.9970  15.1692  15.2898  15.5215  15.7187  15.7552  15.8328
    16.0159  16.2041  16.4020  16.4810  16.6771  16.8266  16.9285  16.9808
    17.2623  17.4381  17.6056  18.0289  18.2956  18.4706  18.6733  18.9660
    19.1523  19.2690  19.4615  19.6871

     occupation numbers 
     1.0000   1.0000   1.0000   1.0000   1.0000   1.0000   1.0000   1.0000
     1.0000   1.0000   1.0000   1.0000   1.0000   1.0000   1.0000   1.0000
     1.0000   1.0000   1.0000   1.0000   1.0000   1.0000   1.0000   1.0000
     1.0000   1.0000   1.0000   1.0000   1.0000   1.0000   1.0000   1.0000
     1.0000   1.0000   1.0000   1.0000   1.0000   1.0000   1.0000   0.0000
     0.0000   0.0000   0.0000   0.0000   0.0000   0.0000   0.0000   0.0000
     0.0000   0.0000   0.0000   0.0000   0.0000   0.0000   0.0000   0.0000
     0.0000   0.0000   0.0000   0.0000   0.0000   0.0000   0.0000   0.0000
     0.0000   0.0000   0.0000   0.0000   0.0000   0.0000   0.0000   0.0000
     0.0000   0.0000   0.0000   0.0000   0.0000   0.0000   0.0000   0.0000
     0.0000   0.0000   0.0000   0.0000   0.0000   0.0000   0.0000   0.0000
     0.0000   0.0000   0.0000   0.0000   0.0000   0.0000   0.0000   0.0000
     0.0000   0.0000   0.0000   0.0000

          k = 0.0769-0.3144 0.0000 ( 24040 PWs)   bands (ev):

   -34.6302 -34.6300 -34.6293 -34.6291 -34.6026 -34.6021 -34.6006 -34.6005
   -34.5908 -34.5906 -34.5179 -34.5083 -34.5051 -34.4683 -34.4676 -27.3878
   -27.3875 -27.3852 -27.3850 -27.3778 -27.3774 -27.3769 -27.3766 -27.3762
   -27.3756  -9.9662  -9.5077  -8.6939  -6.4794  -5.8394  -2.0993  -1.4153
    -0.9235  -0.6852  -0.4566   0.1931   0.7417   0.9971   1.6986   3.1404
     3.3006   3.8718   4.5536   4.9568   5.5066   5.9803   6.9974   7.2633
     7.6406   7.9854   8.3836   8.7555   9.2904   9.5927   9.8667  10.1090
    10.2383  10.4464  11.1772  11.2769  11.5175  12.0842  12.3359  12.4536
    12.7046  12.7593  13.0007  13.0603  13.4823  13.8556  14.0761  14.2907
    14.4841  14.5248  14.7777  15.0626  15.2969  15.5055  15.7128  16.1714
    16.2962  16.4828  16.5178  16.7066  16.8047  17.0850  17.1750  17.5443
    17.7634  17.8794  18.2172  18.3974  18.4455  18.7225  18.7738  18.9897
    19.1974  19.3908  19.4950  19.6538

     occupation numbers 
     1.0000   1.0000   1.0000   1.0000   1.0000   1.0000   1.0000   1.0000
     1.0000   1.0000   1.0000   1.0000   1.0000   1.0000   1.0000   1.0000
     1.0000   1.0000   1.0000   1.0000   1.0000   1.0000   1.0000   1.0000
     1.0000   1.0000   1.0000   1.0000   1.0000   1.0000   1.0000   1.0000
     1.0000   1.0000   1.0000   1.0000   1.0000   1.0000   1.0000   0.0000
     0.0000   0.0000   0.0000   0.0000   0.0000   0.0000   0.0000   0.0000
     0.0000   0.0000   0.0000   0.0000   0.0000   0.0000   0.0000   0.0000
     0.0000   0.0000   0.0000   0.0000   0.0000   0.0000   0.0000   0.0000
     0.0000   0.0000   0.0000   0.0000   0.0000   0.0000   0.0000   0.0000
     0.0000   0.0000   0.0000   0.0000   0.0000   0.0000   0.0000   0.0000
     0.0000   0.0000   0.0000   0.0000   0.0000   0.0000   0.0000   0.0000
     0.0000   0.0000   0.0000   0.0000   0.0000   0.0000   0.0000   0.0000
     0.0000   0.0000   0.0000   0.0000

          k = 0.0769-0.2247 0.0000 ( 23987 PWs)   bands (ev):

   -34.6302 -34.6301 -34.6297 -34.6295 -34.6025 -34.6021 -34.6005 -34.6004
   -34.5909 -34.5907 -34.5181 -34.5082 -34.5050 -34.4683 -34.4679 -27.3877
   -27.3874 -27.3861 -27.3859 -27.3783 -27.3779 -27.3763 -27.3762 -27.3757
   -27.3756 -10.2602  -9.7656  -8.8158  -6.3307  -5.4086  -1.4742  -1.0016
    -0.6254  -0.3389  -0.0855   0.2875   0.8326   1.3668   1.7969   2.9342
     3.2191   3.7644   4.1760   4.7220   5.0284   6.3538   6.7463   6.8931
     7.3041   7.9289   8.3525   8.4621   8.7995   9.0027   9.5037   9.8212
     9.9812  10.2654  10.7824  11.0048  11.3959  11.5266  12.0810  12.2517
    12.5971  12.7458  13.0311  13.3602  13.4256  13.7245  13.9013  14.1940
    14.2599  14.5952  14.8007  14.9616  15.6209  15.7628  15.9363  16.0216
    16.2764  16.6644  16.6905  16.9055  17.0973  17.1501  17.3695  17.6124
    18.0613  18.4417  18.6227  18.7176  18.7914  18.8701  19.0032  19.0168
    19.2575  19.3702  19.6493  19.7208

     occupation numbers 
     1.0000   1.0000   1.0000   1.0000   1.0000   1.0000   1.0000   1.0000
     1.0000   1.0000   1.0000   1.0000   1.0000   1.0000   1.0000   1.0000
     1.0000   1.0000   1.0000   1.0000   1.0000   1.0000   1.0000   1.0000
     1.0000   1.0000   1.0000   1.0000   1.0000   1.0000   1.0000   1.0000
     1.0000   1.0000   1.0000   1.0000   1.0000   1.0000   1.0000   0.0000
     0.0000   0.0000   0.0000   0.0000   0.0000   0.0000   0.0000   0.0000
     0.0000   0.0000   0.0000   0.0000   0.0000   0.0000   0.0000   0.0000
     0.0000   0.0000   0.0000   0.0000   0.0000   0.0000   0.0000   0.0000
     0.0000   0.0000   0.0000   0.0000   0.0000   0.0000   0.0000   0.0000
     0.0000   0.0000   0.0000   0.0000   0.0000   0.0000   0.0000   0.0000
     0.0000   0.0000   0.0000   0.0000   0.0000   0.0000   0.0000   0.0000
     0.0000   0.0000   0.0000   0.0000   0.0000   0.0000   0.0000   0.0000
     0.0000   0.0000   0.0000   0.0000

          k = 0.0769-0.1350 0.0000 ( 23933 PWs)   bands (ev):

   -34.6303 -34.6301 -34.6299 -34.6297 -34.6025 -34.6020 -34.6004 -34.6004
   -34.5911 -34.5909 -34.5182 -34.5082 -34.5049 -34.4684 -34.4682 -27.3876
   -27.3873 -27.3869 -27.3866 -27.3787 -27.3783 -27.3760 -27.3757 -27.3755
   -27.3752 -10.4632  -9.9491  -8.9186  -6.2711  -5.0873  -0.8173  -0.4655
    -0.2248  -0.0823   0.1901   0.5450   0.9008   1.6510   1.6688   2.7531
     3.1272   3.2902   4.0242   4.2402   4.6340   6.5167   6.5202   6.9272
     7.2392   7.7316   8.2153   8.4874   8.6240   8.7822   9.0715   9.5661
     9.8645  10.1362  10.4355  10.8160  11.0792  11.1992  11.3322  11.6661
    12.4995  12.5173  12.9515  13.1585  13.4626  13.6389  14.0604  14.3194
    14.9027  15.1896  15.2666  15.3786  15.4951  15.5852  15.8267  16.4482
    16.6148  16.6244  17.0405  17.0761  17.2621  17.3841  17.4850  17.6827
    17.7402  17.8329  17.9243  17.9495  18.6661  19.2545  19.4744  19.5986
    19.6047  19.6503  19.9557  20.0397

     occupation numbers 
     1.0000   1.0000   1.0000   1.0000   1.0000   1.0000   1.0000   1.0000
     1.0000   1.0000   1.0000   1.0000   1.0000   1.0000   1.0000   1.0000
     1.0000   1.0000   1.0000   1.0000   1.0000   1.0000   1.0000   1.0000
     1.0000   1.0000   1.0000   1.0000   1.0000   1.0000   1.0000   1.0000
     1.0000   1.0000   1.0000   1.0000   1.0000   1.0000   1.0000   0.0000
     0.0000   0.0000   0.0000   0.0000   0.0000   0.0000   0.0000   0.0000
     0.0000   0.0000   0.0000   0.0000   0.0000   0.0000   0.0000   0.0000
     0.0000   0.0000   0.0000   0.0000   0.0000   0.0000   0.0000   0.0000
     0.0000   0.0000   0.0000   0.0000   0.0000   0.0000   0.0000   0.0000
     0.0000   0.0000   0.0000   0.0000   0.0000   0.0000   0.0000   0.0000
     0.0000   0.0000   0.0000   0.0000   0.0000   0.0000   0.0000   0.0000
     0.0000   0.0000   0.0000   0.0000   0.0000   0.0000   0.0000   0.0000
     0.0000   0.0000   0.0000   0.0000

          k = 0.0769-0.0453 0.0000 ( 23931 PWs)   bands (ev):

   -34.6303 -34.6301 -34.6301 -34.6299 -34.6025 -34.6020 -34.6004 -34.6003
   -34.5912 -34.5910 -34.5183 -34.5082 -34.5048 -34.4685 -34.4683 -27.3875
   -27.3873 -27.3873 -27.3870 -27.3790 -27.3786 -27.3759 -27.3757 -27.3752
   -27.3749 -10.5667 -10.0440  -8.9761  -6.2548  -4.9230  -0.3530  -0.0842
     0.0953   0.1822   0.4387   0.6022   1.1644   1.2787   1.7223   2.5942
     2.9780   3.0355   3.8342   4.0443   4.3094   6.3598   6.4892   7.0154
     7.4667   7.7093   7.8946   8.5239   8.6797   8.8092   9.0577   9.2337
     9.7837   9.9359  10.3131  10.4914  10.8763  11.0023  11.0784  11.4427
    12.1085  12.2630  12.8620  13.0747  13.5447  13.6889  14.3907  14.6725
    14.7166  15.0771  15.5911  15.6679  15.9270  16.1677  16.2489  16.4388
    16.6346  16.7219  16.9066  16.9928  17.1117  17.1741  17.5063  17.8799
    18.1354  18.2073  18.2351  18.5032  18.5454  18.6389  18.7450  18.9410
    18.9796  19.1046  19.2296  19.5141

     occupation numbers 
     1.0000   1.0000   1.0000   1.0000   1.0000   1.0000   1.0000   1.0000
     1.0000   1.0000   1.0000   1.0000   1.0000   1.0000   1.0000   1.0000
     1.0000   1.0000   1.0000   1.0000   1.0000   1.0000   1.0000   1.0000
     1.0000   1.0000   1.0000   1.0000   1.0000   1.0000   1.0000   1.0000
     1.0000   1.0000   1.0000   1.0000   1.0000   1.0000   1.0000   0.0000
     0.0000   0.0000   0.0000   0.0000   0.0000   0.0000   0.0000   0.0000
     0.0000   0.0000   0.0000   0.0000   0.0000   0.0000   0.0000   0.0000
     0.0000   0.0000   0.0000   0.0000   0.0000   0.0000   0.0000   0.0000
     0.0000   0.0000   0.0000   0.0000   0.0000   0.0000   0.0000   0.0000
     0.0000   0.0000   0.0000   0.0000   0.0000   0.0000   0.0000   0.0000
     0.0000   0.0000   0.0000   0.0000   0.0000   0.0000   0.0000   0.0000
     0.0000   0.0000   0.0000   0.0000   0.0000   0.0000   0.0000   0.0000
     0.0000   0.0000   0.0000   0.0000

          k = 0.1538 0.0888 0.0000 ( 23991 PWs)   bands (ev):

   -34.6302 -34.6300 -34.6300 -34.6298 -34.6025 -34.6021 -34.6004 -34.6004
   -34.5911 -34.5909 -34.5182 -34.5083 -34.5048 -34.4684 -34.4681 -27.3876
   -27.3873 -27.3868 -27.3865 -27.3787 -27.3783 -27.3765 -27.3760 -27.3753
   -27.3748 -10.4161  -9.9069  -8.8954  -6.2887  -5.1795  -1.1297  -0.4918
    -0.2946  -0.2044   0.2340   0.2567   1.2359   1.3833   1.6933   2.9093
     3.2342   3.4117   4.0978   4.2968   4.7340   6.3983   6.5878   6.8809
     7.4227   7.7626   8.2478   8.3949   8.6368   8.8790   9.3080   9.5756
     9.7334  10.1685  10.5529  10.8400  11.2127  11.3349  11.6012  11.8202
    12.3356  12.5151  12.9122  13.3026  13.4388  13.7037  13.9112  14.5439
    14.5660  14.7417  15.0060  15.4460  15.6947  15.9929  16.1284  16.1691
    16.4421  16.5160  16.5684  16.6658  16.8873  17.1854  17.7615  17.8351
    18.1386  18.2710  18.3133  18.4460  18.5978  19.1613  19.3368  19.3919
    19.4995  19.6333  19.7266  19.9015

     occupation numbers 
     1.0000   1.0000   1.0000   1.0000   1.0000   1.0000   1.0000   1.0000
     1.0000   1.0000   1.0000   1.0000   1.0000   1.0000   1.0000   1.0000
     1.0000   1.0000   1.0000   1.0000   1.0000   1.0000   1.0000   1.0000
     1.0000   1.0000   1.0000   1.0000   1.0000   1.0000   1.0000   1.0000
     1.0000   1.0000   1.0000   1.0000   1.0000   1.0000   1.0000   0.0000
     0.0000   0.0000   0.0000   0.0000   0.0000   0.0000   0.0000   0.0000
     0.0000   0.0000   0.0000   0.0000   0.0000   0.0000   0.0000   0.0000
     0.0000   0.0000   0.0000   0.0000   0.0000   0.0000   0.0000   0.0000
     0.0000   0.0000   0.0000   0.0000   0.0000   0.0000   0.0000   0.0000
     0.0000   0.0000   0.0000   0.0000   0.0000   0.0000   0.0000   0.0000
     0.0000   0.0000   0.0000   0.0000   0.0000   0.0000   0.0000   0.0000
     0.0000   0.0000   0.0000   0.0000   0.0000   0.0000   0.0000   0.0000
     0.0000   0.0000   0.0000   0.0000

          k = 0.1538 0.1785 0.0000 ( 24012 PWs)   bands (ev):

   -34.6302 -34.6300 -34.6298 -34.6295 -34.6026 -34.6021 -34.6004 -34.6004
   -34.5910 -34.5908 -34.5181 -34.5083 -34.5049 -34.4684 -34.4679 -27.3876
   -27.3873 -27.3863 -27.3860 -27.3785 -27.3780 -27.3768 -27.3762 -27.3756
   -27.3750 -10.2656  -9.7714  -8.8208  -6.3376  -5.4201  -1.5064  -0.9788
    -0.6581  -0.3037  -0.0704   0.3083   0.8745   1.3966   1.8183   2.9666
     3.2913   3.7335   4.1785   4.7698   4.9659   6.3416   6.7425   6.8993
     7.3118   7.9140   8.3228   8.4568   8.8556   9.0022   9.5000   9.8005
    10.0352  10.2187  10.7783  11.0019  11.3825  11.5217  12.0538  12.1975
    12.5797  12.6732  13.0631  13.3388  13.4748  13.7119  13.8905  14.1049
    14.1489  14.5843  14.8761  15.0602  15.6469  15.7837  15.8333  15.9980
    16.2155  16.7219  16.7619  16.9699  17.1102  17.2283  17.4950  17.6395
    18.0068  18.3404  18.5572  18.6151  18.7386  18.8655  18.9508  19.0042
    19.2226  19.4121  19.7017  19.7919

     occupation numbers 
     1.0000   1.0000   1.0000   1.0000   1.0000   1.0000   1.0000   1.0000
     1.0000   1.0000   1.0000   1.0000   1.0000   1.0000   1.0000   1.0000
     1.0000   1.0000   1.0000   1.0000   1.0000   1.0000   1.0000   1.0000
     1.0000   1.0000   1.0000   1.0000   1.0000   1.0000   1.0000   1.0000
     1.0000   1.0000   1.0000   1.0000   1.0000   1.0000   1.0000   0.0000
     0.0000   0.0000   0.0000   0.0000   0.0000   0.0000   0.0000   0.0000
     0.0000   0.0000   0.0000   0.0000   0.0000   0.0000   0.0000   0.0000
     0.0000   0.0000   0.0000   0.0000   0.0000   0.0000   0.0000   0.0000
     0.0000   0.0000   0.0000   0.0000   0.0000   0.0000   0.0000   0.0000
     0.0000   0.0000   0.0000   0.0000   0.0000   0.0000   0.0000   0.0000
     0.0000   0.0000   0.0000   0.0000   0.0000   0.0000   0.0000   0.0000
     0.0000   0.0000   0.0000   0.0000   0.0000   0.0000   0.0000   0.0000
     0.0000   0.0000   0.0000   0.0000

          k = 0.1538 0.2682 0.0000 ( 24045 PWs)   bands (ev):

   -34.6301 -34.6299 -34.6295 -34.6293 -34.6026 -34.6022 -34.6005 -34.6005
   -34.5908 -34.5906 -34.5179 -34.5084 -34.5050 -34.4683 -34.4677 -27.3876
   -27.3873 -27.3856 -27.3854 -27.3781 -27.3776 -27.3771 -27.3766 -27.3757
   -27.3753 -10.0204  -9.5551  -8.7140  -6.4475  -5.7915  -1.7971  -1.6700
    -0.7856  -0.7237  -0.4106   0.0665   0.7992   1.4913   1.5560   3.0740
     3.6319   3.7637   4.3196   5.2337   5.3094   6.5089   6.5853   7.0989
     7.4317   7.9946   8.2293   8.4427   9.3674   9.6373   9.9734  10.0027
    10.1742  10.6310  10.9341  11.0469  11.9100  12.1555  12.2293  12.4461
    12.5223  12.7714  13.1696  13.2478  13.4758  13.5986  13.6814  13.7238
    14.4275  14.6477  14.8538  14.9784  15.3933  15.4769  15.6774  15.7726
    16.1971  16.2678  16.6673  16.7024  17.0183  17.3559  17.8837  17.9778
    18.0419  18.0906  18.2117  18.3958  18.4498  18.5480  18.7004  18.7816
    18.9271  19.3869  19.8429  20.1969

     occupation numbers 
     1.0000   1.0000   1.0000   1.0000   1.0000   1.0000   1.0000   1.0000
     1.0000   1.0000   1.0000   1.0000   1.0000   1.0000   1.0000   1.0000
     1.0000   1.0000   1.0000   1.0000   1.0000   1.0000   1.0000   1.0000
     1.0000   1.0000   1.0000   1.0000   1.0000   1.0000   1.0000   1.0000
     1.0000   1.0000   1.0000   1.0000   1.0000   1.0000   1.0000   0.0000
     0.0000   0.0000   0.0000   0.0000   0.0000   0.0000   0.0000   0.0000
     0.0000   0.0000   0.0000   0.0000   0.0000   0.0000   0.0000   0.0000
     0.0000   0.0000   0.0000   0.0000   0.0000   0.0000   0.0000   0.0000
     0.0000   0.0000   0.0000   0.0000   0.0000   0.0000   0.0000   0.0000
     0.0000   0.0000   0.0000   0.0000   0.0000   0.0000   0.0000   0.0000
     0.0000   0.0000   0.0000   0.0000   0.0000   0.0000   0.0000   0.0000
     0.0000   0.0000   0.0000   0.0000   0.0000   0.0000   0.0000   0.0000
     0.0000   0.0000   0.0000   0.0000

          k = 0.1538 0.3580 0.0000 ( 24054 PWs)   bands (ev):

   -34.6301 -34.6299 -34.6292 -34.6290 -34.6026 -34.6022 -34.6005 -34.6005
   -34.5907 -34.5905 -34.5178 -34.5084 -34.5050 -34.4682 -34.4675 -27.3875
   -27.3872 -27.3850 -27.3847 -27.3780 -27.3775 -27.3772 -27.3768 -27.3759
   -27.3756  -9.6929  -9.2784  -8.6070  -6.6481  -6.2315  -2.2648  -1.9058
    -1.1957  -0.9559  -0.7150  -0.1591   0.8277   1.0867   1.5554   3.2053
     3.7365   3.7698   4.6584   5.3933   5.6558   6.2374   7.0073   7.5279
     7.5824   8.0012   8.6443   8.7065   9.5026   9.6637  10.4253  10.4953
    10.7571  11.0169  11.0782  11.7656  11.9564  12.0110  12.2451  12.4011
    12.6919  12.7924  13.0768  13.1757  13.2156  13.2629  13.9586  14.1714
    14.4020  14.5878  14.7524  15.0739  15.1140  15.2144  15.3830  15.9487
    16.0481  16.2376  16.7308  16.8013  17.0048  17.2178  17.2629  17.6510
    17.6959  17.9774  18.1011  18.1774  18.4652  18.7993  19.1578  19.2743
    19.4283  19.6440  19.7353  19.7988

     occupation numbers 
     1.0000   1.0000   1.0000   1.0000   1.0000   1.0000   1.0000   1.0000
     1.0000   1.0000   1.0000   1.0000   1.0000   1.0000   1.0000   1.0000
     1.0000   1.0000   1.0000   1.0000   1.0000   1.0000   1.0000   1.0000
     1.0000   1.0000   1.0000   1.0000   1.0000   1.0000   1.0000   1.0000
     1.0000   1.0000   1.0000   1.0000   1.0000   1.0000   1.0000   0.0000
     0.0000   0.0000   0.0000   0.0000   0.0000   0.0000   0.0000   0.0000
     0.0000   0.0000   0.0000   0.0000   0.0000   0.0000   0.0000   0.0000
     0.0000   0.0000   0.0000   0.0000   0.0000   0.0000   0.0000   0.0000
     0.0000   0.0000   0.0000   0.0000   0.0000   0.0000   0.0000   0.0000
     0.0000   0.0000   0.0000   0.0000   0.0000   0.0000   0.0000   0.0000
     0.0000   0.0000   0.0000   0.0000   0.0000   0.0000   0.0000   0.0000
     0.0000   0.0000   0.0000   0.0000   0.0000   0.0000   0.0000   0.0000
     0.0000   0.0000   0.0000   0.0000

          k = 0.1538 0.4477 0.0000 ( 24036 PWs)   bands (ev):

   -34.6300 -34.6298 -34.6290 -34.6288 -34.6026 -34.6022 -34.6006 -34.6006
   -34.5905 -34.5903 -34.5177 -34.5084 -34.5051 -34.4681 -34.4673 -27.3875
   -27.3872 -27.3844 -27.3841 -27.3782 -27.3777 -27.3771 -27.3766 -27.3762
   -27.3758  -9.3091  -8.9846  -8.5548  -6.9443  -6.6244  -2.6451  -1.9365
[...]
     0.0000   0.0000   0.0000   0.0000

          k = 0.4615 0.7150 0.0000 ( 24045 PWs)   bands (ev):

   -36.4415 -36.4411 -36.4352 -36.4349 -36.4085 -36.4079 -36.3963 -36.3959
   -36.3898 -36.3897 -36.1502 -36.1427 -36.1305 -36.0897 -36.0852 -29.1267
   -29.1259 -29.1225 -29.1218 -29.1118 -29.1111 -29.1013 -29.1006 -29.0933
   -29.0911 -10.9348 -10.7898 -10.5778  -9.0529  -8.6303  -4.1829  -3.2265
    -3.0406  -2.5572  -1.9444  -1.7393  -0.3428   0.0462   0.6352   2.9539
     3.4323   3.5273   4.8318   5.2994   5.8315   6.4114   7.7674   8.5980
     8.8735   9.1698   9.3382   9.7253   9.9821  10.1880  10.6322  10.7108
    10.9060  11.1177  11.4136  11.9153  12.1049  12.3505  12.5040  12.7753
    12.8500  13.1188  13.5919  13.6506  13.8561  14.3311  14.5848  14.7330
    14.7766  15.0445  15.3338  15.4265  15.7492  15.8530  16.2075  16.5416
    16.6889  16.7801  17.4347  17.4613  17.5712  17.6371  17.9551  18.0337
    18.3120  18.5122  18.6644  18.7438  19.0898  19.3190  19.3905  19.4783
    19.5715  19.8307  20.0465  20.3744

     occupation numbers 
     1.0000   1.0000   1.0000   1.0000   1.0000   1.0000   1.0000   1.0000
     1.0000   1.0000   1.0000   1.0000   1.0000   1.0000   1.0000   1.0000
     1.0000   1.0000   1.0000   1.0000   1.0000   1.0000   1.0000   1.0000
     1.0000   1.0000   1.0000   1.0000   1.0000   1.0000   1.0000   1.0000
     1.0000   1.0000   1.0000   1.0000   1.0000   1.0000   1.0000   0.0000
     0.0000   0.0000   0.0000   0.0000   0.0000   0.0000   0.0000   0.0000
     0.0000   0.0000   0.0000   0.0000   0.0000   0.0000   0.0000   0.0000
     0.0000   0.0000   0.0000   0.0000   0.0000   0.0000   0.0000   0.0000
     0.0000   0.0000   0.0000   0.0000   0.0000   0.0000   0.0000   0.0000
     0.0000   0.0000   0.0000   0.0000   0.0000   0.0000   0.0000   0.0000
     0.0000   0.0000   0.0000   0.0000   0.0000   0.0000   0.0000   0.0000
     0.0000   0.0000   0.0000   0.0000   0.0000   0.0000   0.0000   0.0000
     0.0000   0.0000   0.0000   0.0000

          k = 0.4615 0.8047 0.0000 ( 24077 PWs)   bands (ev):

   -36.4417 -36.4412 -36.4330 -36.4326 -36.4086 -36.4081 -36.3989 -36.3987
   -36.3920 -36.3919 -36.1494 -36.1461 -36.1252 -36.0912 -36.0840 -29.1323
   -29.1314 -29.1265 -29.1258 -29.1135 -29.1118 -29.1010 -29.1002 -29.0911
   -29.0890 -10.8878 -10.8540 -10.7438  -9.0750  -8.4672  -4.3193  -2.9192
    -2.8231  -2.5680  -1.9417  -1.3927  -0.3134  -0.1418   0.4804   3.0047
     3.0409   3.4459   4.8760   5.0008   5.8491   5.9185   7.5883   8.6960
     8.9760   9.0321   9.1648   9.9734  10.0897  10.1138  10.8004  11.2051
    11.3620  11.5793  11.8816  12.1757  12.2105  12.3441  12.7735  12.8606
    12.9912  13.1890  13.5236  13.8286  14.0384  14.3485  14.6550  14.7119
    14.8413  14.9835  15.0019  15.0470  15.4909  15.5337  15.8827  16.1780
    16.3835  16.5196  16.7623  16.9342  17.1209  17.6399  17.6713  17.9163
    18.2885  18.6797  18.7200  18.8994  18.9343  18.9744  19.1190  19.5927
    19.6297  19.7710  19.8464  19.9011

     occupation numbers 
     1.0000   1.0000   1.0000   1.0000   1.0000   1.0000   1.0000   1.0000
     1.0000   1.0000   1.0000   1.0000   1.0000   1.0000   1.0000   1.0000
     1.0000   1.0000   1.0000   1.0000   1.0000   1.0000   1.0000   1.0000
     1.0000   1.0000   1.0000   1.0000   1.0000   1.0000   1.0000   1.0000
     1.0000   1.0000   1.0000   1.0000   1.0000   1.0000   1.0000   0.0000
     0.0000   0.0000   0.0000   0.0000   0.0000   0.0000   0.0000   0.0000
     0.0000   0.0000   0.0000   0.0000   0.0000   0.0000   0.0000   0.0000
     0.0000   0.0000   0.0000   0.0000   0.0000   0.0000   0.0000   0.0000
     0.0000   0.0000   0.0000   0.0000   0.0000   0.0000   0.0000   0.0000
     0.0000   0.0000   0.0000   0.0000   0.0000   0.0000   0.0000   0.0000
     0.0000   0.0000   0.0000   0.0000   0.0000   0.0000   0.0000   0.0000
     0.0000   0.0000   0.0000   0.0000   0.0000   0.0000   0.0000   0.0000
     0.0000   0.0000   0.0000   0.0000

          k = 0.4615-0.2718 0.0000 ( 24071 PWs)   bands (ev):

   -36.4430 -36.4424 -36.4336 -36.4332 -36.4099 -36.4094 -36.3989 -36.3987
   -36.3913 -36.3911 -36.1490 -36.1481 -36.1225 -36.0942 -36.0852 -29.1337
   -29.1328 -29.1286 -29.1279 -29.1140 -29.1111 -29.1019 -29.1004 -29.0901
   -29.0882 -11.0617 -10.9083 -10.6846  -9.0235  -8.3600  -4.3312  -2.8827
    -2.5903  -2.5605  -1.8709  -1.3207  -0.3088  -0.0953   0.3172   2.7243
     3.2211   3.4512   4.7689   4.9415   5.7379   5.8890   7.5176   8.5111
     8.7758   9.1517   9.3688   9.7155  10.0924  10.3803  10.8328  11.3468
    11.5225  11.8128  11.8962  12.2016  12.2694  12.4050  12.5917  12.9603
    13.1047  13.4022  13.5293  13.7327  14.2671  14.3098  14.5196  14.6718
    14.7585  14.8878  14.9552  15.2066  15.4556  15.4983  15.6780  15.9764
    16.0992  16.3434  16.8964  17.0364  17.1878  17.3298  17.6651  17.9356
    18.2086  18.2289  18.3416  18.6378  18.8752  19.0429  19.0712  19.3412
    19.3745  20.0959  20.1439  20.2047

     occupation numbers 
     1.0000   1.0000   1.0000   1.0000   1.0000   1.0000   1.0000   1.0000
     1.0000   1.0000   1.0000   1.0000   1.0000   1.0000   1.0000   1.0000
     1.0000   1.0000   1.0000   1.0000   1.0000   1.0000   1.0000   1.0000
     1.0000   1.0000   1.0000   1.0000   1.0000   1.0000   1.0000   1.0000
     1.0000   1.0000   1.0000   1.0000   1.0000   1.0000   1.0000   0.0000
     0.0000   0.0000   0.0000   0.0000   0.0000   0.0000   0.0000   0.0000
     0.0000   0.0000   0.0000   0.0000   0.0000   0.0000   0.0000   0.0000
     0.0000   0.0000   0.0000   0.0000   0.0000   0.0000   0.0000   0.0000
     0.0000   0.0000   0.0000   0.0000   0.0000   0.0000   0.0000   0.0000
     0.0000   0.0000   0.0000   0.0000   0.0000   0.0000   0.0000   0.0000
     0.0000   0.0000   0.0000   0.0000   0.0000   0.0000   0.0000   0.0000
     0.0000   0.0000   0.0000   0.0000   0.0000   0.0000   0.0000   0.0000
     0.0000   0.0000   0.0000   0.0000

          k = 0.4615-0.1821 0.0000 ( 24035 PWs)   bands (ev):

   -36.4428 -36.4423 -36.4345 -36.4341 -36.4086 -36.4080 -36.4008 -36.4005
   -36.3912 -36.3911 -36.1488 -36.1460 -36.1260 -36.0926 -36.0858 -29.1325
   -29.1316 -29.1265 -29.1258 -29.1139 -29.1123 -29.1019 -29.1011 -29.0912
   -29.0891 -11.2338 -10.9706 -10.5612  -8.9154  -8.3429  -4.2187  -2.9310
    -2.7604  -2.4758  -1.8643  -1.3453  -0.3520  -0.0781   0.5472   2.9811
     3.0573   3.5069   4.7977   5.0077   5.7853   6.0456   7.5296   8.2636
     8.5730   9.2802   9.5254   9.5383  10.0932  10.3799  10.7093  10.8766
    11.2670  11.4247  11.8778  12.0489  12.2220  12.4272  12.5630  12.9822
    13.1009  13.1882  13.4779  13.5833  13.8998  14.1860  14.2916  14.6596
    14.8180  15.1559  15.3793  15.5637  15.6656  15.8484  16.0657  16.2790
    16.4483  16.5396  16.5943  17.0109  17.4304  17.5361  17.6052  17.8387
    18.0110  18.2909  18.4714  18.5258  18.7347  18.9338  19.0766  19.3954
    19.5356  19.7453  19.8648  20.2507

     occupation numbers 
     1.0000   1.0000   1.0000   1.0000   1.0000   1.0000   1.0000   1.0000
     1.0000   1.0000   1.0000   1.0000   1.0000   1.0000   1.0000   1.0000
     1.0000   1.0000   1.0000   1.0000   1.0000   1.0000   1.0000   1.0000
     1.0000   1.0000   1.0000   1.0000   1.0000   1.0000   1.0000   1.0000
     1.0000   1.0000   1.0000   1.0000   1.0000   1.0000   1.0000   0.0000
     0.0000   0.0000   0.0000   0.0000   0.0000   0.0000   0.0000   0.0000
     0.0000   0.0000   0.0000   0.0000   0.0000   0.0000   0.0000   0.0000
     0.0000   0.0000   0.0000   0.0000   0.0000   0.0000   0.0000   0.0000
     0.0000   0.0000   0.0000   0.0000   0.0000   0.0000   0.0000   0.0000
     0.0000   0.0000   0.0000   0.0000   0.0000   0.0000   0.0000   0.0000
     0.0000   0.0000   0.0000   0.0000   0.0000   0.0000   0.0000   0.0000
     0.0000   0.0000   0.0000   0.0000   0.0000   0.0000   0.0000   0.0000
     0.0000   0.0000   0.0000   0.0000

          k = 0.4615-0.0924 0.0000 ( 24040 PWs)   bands (ev):

   -36.4429 -36.4425 -36.4368 -36.4365 -36.4107 -36.4101 -36.3990 -36.3987
   -36.3900 -36.3900 -36.1508 -36.1448 -36.1321 -36.0916 -36.0879 -29.1271
   -29.1262 -29.1221 -29.1213 -29.1120 -29.1112 -29.1032 -29.1025 -29.0939
   -29.0921 -11.3445 -11.0111 -10.4741  -8.7668  -8.3957  -3.9917  -3.2474
    -2.7166  -2.5950  -1.9351  -1.5182  -0.2715   0.0904   0.7037   2.8782
     3.4795   3.6253   4.6564   5.2891   5.7506   6.5486   7.6925   8.0612
     8.4645   8.6462   9.2494   9.3934  10.0131  10.1756  10.5104  10.8666
    11.2340  11.3904  11.7088  11.8327  12.1846  12.4361  12.7676  12.9626
    13.0808  13.3340  13.4011  13.4971  13.6697  13.9334  14.1077  14.2561
    14.7260  14.8369  15.1014  15.6017  15.7740  16.1616  16.2514  16.3429
    16.8434  17.0191  17.3116  17.4258  17.4659  17.7027  17.9399  17.9837
    18.2161  18.4692  18.5108  18.7355  18.8078  19.0007  19.5755  19.6390
    19.8060  20.1312  20.2453  20.4695

     occupation numbers 
     1.0000   1.0000   1.0000   1.0000   1.0000   1.0000   1.0000   1.0000
     1.0000   1.0000   1.0000   1.0000   1.0000   1.0000   1.0000   1.0000
     1.0000   1.0000   1.0000   1.0000   1.0000   1.0000   1.0000   1.0000
     1.0000   1.0000   1.0000   1.0000   1.0000   1.0000   1.0000   1.0000
     1.0000   1.0000   1.0000   1.0000   1.0000   1.0000   1.0000   0.0000
     0.0000   0.0000   0.0000   0.0000   0.0000   0.0000   0.0000   0.0000
     0.0000   0.0000   0.0000   0.0000   0.0000   0.0000   0.0000   0.0000
     0.0000   0.0000   0.0000   0.0000   0.0000   0.0000   0.0000   0.0000
     0.0000   0.0000   0.0000   0.0000   0.0000   0.0000   0.0000   0.0000
     0.0000   0.0000   0.0000   0.0000   0.0000   0.0000   0.0000   0.0000
     0.0000   0.0000   0.0000   0.0000   0.0000   0.0000   0.0000   0.0000
     0.0000   0.0000   0.0000   0.0000   0.0000   0.0000   0.0000   0.0000
     0.0000   0.0000   0.0000   0.0000

          k = 0.4615-0.0027 0.0000 ( 24052 PWs)   bands (ev):

   -36.4453 -36.4448 -36.4296 -36.4294 -36.4094 -36.4089 -36.4006 -36.4006
   -36.3880 -36.3880 -36.1495 -36.1435 -36.1320 -36.0895 -36.0869 -29.1252
   -29.1245 -29.1220 -29.1212 -29.1113 -29.1095 -29.1054 -29.1048 -29.1034
   -29.1025 -11.3806 -11.0234 -10.4361  -8.6782  -8.4535  -3.7202  -3.6150
    -2.6694  -2.3993  -2.2823  -1.5443  -0.1520   0.3311   0.5118   3.2583
     3.2875   3.6365   4.8379   5.3726   5.6359   7.3221   7.4421   7.9050
     8.0903   8.5513   9.0063   9.1985  10.0073  10.0191  10.6989  10.9484
    11.0793  11.3838  11.7867  11.8760  12.0588  12.4857  12.6574  12.7214
    13.0639  13.2198  13.4105  13.7074  13.7413  14.1598  14.2836  14.3766
    14.4881  14.6868  14.8966  15.0178  15.6602  15.7747  16.3058  16.7796
    16.9590  17.2062  17.2325  17.4599  17.5108  17.8301  18.0505  18.3366
    18.4773  18.5006  18.8645  19.2297  19.4154  19.4846  19.6177  19.7592
    19.9389  20.0038  20.4602  20.5478

     occupation numbers 
     1.0000   1.0000   1.0000   1.0000   1.0000   1.0000   1.0000   1.0000
     1.0000   1.0000   1.0000   1.0000   1.0000   1.0000   1.0000   1.0000
     1.0000   1.0000   1.0000   1.0000   1.0000   1.0000   1.0000   1.0000
     1.0000   1.0000   1.0000   1.0000   1.0000   1.0000   1.0000   1.0000
     1.0000   1.0000   1.0000   1.0000   1.0000   1.0000   1.0000   0.0000
     0.0000   0.0000   0.0000   0.0000   0.0000   0.0000   0.0000   0.0000
     0.0000   0.0000   0.0000   0.0000   0.0000   0.0000   0.0000   0.0000
     0.0000   0.0000   0.0000   0.0000   0.0000   0.0000   0.0000   0.0000
     0.0000   0.0000   0.0000   0.0000   0.0000   0.0000   0.0000   0.0000
     0.0000   0.0000   0.0000   0.0000   0.0000   0.0000   0.0000   0.0000
     0.0000   0.0000   0.0000   0.0000   0.0000   0.0000   0.0000   0.0000
     0.0000   0.0000   0.0000   0.0000   0.0000   0.0000   0.0000   0.0000
     0.0000   0.0000   0.0000   0.0000

          k = 0.4615 0.0870 0.0000 ( 24029 PWs)   bands (ev):

   -36.4434 -36.4430 -36.4368 -36.4366 -36.4100 -36.4097 -36.3996 -36.3996
   -36.3904 -36.3903 -36.1510 -36.1443 -36.1330 -36.0916 -36.0882 -29.1266
   -29.1258 -29.1221 -29.1212 -29.1121 -29.1113 -29.1037 -29.1029 -29.0935
   -29.0916 -11.3505 -11.0191 -10.4830  -8.7760  -8.3930  -3.9921  -3.2426
    -2.7105  -2.5792  -1.9393  -1.5010  -0.2617   0.0996   0.7285   2.9136
     3.5083   3.6158   4.6709   5.3168   5.7414   6.5679   7.6855   8.0520
     8.4618   8.5983   9.2381   9.3636   9.9852  10.1784  10.4936  10.8449
    11.2402  11.3573  11.7126  11.8055  12.2199  12.4674  12.8098  12.9743
    13.1314  13.3853  13.4139  13.4934  13.6542  13.9354  14.0981  14.2432
    14.7274  14.8585  15.1324  15.6147  15.7648  16.1189  16.2439  16.3252
    16.8068  17.0707  17.2890  17.4236  17.4721  17.6835  17.9347  18.0181
    18.2211  18.4879  18.4943  18.6763  18.7876  18.9307  19.5409  19.6351
    19.7922  20.1500  20.1837  20.4292

     occupation numbers 
     1.0000   1.0000   1.0000   1.0000   1.0000   1.0000   1.0000   1.0000
     1.0000   1.0000   1.0000   1.0000   1.0000   1.0000   1.0000   1.0000
     1.0000   1.0000   1.0000   1.0000   1.0000   1.0000   1.0000   1.0000
     1.0000   1.0000   1.0000   1.0000   1.0000   1.0000   1.0000   1.0000
     1.0000   1.0000   1.0000   1.0000   1.0000   1.0000   1.0000   0.0000
     0.0000   0.0000   0.0000   0.0000   0.0000   0.0000   0.0000   0.0000
     0.0000   0.0000   0.0000   0.0000   0.0000   0.0000   0.0000   0.0000
     0.0000   0.0000   0.0000   0.0000   0.0000   0.0000   0.0000   0.0000
     0.0000   0.0000   0.0000   0.0000   0.0000   0.0000   0.0000   0.0000
     0.0000   0.0000   0.0000   0.0000   0.0000   0.0000   0.0000   0.0000
     0.0000   0.0000   0.0000   0.0000   0.0000   0.0000   0.0000   0.0000
     0.0000   0.0000   0.0000   0.0000   0.0000   0.0000   0.0000   0.0000
     0.0000   0.0000   0.0000   0.0000

          k = 0.4615 0.1768 0.0000 ( 24075 PWs)   bands (ev):

   -36.4436 -36.4433 -36.4350 -36.4348 -36.4079 -36.4074 -36.4014 -36.4014
   -36.3914 -36.3913 -36.1488 -36.1450 -36.1279 -36.0929 -36.0865 -29.1319
   -29.1310 -29.1265 -29.1257 -29.1140 -29.1124 -29.1023 -29.1016 -29.0903
   -29.0883 -11.2461 -10.9858 -10.5760  -8.9259  -8.3432  -4.2172  -2.9401
    -2.7391  -2.4506  -1.8470  -1.3285  -0.3359  -0.0564   0.5874   3.0144
     3.1084   3.5117   4.8080   5.0493   5.7891   6.0526   7.5156   8.2508
     8.5638   9.2540   9.4918   9.5176  10.0718  10.3489  10.6874  10.8421
    11.2267  11.4267  11.8665  12.0931  12.2523  12.4429  12.5660  13.0064
    13.0920  13.2263  13.4905  13.6144  13.9566  14.2036  14.2951  14.6481
    14.8173  15.1544  15.3942  15.5659  15.6441  15.8360  16.0390  16.3104
    16.4673  16.5494  16.6248  16.9860  17.4092  17.4919  17.5432  17.8485
    17.9858  18.2252  18.4587  18.4881  18.6874  18.9447  19.1102  19.4098
    19.5038  19.7312  19.8380  20.1950

     occupation numbers 
     1.0000   1.0000   1.0000   1.0000   1.0000   1.0000   1.0000   1.0000
     1.0000   1.0000   1.0000   1.0000   1.0000   1.0000   1.0000   1.0000
     1.0000   1.0000   1.0000   1.0000   1.0000   1.0000   1.0000   1.0000
     1.0000   1.0000   1.0000   1.0000   1.0000   1.0000   1.0000   1.0000
     1.0000   1.0000   1.0000   1.0000   1.0000   1.0000   1.0000   0.0000
     0.0000   0.0000   0.0000   0.0000   0.0000   0.0000   0.0000   0.0000
     0.0000   0.0000   0.0000   0.0000   0.0000   0.0000   0.0000   0.0000
     0.0000   0.0000   0.0000   0.0000   0.0000   0.0000   0.0000   0.0000
     0.0000   0.0000   0.0000   0.0000   0.0000   0.0000   0.0000   0.0000
     0.0000   0.0000   0.0000   0.0000   0.0000   0.0000   0.0000   0.0000
     0.0000   0.0000   0.0000   0.0000   0.0000   0.0000   0.0000   0.0000
     0.0000   0.0000   0.0000   0.0000   0.0000   0.0000   0.0000   0.0000
     0.0000   0.0000   0.0000   0.0000

     highest occupied, lowest unoccupied level (ev):     0.9941    2.2775

!    total energy              =    -805.34003292 Ry
     estimated scf accuracy    <       0.00000005 Ry

     convergence has been achieved in   4 iterations

     Using ACE for calculation of exact exchange
     ACE projected onto   100 (nbndproj) and applied to   100 (nbnd) bands

!!   total energy              =    -805.34003299 Ry
     Harris-Foulkes estimate   =    -805.34003234 Ry
     est. exchange err (dexx)  =       0.00000007 Ry
     - averaged Fock potential =      22.97935314 Ry
     + Fock energy (ACE)       =     -11.48968565 Ry

     EXX self-consistency reached

     Writing all to output data dir tmp/Sb2Te3-uatsx-c4-1.0.save/ :
     XML data file, charge density, pseudopotentials, collected wavefunctions

     init_run     :      3.00s CPU      3.07s WALL (       1 calls)
     electrons    :    809.89s CPU    821.11s WALL (       6 calls)

     Called by init_run:
     aceinit0     :      0.00s CPU      0.00s WALL (       1 calls)
     wfcinit      :      2.76s CPU      2.83s WALL (       1 calls)
     wfcinit:wfcr :      2.69s CPU      2.75s WALL (      43 calls)
     potinit      :      0.01s CPU      0.01s WALL (       1 calls)
     hinit0       :      0.16s CPU      0.16s WALL (       1 calls)

     Called by electrons:
     c_bands      :    765.32s CPU    774.85s WALL (      42 calls)
     sum_band     :     43.76s CPU     44.73s WALL (      42 calls)
     v_of_rho     :      0.41s CPU      0.41s WALL (      43 calls)
     v_h          :      0.03s CPU      0.03s WALL (      43 calls)
     v_xc         :      0.38s CPU      0.38s WALL (      43 calls)
     mix_rho      :      0.05s CPU      0.05s WALL (      42 calls)
     energy_londo :      0.06s CPU      0.06s WALL (       6 calls)

     Called by c_bands:
     init_us_2    :      0.96s CPU      1.01s WALL (    3655 calls)
     cegterg      :    692.14s CPU    700.70s WALL (    1822 calls)

     Called by sum_band:
     sum_band:wei :      0.00s CPU      0.00s WALL (      42 calls)
     sum_band:loo :     43.69s CPU     44.66s WALL (      42 calls)
     sum_band:buf :      0.53s CPU      0.58s WALL (    1806 calls)
     sum_band:ini :      0.47s CPU      0.51s WALL (    1806 calls)

     Called by *egterg:
     cdiaghg      :    265.74s CPU    267.16s WALL (   17446 calls)
     cegterg:over :     37.48s CPU     37.86s WALL (   15898 calls)
     cegterg:upda :      9.72s CPU      9.85s WALL (   15898 calls)
     cegterg:last :     13.22s CPU     13.33s WALL (    5077 calls)
     h_psi        :    337.01s CPU    343.36s WALL (   17763 calls)
     g_psi        :      1.43s CPU      1.44s WALL (   15898 calls)

     Called by h_psi:
     h_psi:calbec :     18.31s CPU     18.56s WALL (   17763 calls)
     vloc_psi     :    292.35s CPU    298.17s WALL (   17763 calls)
     add_vuspsi   :      4.82s CPU      4.90s WALL (   17763 calls)

     General routines
     calbec       :     37.93s CPU     38.41s WALL (   32084 calls)
     fft          :      0.52s CPU      0.52s WALL (     423 calls)
     ffts         :      0.03s CPU      0.03s WALL (      42 calls)
     fftw         :    321.22s CPU    327.62s WALL ( 1391920 calls)
     fftc         :   2768.20s CPU   2798.23s WALL ( 5160000 calls)
     fftcw        :     27.16s CPU     27.53s WALL (   77400 calls)

     Parallel routines

     EXX routines
     exx_grid     :      0.00s CPU      0.00s WALL (       1 calls)
     exxinit      :    145.18s CPU    146.77s WALL (       6 calls)
     vexx         :   3115.92s CPU   3149.89s WALL (     258 calls)
     matcalc      :     19.77s CPU     19.98s WALL (   14321 calls)
     aceupdate    :      0.25s CPU      0.26s WALL (     258 calls)
     vexxace      :     24.14s CPU     24.40s WALL (   13590 calls)
     aceinit      :   3116.98s CPU   3150.97s WALL (     258 calls)

     PWSCF        :      1h11m CPU      1h12m WALL


   This run was terminated on:   2:15:37  20May2025            

=------------------------------------------------------------------------------=
   JOB DONE.
=------------------------------------------------------------------------------=
