
     Program PWSCF v.7.4.1 starts on 13Aug2025 at 16: 5:20 

     This program is part of the open-source Quantum ESPRESSO suite
     for quantum simulation of materials; please cite
         "P. Giannozzi et al., J. Phys.:Condens. Matter 21 395502 (2009);
         "P. Giannozzi et al., J. Phys.:Condens. Matter 29 465901 (2017);
         "P. Giannozzi et al., J. Chem. Phys. 152 154105 (2020);
          URL http://www.quantum-espresso.org", 
     in publications or presentations arising from this work. More details at
     http://www.quantum-espresso.org/quote

     Parallel version (MPI & OpenMP), running on      48 processor cores
     Number of MPI processes:                24
     Threads/MPI process:                     2

     MPI processes distributed on     2 nodes
     109265 MiB available memory on the printing compute node when the environment starts

     Waiting for input...
     Reading input from standard input

     Current dimensions of program PWSCF are:
     Max number of different atomic species (ntypx) = 10
     Max number of k-points (npk) =  40000
     Max angular momentum in pseudopotentials (lmaxx) =  4

     IMPORTANT: XC functional enforced from input :
     Exchange-correlation= PBE
                           (   1   4   3   4   0   0   0)
     Any further DFT definition will be discarded
     Please, verify this is what you really want

     Message from routine setup:
     no reason to have ecutrho>4*ecutwfc

     R & G space division:  proc/nbgrp/npool/nimage =      24
     Subspace diagonalization in iterative solution of the eigenvalue problem:
     a serial algorithm will be used


     Parallelization info
     --------------------
     sticks:   dense  smooth     PW     G-vecs:    dense   smooth      PW
     Min          97      39     12                19481     4929     824
     Max          98      40     13                19500     4946     829
     Sum        2349     941    291               467835   118417   19817

     Using Slab Decomposition



     bravais-lattice index     =            0
     lattice parameter (alat)  =       8.3900  a.u.
     unit-cell volume          =    2478.7943 (a.u.)^3
     number of atoms/cell      =            5
     number of atomic types    =            2
     number of electrons       =        78.00
     number of Kohn-Sham states=           39
     kinetic-energy cutoff     =      50.0000  Ry
     charge density cutoff     =     500.0000  Ry
     scf convergence threshold =      1.0E-07
     mixing beta               =       0.7000
     number of iterations used =            8  plain     mixing
     Exchange-correlation= PBE
                           (   1   4   3   4   0   0   0)

     celldm(1)=   8.390002  celldm(2)=   0.000000  celldm(3)=   0.000000
     celldm(4)=   0.000000  celldm(5)=   0.000000  celldm(6)=   0.000000

     crystal axes: (cart. coord. in units of alat)
               a(1) = (   1.000000   0.000000   0.000000 )  
               a(2) = (  -0.485437   0.840793   0.000000 )  
               a(3) = (   0.000000   0.000000   4.991890 )  

     reciprocal axes: (cart. coord. in units 2 pi/alat)
               b(1) = (  1.000000  0.577356 -0.000000 )  
               b(2) = (  0.000000  1.189353  0.000000 )  
               b(3) = (  0.000000 -0.000000  0.200325 )  


     PseudoPot. # 1 for Sb read from file:
     /zfs-home/202401017n1/pseudos/Sb_ONCV_PBE-1.2.upf
     MD5 check sum: 0417cd6c0fe8ce4611e2b23135f1abd9
     Pseudo is Norm-conserving, Zval = 15.0
     Generated using ONCVPSP code by D. R. Hamann
     Using radial grid of  602 points,  6 beta functions with: 
                l(1) =   0
                l(2) =   0
                l(3) =   1
                l(4) =   1
                l(5) =   2
                l(6) =   2

     PseudoPot. # 2 for Te read from file:
     /zfs-home/202401017n1/pseudos/Te_ONCV_PBE-1.2.upf
     MD5 check sum: dd4de4dac1e38587f63aaf3700bb29d3
     Pseudo is Norm-conserving, Zval = 16.0
     Generated using ONCVPSP code by D. R. Hamann
     Using radial grid of  602 points,  6 beta functions with: 
                l(1) =   0
                l(2) =   0
                l(3) =   1
                l(4) =   1
                l(5) =   2
                l(6) =   2

     atomic species   valence    mass     pseudopotential
     Sb               15.00   121.76000     Sb( 1.00)
     Te               16.00   127.60000     Te( 1.00)

     No symmetry found


                                    s                        frac. trans.

      isym =  1     identity                                     

 cryst.   s( 1) = (     1          0          0      )
                  (     0          1          0      )
                  (     0          0          1      )

 cart.    s( 1) = (  1.0000000  0.0000000  0.0000000 )
                  (  0.0000000  1.0000000  0.0000000 )
                  (  0.0000000  0.0000000  1.0000000 )


   Cartesian axes

     site n.     atom                  positions (alat units)
         1        Sb     tau(   1) = (   0.5867812   0.4172984   2.9417443  )
         2        Te     tau(   2) = (   0.5754457   0.3979752   1.6726131  )
         3        Sb     tau(   3) = (   0.0727921   0.1220272   2.0501240  )
         4        Te     tau(   4) = (   0.0840698   0.1416820   3.3192296  )
         5        Te     tau(   5) = (   0.0870265   0.6902229   2.4959189  )

   Crystallographic axes

     site n.     atom                  positions (cryst. coord.)
         1        Sb     tau(   1) = (  0.8277109  0.4963151  0.5893047  )
         2        Te     tau(   2) = (  0.8052190  0.4733330  0.3350661  )
         3        Sb     tau(   3) = (  0.1432452  0.1451335  0.4106909  )
         4        Te     tau(   4) = (  0.1658708  0.1685099  0.6649244  )
         5        Te     tau(   5) = (  0.4855307  0.8209187  0.4999948  )

     number of k points=   221
                       cart. coord. in units 2pi/alat
        k(    1) = (   0.0000000   0.0000000   0.0000000), wk =   0.0045351
        k(    2) = (   0.0000000   0.0566359   0.0000000), wk =   0.0090703
        k(    3) = (   0.0000000   0.1132717   0.0000000), wk =   0.0090703
        k(    4) = (   0.0000000   0.1699076   0.0000000), wk =   0.0090703
        k(    5) = (   0.0000000   0.2265434   0.0000000), wk =   0.0090703
        k(    6) = (   0.0000000   0.2831793   0.0000000), wk =   0.0090703
        k(    7) = (   0.0000000   0.3398152   0.0000000), wk =   0.0090703
        k(    8) = (   0.0000000   0.3964510   0.0000000), wk =   0.0090703
        k(    9) = (   0.0000000   0.4530869   0.0000000), wk =   0.0090703
        k(   10) = (   0.0000000   0.5097227   0.0000000), wk =   0.0090703
        k(   11) = (   0.0000000   0.5663586   0.0000000), wk =   0.0090703
        k(   12) = (   0.0476190   0.0274931   0.0000000), wk =   0.0090703
        k(   13) = (   0.0476190   0.0841290   0.0000000), wk =   0.0090703
        k(   14) = (   0.0476190   0.1407649   0.0000000), wk =   0.0090703
        k(   15) = (   0.0476190   0.1974007   0.0000000), wk =   0.0090703
        k(   16) = (   0.0476190   0.2540366   0.0000000), wk =   0.0090703
        k(   17) = (   0.0476190   0.3106724   0.0000000), wk =   0.0090703
        k(   18) = (   0.0476190   0.3673083   0.0000000), wk =   0.0090703
        k(   19) = (   0.0476190   0.4239442   0.0000000), wk =   0.0090703
        k(   20) = (   0.0476190   0.4805800   0.0000000), wk =   0.0090703
        k(   21) = (   0.0476190   0.5372159   0.0000000), wk =   0.0090703
        k(   22) = (   0.0476190   0.5938517   0.0000000), wk =   0.0090703
        k(   23) = (   0.0476190  -0.5388655   0.0000000), wk =   0.0090703
        k(   24) = (   0.0476190  -0.4822296   0.0000000), wk =   0.0090703
        k(   25) = (   0.0476190  -0.4255937   0.0000000), wk =   0.0090703
        k(   26) = (   0.0476190  -0.3689579   0.0000000), wk =   0.0090703
        k(   27) = (   0.0476190  -0.3123220   0.0000000), wk =   0.0090703
        k(   28) = (   0.0476190  -0.2556862   0.0000000), wk =   0.0090703
        k(   29) = (   0.0476190  -0.1990503   0.0000000), wk =   0.0090703
        k(   30) = (   0.0476190  -0.1424144   0.0000000), wk =   0.0090703
        k(   31) = (   0.0476190  -0.0857786   0.0000000), wk =   0.0090703
        k(   32) = (   0.0476190  -0.0291427   0.0000000), wk =   0.0090703
        k(   33) = (   0.0952381   0.0549863   0.0000000), wk =   0.0090703
        k(   34) = (   0.0952381   0.1116221   0.0000000), wk =   0.0090703
        k(   35) = (   0.0952381   0.1682580   0.0000000), wk =   0.0090703
        k(   36) = (   0.0952381   0.2248939   0.0000000), wk =   0.0090703
        k(   37) = (   0.0952381   0.2815297   0.0000000), wk =   0.0090703
        k(   38) = (   0.0952381   0.3381656   0.0000000), wk =   0.0090703
        k(   39) = (   0.0952381   0.3948014   0.0000000), wk =   0.0090703
        k(   40) = (   0.0952381   0.4514373   0.0000000), wk =   0.0090703
        k(   41) = (   0.0952381   0.5080732   0.0000000), wk =   0.0090703
        k(   42) = (   0.0952381   0.5647090   0.0000000), wk =   0.0090703
        k(   43) = (   0.0952381   0.6213449   0.0000000), wk =   0.0090703
        k(   44) = (   0.0952381  -0.5113723   0.0000000), wk =   0.0090703
        k(   45) = (   0.0952381  -0.4547365   0.0000000), wk =   0.0090703
        k(   46) = (   0.0952381  -0.3981006   0.0000000), wk =   0.0090703
        k(   47) = (   0.0952381  -0.3414647   0.0000000), wk =   0.0090703
        k(   48) = (   0.0952381  -0.2848289   0.0000000), wk =   0.0090703
        k(   49) = (   0.0952381  -0.2281930   0.0000000), wk =   0.0090703
        k(   50) = (   0.0952381  -0.1715572   0.0000000), wk =   0.0090703
        k(   51) = (   0.0952381  -0.1149213   0.0000000), wk =   0.0090703
        k(   52) = (   0.0952381  -0.0582854   0.0000000), wk =   0.0090703
        k(   53) = (   0.0952381  -0.0016496   0.0000000), wk =   0.0090703
        k(   54) = (   0.1428571   0.0824794   0.0000000), wk =   0.0090703
        k(   55) = (   0.1428571   0.1391153   0.0000000), wk =   0.0090703
        k(   56) = (   0.1428571   0.1957511   0.0000000), wk =   0.0090703
        k(   57) = (   0.1428571   0.2523870   0.0000000), wk =   0.0090703
        k(   58) = (   0.1428571   0.3090228   0.0000000), wk =   0.0090703
        k(   59) = (   0.1428571   0.3656587   0.0000000), wk =   0.0090703
        k(   60) = (   0.1428571   0.4222946   0.0000000), wk =   0.0090703
        k(   61) = (   0.1428571   0.4789304   0.0000000), wk =   0.0090703
        k(   62) = (   0.1428571   0.5355663   0.0000000), wk =   0.0090703
        k(   63) = (   0.1428571   0.5922021   0.0000000), wk =   0.0090703
        k(   64) = (   0.1428571   0.6488380   0.0000000), wk =   0.0090703
        k(   65) = (   0.1428571  -0.4838792   0.0000000), wk =   0.0090703
        k(   66) = (   0.1428571  -0.4272433   0.0000000), wk =   0.0090703
        k(   67) = (   0.1428571  -0.3706075   0.0000000), wk =   0.0090703
        k(   68) = (   0.1428571  -0.3139716   0.0000000), wk =   0.0090703
        k(   69) = (   0.1428571  -0.2573358   0.0000000), wk =   0.0090703
        k(   70) = (   0.1428571  -0.2006999   0.0000000), wk =   0.0090703
        k(   71) = (   0.1428571  -0.1440640   0.0000000), wk =   0.0090703
        k(   72) = (   0.1428571  -0.0874282   0.0000000), wk =   0.0090703
        k(   73) = (   0.1428571  -0.0307923   0.0000000), wk =   0.0090703
        k(   74) = (   0.1428571   0.0258435   0.0000000), wk =   0.0090703
        k(   75) = (   0.1904762   0.1099725   0.0000000), wk =   0.0090703
        k(   76) = (   0.1904762   0.1666084   0.0000000), wk =   0.0090703
        k(   77) = (   0.1904762   0.2232443   0.0000000), wk =   0.0090703
        k(   78) = (   0.1904762   0.2798801   0.0000000), wk =   0.0090703
        k(   79) = (   0.1904762   0.3365160   0.0000000), wk =   0.0090703
        k(   80) = (   0.1904762   0.3931518   0.0000000), wk =   0.0090703
        k(   81) = (   0.1904762   0.4497877   0.0000000), wk =   0.0090703
        k(   82) = (   0.1904762   0.5064236   0.0000000), wk =   0.0090703
        k(   83) = (   0.1904762   0.5630594   0.0000000), wk =   0.0090703
        k(   84) = (   0.1904762   0.6196953   0.0000000), wk =   0.0090703
        k(   85) = (   0.1904762   0.6763311   0.0000000), wk =   0.0090703
        k(   86) = (   0.1904762  -0.4563861   0.0000000), wk =   0.0090703
        k(   87) = (   0.1904762  -0.3997502   0.0000000), wk =   0.0090703
        k(   88) = (   0.1904762  -0.3431143   0.0000000), wk =   0.0090703
        k(   89) = (   0.1904762  -0.2864785   0.0000000), wk =   0.0090703
        k(   90) = (   0.1904762  -0.2298426   0.0000000), wk =   0.0090703
        k(   91) = (   0.1904762  -0.1732068   0.0000000), wk =   0.0090703
        k(   92) = (   0.1904762  -0.1165709   0.0000000), wk =   0.0090703
        k(   93) = (   0.1904762  -0.0599350   0.0000000), wk =   0.0090703
        k(   94) = (   0.1904762  -0.0032992   0.0000000), wk =   0.0090703
        k(   95) = (   0.1904762   0.0533367   0.0000000), wk =   0.0090703
        k(   96) = (   0.2380952   0.1374657   0.0000000), wk =   0.0090703
        k(   97) = (   0.2380952   0.1941015   0.0000000), wk =   0.0090703
        k(   98) = (   0.2380952   0.2507374   0.0000000), wk =   0.0090703
        k(   99) = (   0.2380952   0.3073733   0.0000000), wk =   0.0090703
        k(  100) = (   0.2380952   0.3640091   0.0000000), wk =   0.0090703
        k(  101) = (   0.2380952   0.4206450   0.0000000), wk =   0.0090703
        k(  102) = (   0.2380952   0.4772808   0.0000000), wk =   0.0090703
        k(  103) = (   0.2380952   0.5339167   0.0000000), wk =   0.0090703
        k(  104) = (   0.2380952   0.5905526   0.0000000), wk =   0.0090703
        k(  105) = (   0.2380952   0.6471884   0.0000000), wk =   0.0090703
        k(  106) = (   0.2380952   0.7038243   0.0000000), wk =   0.0090703
        k(  107) = (   0.2380952  -0.4288929   0.0000000), wk =   0.0090703
        k(  108) = (   0.2380952  -0.3722571   0.0000000), wk =   0.0090703
        k(  109) = (   0.2380952  -0.3156212   0.0000000), wk =   0.0090703
        k(  110) = (   0.2380952  -0.2589853   0.0000000), wk =   0.0090703
        k(  111) = (   0.2380952  -0.2023495   0.0000000), wk =   0.0090703
        k(  112) = (   0.2380952  -0.1457136   0.0000000), wk =   0.0090703
        k(  113) = (   0.2380952  -0.0890778   0.0000000), wk =   0.0090703
        k(  114) = (   0.2380952  -0.0324419   0.0000000), wk =   0.0090703
        k(  115) = (   0.2380952   0.0241940   0.0000000), wk =   0.0090703
        k(  116) = (   0.2380952   0.0808298   0.0000000), wk =   0.0090703
        k(  117) = (   0.2857143   0.1649588   0.0000000), wk =   0.0090703
        k(  118) = (   0.2857143   0.2215947   0.0000000), wk =   0.0090703
        k(  119) = (   0.2857143   0.2782305   0.0000000), wk =   0.0090703
        k(  120) = (   0.2857143   0.3348664   0.0000000), wk =   0.0090703
        k(  121) = (   0.2857143   0.3915023   0.0000000), wk =   0.0090703
        k(  122) = (   0.2857143   0.4481381   0.0000000), wk =   0.0090703
        k(  123) = (   0.2857143   0.5047740   0.0000000), wk =   0.0090703
        k(  124) = (   0.2857143   0.5614098   0.0000000), wk =   0.0090703
        k(  125) = (   0.2857143   0.6180457   0.0000000), wk =   0.0090703
        k(  126) = (   0.2857143   0.6746816   0.0000000), wk =   0.0090703
        k(  127) = (   0.2857143   0.7313174   0.0000000), wk =   0.0090703
        k(  128) = (   0.2857143  -0.4013998   0.0000000), wk =   0.0090703
        k(  129) = (   0.2857143  -0.3447639   0.0000000), wk =   0.0090703
        k(  130) = (   0.2857143  -0.2881281   0.0000000), wk =   0.0090703
        k(  131) = (   0.2857143  -0.2314922   0.0000000), wk =   0.0090703
        k(  132) = (   0.2857143  -0.1748563   0.0000000), wk =   0.0090703
        k(  133) = (   0.2857143  -0.1182205   0.0000000), wk =   0.0090703
        k(  134) = (   0.2857143  -0.0615846   0.0000000), wk =   0.0090703
        k(  135) = (   0.2857143  -0.0049488   0.0000000), wk =   0.0090703
        k(  136) = (   0.2857143   0.0516871   0.0000000), wk =   0.0090703
        k(  137) = (   0.2857143   0.1083230   0.0000000), wk =   0.0090703
        k(  138) = (   0.3333333   0.1924520   0.0000000), wk =   0.0090703
        k(  139) = (   0.3333333   0.2490878   0.0000000), wk =   0.0090703
        k(  140) = (   0.3333333   0.3057237   0.0000000), wk =   0.0090703
        k(  141) = (   0.3333333   0.3623595   0.0000000), wk =   0.0090703
        k(  142) = (   0.3333333   0.4189954   0.0000000), wk =   0.0090703
        k(  143) = (   0.3333333   0.4756313   0.0000000), wk =   0.0090703
        k(  144) = (   0.3333333   0.5322671   0.0000000), wk =   0.0090703
        k(  145) = (   0.3333333   0.5889030   0.0000000), wk =   0.0090703
        k(  146) = (   0.3333333   0.6455388   0.0000000), wk =   0.0090703
        k(  147) = (   0.3333333   0.7021747   0.0000000), wk =   0.0090703
        k(  148) = (   0.3333333   0.7588106   0.0000000), wk =   0.0090703
        k(  149) = (   0.3333333  -0.3739066   0.0000000), wk =   0.0090703
        k(  150) = (   0.3333333  -0.3172708   0.0000000), wk =   0.0090703
        k(  151) = (   0.3333333  -0.2606349   0.0000000), wk =   0.0090703
        k(  152) = (   0.3333333  -0.2039991   0.0000000), wk =   0.0090703
        k(  153) = (   0.3333333  -0.1473632   0.0000000), wk =   0.0090703
        k(  154) = (   0.3333333  -0.0907273   0.0000000), wk =   0.0090703
        k(  155) = (   0.3333333  -0.0340915   0.0000000), wk =   0.0090703
        k(  156) = (   0.3333333   0.0225444   0.0000000), wk =   0.0090703
        k(  157) = (   0.3333333   0.0791802   0.0000000), wk =   0.0090703
        k(  158) = (   0.3333333   0.1358161   0.0000000), wk =   0.0090703
        k(  159) = (   0.3809524   0.2199451   0.0000000), wk =   0.0090703
        k(  160) = (   0.3809524   0.2765809   0.0000000), wk =   0.0090703
        k(  161) = (   0.3809524   0.3332168   0.0000000), wk =   0.0090703
        k(  162) = (   0.3809524   0.3898527   0.0000000), wk =   0.0090703
        k(  163) = (   0.3809524   0.4464885   0.0000000), wk =   0.0090703
        k(  164) = (   0.3809524   0.5031244   0.0000000), wk =   0.0090703
        k(  165) = (   0.3809524   0.5597602   0.0000000), wk =   0.0090703
        k(  166) = (   0.3809524   0.6163961   0.0000000), wk =   0.0090703
        k(  167) = (   0.3809524   0.6730320   0.0000000), wk =   0.0090703
        k(  168) = (   0.3809524   0.7296678   0.0000000), wk =   0.0090703
        k(  169) = (   0.3809524   0.7863037   0.0000000), wk =   0.0090703
        k(  170) = (   0.3809524  -0.3464135   0.0000000), wk =   0.0090703
        k(  171) = (   0.3809524  -0.2897777   0.0000000), wk =   0.0090703
        k(  172) = (   0.3809524  -0.2331418   0.0000000), wk =   0.0090703
        k(  173) = (   0.3809524  -0.1765059   0.0000000), wk =   0.0090703
        k(  174) = (   0.3809524  -0.1198701   0.0000000), wk =   0.0090703
        k(  175) = (   0.3809524  -0.0632342   0.0000000), wk =   0.0090703
        k(  176) = (   0.3809524  -0.0065984   0.0000000), wk =   0.0090703
        k(  177) = (   0.3809524   0.0500375   0.0000000), wk =   0.0090703
        k(  178) = (   0.3809524   0.1066734   0.0000000), wk =   0.0090703
        k(  179) = (   0.3809524   0.1633092   0.0000000), wk =   0.0090703
        k(  180) = (   0.4285714   0.2474382   0.0000000), wk =   0.0090703
        k(  181) = (   0.4285714   0.3040741   0.0000000), wk =   0.0090703
        k(  182) = (   0.4285714   0.3607099   0.0000000), wk =   0.0090703
        k(  183) = (   0.4285714   0.4173458   0.0000000), wk =   0.0090703
        k(  184) = (   0.4285714   0.4739817   0.0000000), wk =   0.0090703
        k(  185) = (   0.4285714   0.5306175   0.0000000), wk =   0.0090703
        k(  186) = (   0.4285714   0.5872534   0.0000000), wk =   0.0090703
        k(  187) = (   0.4285714   0.6438892   0.0000000), wk =   0.0090703
        k(  188) = (   0.4285714   0.7005251   0.0000000), wk =   0.0090703
        k(  189) = (   0.4285714   0.7571610   0.0000000), wk =   0.0090703
        k(  190) = (   0.4285714   0.8137968   0.0000000), wk =   0.0090703
        k(  191) = (   0.4285714  -0.3189204   0.0000000), wk =   0.0090703
        k(  192) = (   0.4285714  -0.2622845   0.0000000), wk =   0.0090703
        k(  193) = (   0.4285714  -0.2056487   0.0000000), wk =   0.0090703
        k(  194) = (   0.4285714  -0.1490128   0.0000000), wk =   0.0090703
        k(  195) = (   0.4285714  -0.0923769   0.0000000), wk =   0.0090703
        k(  196) = (   0.4285714  -0.0357411   0.0000000), wk =   0.0090703
        k(  197) = (   0.4285714   0.0208948   0.0000000), wk =   0.0090703
        k(  198) = (   0.4285714   0.0775306   0.0000000), wk =   0.0090703
        k(  199) = (   0.4285714   0.1341665   0.0000000), wk =   0.0090703
        k(  200) = (   0.4285714   0.1908024   0.0000000), wk =   0.0090703
        k(  201) = (   0.4761905   0.2749314   0.0000000), wk =   0.0090703
        k(  202) = (   0.4761905   0.3315672   0.0000000), wk =   0.0090703
        k(  203) = (   0.4761905   0.3882031   0.0000000), wk =   0.0090703
        k(  204) = (   0.4761905   0.4448389   0.0000000), wk =   0.0090703
        k(  205) = (   0.4761905   0.5014748   0.0000000), wk =   0.0090703
        k(  206) = (   0.4761905   0.5581107   0.0000000), wk =   0.0090703
        k(  207) = (   0.4761905   0.6147465   0.0000000), wk =   0.0090703
        k(  208) = (   0.4761905   0.6713824   0.0000000), wk =   0.0090703
        k(  209) = (   0.4761905   0.7280182   0.0000000), wk =   0.0090703
        k(  210) = (   0.4761905   0.7846541   0.0000000), wk =   0.0090703
        k(  211) = (   0.4761905   0.8412900   0.0000000), wk =   0.0090703
        k(  212) = (   0.4761905  -0.2914272   0.0000000), wk =   0.0090703
        k(  213) = (   0.4761905  -0.2347914   0.0000000), wk =   0.0090703
        k(  214) = (   0.4761905  -0.1781555   0.0000000), wk =   0.0090703
        k(  215) = (   0.4761905  -0.1215197   0.0000000), wk =   0.0090703
        k(  216) = (   0.4761905  -0.0648838   0.0000000), wk =   0.0090703
        k(  217) = (   0.4761905  -0.0082479   0.0000000), wk =   0.0090703
        k(  218) = (   0.4761905   0.0483879   0.0000000), wk =   0.0090703
        k(  219) = (   0.4761905   0.1050238   0.0000000), wk =   0.0090703
        k(  220) = (   0.4761905   0.1616596   0.0000000), wk =   0.0090703
        k(  221) = (   0.4761905   0.2182955   0.0000000), wk =   0.0090703

                       cryst. coord.
        k(    1) = (   0.0000000   0.0000000   0.0000000), wk =   0.0045351
        k(    2) = (   0.0000000   0.0476190   0.0000000), wk =   0.0090703
        k(    3) = (   0.0000000   0.0952381   0.0000000), wk =   0.0090703
        k(    4) = (   0.0000000   0.1428571   0.0000000), wk =   0.0090703
        k(    5) = (   0.0000000   0.1904762   0.0000000), wk =   0.0090703
        k(    6) = (   0.0000000   0.2380952   0.0000000), wk =   0.0090703
        k(    7) = (   0.0000000   0.2857143   0.0000000), wk =   0.0090703
        k(    8) = (   0.0000000   0.3333333   0.0000000), wk =   0.0090703
        k(    9) = (   0.0000000   0.3809524   0.0000000), wk =   0.0090703
        k(   10) = (   0.0000000   0.4285714   0.0000000), wk =   0.0090703
        k(   11) = (   0.0000000   0.4761905   0.0000000), wk =   0.0090703
        k(   12) = (   0.0476190   0.0000000   0.0000000), wk =   0.0090703
        k(   13) = (   0.0476190   0.0476190   0.0000000), wk =   0.0090703
        k(   14) = (   0.0476190   0.0952381   0.0000000), wk =   0.0090703
        k(   15) = (   0.0476190   0.1428571   0.0000000), wk =   0.0090703
        k(   16) = (   0.0476190   0.1904762   0.0000000), wk =   0.0090703
        k(   17) = (   0.0476190   0.2380952   0.0000000), wk =   0.0090703
        k(   18) = (   0.0476190   0.2857143   0.0000000), wk =   0.0090703
        k(   19) = (   0.0476190   0.3333333   0.0000000), wk =   0.0090703
        k(   20) = (   0.0476190   0.3809524   0.0000000), wk =   0.0090703
        k(   21) = (   0.0476190   0.4285714   0.0000000), wk =   0.0090703
        k(   22) = (   0.0476190   0.4761905   0.0000000), wk =   0.0090703
        k(   23) = (   0.0476190  -0.4761905   0.0000000), wk =   0.0090703
        k(   24) = (   0.0476190  -0.4285714   0.0000000), wk =   0.0090703
        k(   25) = (   0.0476190  -0.3809524   0.0000000), wk =   0.0090703
        k(   26) = (   0.0476190  -0.3333333   0.0000000), wk =   0.0090703
        k(   27) = (   0.0476190  -0.2857143   0.0000000), wk =   0.0090703
        k(   28) = (   0.0476190  -0.2380952   0.0000000), wk =   0.0090703
        k(   29) = (   0.0476190  -0.1904762   0.0000000), wk =   0.0090703
        k(   30) = (   0.0476190  -0.1428571   0.0000000), wk =   0.0090703
        k(   31) = (   0.0476190  -0.0952381   0.0000000), wk =   0.0090703
        k(   32) = (   0.0476190  -0.0476190   0.0000000), wk =   0.0090703
        k(   33) = (   0.0952381   0.0000000   0.0000000), wk =   0.0090703
        k(   34) = (   0.0952381   0.0476190   0.0000000), wk =   0.0090703
        k(   35) = (   0.0952381   0.0952381   0.0000000), wk =   0.0090703
        k(   36) = (   0.0952381   0.1428571   0.0000000), wk =   0.0090703
        k(   37) = (   0.0952381   0.1904762   0.0000000), wk =   0.0090703
        k(   38) = (   0.0952381   0.2380952   0.0000000), wk =   0.0090703
        k(   39) = (   0.0952381   0.2857143   0.0000000), wk =   0.0090703
        k(   40) = (   0.0952381   0.3333333   0.0000000), wk =   0.0090703
        k(   41) = (   0.0952381   0.3809524   0.0000000), wk =   0.0090703
        k(   42) = (   0.0952381   0.4285714   0.0000000), wk =   0.0090703
        k(   43) = (   0.0952381   0.4761905   0.0000000), wk =   0.0090703
        k(   44) = (   0.0952381  -0.4761905   0.0000000), wk =   0.0090703
        k(   45) = (   0.0952381  -0.4285714   0.0000000), wk =   0.0090703
        k(   46) = (   0.0952381  -0.3809524   0.0000000), wk =   0.0090703
        k(   47) = (   0.0952381  -0.3333333   0.0000000), wk =   0.0090703
        k(   48) = (   0.0952381  -0.2857143   0.0000000), wk =   0.0090703
        k(   49) = (   0.0952381  -0.2380952   0.0000000), wk =   0.0090703
        k(   50) = (   0.0952381  -0.1904762   0.0000000), wk =   0.0090703
        k(   51) = (   0.0952381  -0.1428571   0.0000000), wk =   0.0090703
        k(   52) = (   0.0952381  -0.0952381   0.0000000), wk =   0.0090703
        k(   53) = (   0.0952381  -0.0476190   0.0000000), wk =   0.0090703
        k(   54) = (   0.1428571  -0.0000000   0.0000000), wk =   0.0090703
        k(   55) = (   0.1428571   0.0476190   0.0000000), wk =   0.0090703
        k(   56) = (   0.1428571   0.0952381   0.0000000), wk =   0.0090703
        k(   57) = (   0.1428571   0.1428571   0.0000000), wk =   0.0090703
        k(   58) = (   0.1428571   0.1904762   0.0000000), wk =   0.0090703
        k(   59) = (   0.1428571   0.2380952   0.0000000), wk =   0.0090703
        k(   60) = (   0.1428571   0.2857143   0.0000000), wk =   0.0090703
        k(   61) = (   0.1428571   0.3333333   0.0000000), wk =   0.0090703
        k(   62) = (   0.1428571   0.3809524   0.0000000), wk =   0.0090703
        k(   63) = (   0.1428571   0.4285714   0.0000000), wk =   0.0090703
        k(   64) = (   0.1428571   0.4761905   0.0000000), wk =   0.0090703
        k(   65) = (   0.1428571  -0.4761905   0.0000000), wk =   0.0090703
        k(   66) = (   0.1428571  -0.4285714   0.0000000), wk =   0.0090703
        k(   67) = (   0.1428571  -0.3809524   0.0000000), wk =   0.0090703
        k(   68) = (   0.1428571  -0.3333333   0.0000000), wk =   0.0090703
        k(   69) = (   0.1428571  -0.2857143   0.0000000), wk =   0.0090703
        k(   70) = (   0.1428571  -0.2380952   0.0000000), wk =   0.0090703
        k(   71) = (   0.1428571  -0.1904762   0.0000000), wk =   0.0090703
        k(   72) = (   0.1428571  -0.1428571   0.0000000), wk =   0.0090703
        k(   73) = (   0.1428571  -0.0952381   0.0000000), wk =   0.0090703
        k(   74) = (   0.1428571  -0.0476190   0.0000000), wk =   0.0090703
        k(   75) = (   0.1904762   0.0000000   0.0000000), wk =   0.0090703
        k(   76) = (   0.1904762   0.0476190   0.0000000), wk =   0.0090703
        k(   77) = (   0.1904762   0.0952381   0.0000000), wk =   0.0090703
        k(   78) = (   0.1904762   0.1428571   0.0000000), wk =   0.0090703
        k(   79) = (   0.1904762   0.1904762   0.0000000), wk =   0.0090703
        k(   80) = (   0.1904762   0.2380952   0.0000000), wk =   0.0090703
        k(   81) = (   0.1904762   0.2857143   0.0000000), wk =   0.0090703
        k(   82) = (   0.1904762   0.3333333   0.0000000), wk =   0.0090703
        k(   83) = (   0.1904762   0.3809524   0.0000000), wk =   0.0090703
        k(   84) = (   0.1904762   0.4285714   0.0000000), wk =   0.0090703
        k(   85) = (   0.1904762   0.4761905   0.0000000), wk =   0.0090703
        k(   86) = (   0.1904762  -0.4761905   0.0000000), wk =   0.0090703
        k(   87) = (   0.1904762  -0.4285714   0.0000000), wk =   0.0090703
        k(   88) = (   0.1904762  -0.3809524   0.0000000), wk =   0.0090703
        k(   89) = (   0.1904762  -0.3333333   0.0000000), wk =   0.0090703
        k(   90) = (   0.1904762  -0.2857143   0.0000000), wk =   0.0090703
        k(   91) = (   0.1904762  -0.2380952   0.0000000), wk =   0.0090703
        k(   92) = (   0.1904762  -0.1904762   0.0000000), wk =   0.0090703
        k(   93) = (   0.1904762  -0.1428571   0.0000000), wk =   0.0090703
        k(   94) = (   0.1904762  -0.0952381   0.0000000), wk =   0.0090703
        k(   95) = (   0.1904762  -0.0476190   0.0000000), wk =   0.0090703
        k(   96) = (   0.2380952   0.0000000   0.0000000), wk =   0.0090703
        k(   97) = (   0.2380952   0.0476190   0.0000000), wk =   0.0090703
        k(   98) = (   0.2380952   0.0952381   0.0000000), wk =   0.0090703
        k(   99) = (   0.2380952   0.1428571   0.0000000), wk =   0.0090703
        k(  100) = (   0.2380952   0.1904762   0.0000000), wk =   0.0090703
        k(  101) = (   0.2380952   0.2380952   0.0000000), wk =   0.0090703
        k(  102) = (   0.2380952   0.2857143   0.0000000), wk =   0.0090703
        k(  103) = (   0.2380952   0.3333333   0.0000000), wk =   0.0090703
        k(  104) = (   0.2380952   0.3809524   0.0000000), wk =   0.0090703
        k(  105) = (   0.2380952   0.4285714   0.0000000), wk =   0.0090703
        k(  106) = (   0.2380952   0.4761905   0.0000000), wk =   0.0090703
        k(  107) = (   0.2380952  -0.4761905   0.0000000), wk =   0.0090703
        k(  108) = (   0.2380952  -0.4285714   0.0000000), wk =   0.0090703
        k(  109) = (   0.2380952  -0.3809524   0.0000000), wk =   0.0090703
        k(  110) = (   0.2380952  -0.3333333   0.0000000), wk =   0.0090703
        k(  111) = (   0.2380952  -0.2857143   0.0000000), wk =   0.0090703
        k(  112) = (   0.2380952  -0.2380952   0.0000000), wk =   0.0090703
        k(  113) = (   0.2380952  -0.1904762   0.0000000), wk =   0.0090703
        k(  114) = (   0.2380952  -0.1428571   0.0000000), wk =   0.0090703
        k(  115) = (   0.2380952  -0.0952381   0.0000000), wk =   0.0090703
        k(  116) = (   0.2380952  -0.0476190   0.0000000), wk =   0.0090703
        k(  117) = (   0.2857143  -0.0000000   0.0000000), wk =   0.0090703
        k(  118) = (   0.2857143   0.0476190   0.0000000), wk =   0.0090703
        k(  119) = (   0.2857143   0.0952381   0.0000000), wk =   0.0090703
        k(  120) = (   0.2857143   0.1428571   0.0000000), wk =   0.0090703
        k(  121) = (   0.2857143   0.1904762   0.0000000), wk =   0.0090703
        k(  122) = (   0.2857143   0.2380952   0.0000000), wk =   0.0090703
        k(  123) = (   0.2857143   0.2857143   0.0000000), wk =   0.0090703
        k(  124) = (   0.2857143   0.3333333   0.0000000), wk =   0.0090703
        k(  125) = (   0.2857143   0.3809524   0.0000000), wk =   0.0090703
        k(  126) = (   0.2857143   0.4285714   0.0000000), wk =   0.0090703
        k(  127) = (   0.2857143   0.4761905   0.0000000), wk =   0.0090703
        k(  128) = (   0.2857143  -0.4761905   0.0000000), wk =   0.0090703
        k(  129) = (   0.2857143  -0.4285714   0.0000000), wk =   0.0090703
        k(  130) = (   0.2857143  -0.3809524   0.0000000), wk =   0.0090703
        k(  131) = (   0.2857143  -0.3333333   0.0000000), wk =   0.0090703
        k(  132) = (   0.2857143  -0.2857143   0.0000000), wk =   0.0090703
        k(  133) = (   0.2857143  -0.2380952   0.0000000), wk =   0.0090703
        k(  134) = (   0.2857143  -0.1904762   0.0000000), wk =   0.0090703
        k(  135) = (   0.2857143  -0.1428571   0.0000000), wk =   0.0090703
        k(  136) = (   0.2857143  -0.0952381   0.0000000), wk =   0.0090703
        k(  137) = (   0.2857143  -0.0476190   0.0000000), wk =   0.0090703
        k(  138) = (   0.3333333   0.0000000   0.0000000), wk =   0.0090703
        k(  139) = (   0.3333333   0.0476190   0.0000000), wk =   0.0090703
        k(  140) = (   0.3333333   0.0952381   0.0000000), wk =   0.0090703
        k(  141) = (   0.3333333   0.1428571   0.0000000), wk =   0.0090703
        k(  142) = (   0.3333333   0.1904762   0.0000000), wk =   0.0090703
        k(  143) = (   0.3333333   0.2380952   0.0000000), wk =   0.0090703
        k(  144) = (   0.3333333   0.2857143   0.0000000), wk =   0.0090703
        k(  145) = (   0.3333333   0.3333333   0.0000000), wk =   0.0090703
        k(  146) = (   0.3333333   0.3809524   0.0000000), wk =   0.0090703
        k(  147) = (   0.3333333   0.4285714   0.0000000), wk =   0.0090703
        k(  148) = (   0.3333333   0.4761905   0.0000000), wk =   0.0090703
        k(  149) = (   0.3333333  -0.4761905   0.0000000), wk =   0.0090703
        k(  150) = (   0.3333333  -0.4285714   0.0000000), wk =   0.0090703
        k(  151) = (   0.3333333  -0.3809524   0.0000000), wk =   0.0090703
        k(  152) = (   0.3333333  -0.3333333   0.0000000), wk =   0.0090703
        k(  153) = (   0.3333333  -0.2857143   0.0000000), wk =   0.0090703
        k(  154) = (   0.3333333  -0.2380952   0.0000000), wk =   0.0090703
        k(  155) = (   0.3333333  -0.1904762   0.0000000), wk =   0.0090703
        k(  156) = (   0.3333333  -0.1428571   0.0000000), wk =   0.0090703
        k(  157) = (   0.3333333  -0.0952381   0.0000000), wk =   0.0090703
        k(  158) = (   0.3333333  -0.0476190   0.0000000), wk =   0.0090703
        k(  159) = (   0.3809524   0.0000000   0.0000000), wk =   0.0090703
        k(  160) = (   0.3809524   0.0476190   0.0000000), wk =   0.0090703
        k(  161) = (   0.3809524   0.0952381   0.0000000), wk =   0.0090703
        k(  162) = (   0.3809524   0.1428571   0.0000000), wk =   0.0090703
        k(  163) = (   0.3809524   0.1904762   0.0000000), wk =   0.0090703
        k(  164) = (   0.3809524   0.2380952   0.0000000), wk =   0.0090703
        k(  165) = (   0.3809524   0.2857143   0.0000000), wk =   0.0090703
        k(  166) = (   0.3809524   0.3333333   0.0000000), wk =   0.0090703
        k(  167) = (   0.3809524   0.3809524   0.0000000), wk =   0.0090703
        k(  168) = (   0.3809524   0.4285714   0.0000000), wk =   0.0090703
        k(  169) = (   0.3809524   0.4761905   0.0000000), wk =   0.0090703
        k(  170) = (   0.3809524  -0.4761905   0.0000000), wk =   0.0090703
        k(  171) = (   0.3809524  -0.4285714   0.0000000), wk =   0.0090703
        k(  172) = (   0.3809524  -0.3809524   0.0000000), wk =   0.0090703
        k(  173) = (   0.3809524  -0.3333333   0.0000000), wk =   0.0090703
        k(  174) = (   0.3809524  -0.2857143   0.0000000), wk =   0.0090703
        k(  175) = (   0.3809524  -0.2380952   0.0000000), wk =   0.0090703
        k(  176) = (   0.3809524  -0.1904762   0.0000000), wk =   0.0090703
        k(  177) = (   0.3809524  -0.1428571   0.0000000), wk =   0.0090703
        k(  178) = (   0.3809524  -0.0952381   0.0000000), wk =   0.0090703
        k(  179) = (   0.3809524  -0.0476190   0.0000000), wk =   0.0090703
        k(  180) = (   0.4285714   0.0000000   0.0000000), wk =   0.0090703
        k(  181) = (   0.4285714   0.0476190   0.0000000), wk =   0.0090703
        k(  182) = (   0.4285714   0.0952381   0.0000000), wk =   0.0090703
        k(  183) = (   0.4285714   0.1428571   0.0000000), wk =   0.0090703
        k(  184) = (   0.4285714   0.1904762   0.0000000), wk =   0.0090703
        k(  185) = (   0.4285714   0.2380952   0.0000000), wk =   0.0090703
        k(  186) = (   0.4285714   0.2857143   0.0000000), wk =   0.0090703
        k(  187) = (   0.4285714   0.3333333   0.0000000), wk =   0.0090703
        k(  188) = (   0.4285714   0.3809524   0.0000000), wk =   0.0090703
        k(  189) = (   0.4285714   0.4285714   0.0000000), wk =   0.0090703
        k(  190) = (   0.4285714   0.4761905   0.0000000), wk =   0.0090703
        k(  191) = (   0.4285714  -0.4761905   0.0000000), wk =   0.0090703
        k(  192) = (   0.4285714  -0.4285714   0.0000000), wk =   0.0090703
        k(  193) = (   0.4285714  -0.3809524   0.0000000), wk =   0.0090703
        k(  194) = (   0.4285714  -0.3333333   0.0000000), wk =   0.0090703
        k(  195) = (   0.4285714  -0.2857143   0.0000000), wk =   0.0090703
        k(  196) = (   0.4285714  -0.2380952   0.0000000), wk =   0.0090703
        k(  197) = (   0.4285714  -0.1904762   0.0000000), wk =   0.0090703
        k(  198) = (   0.4285714  -0.1428571   0.0000000), wk =   0.0090703
        k(  199) = (   0.4285714  -0.0952381   0.0000000), wk =   0.0090703
        k(  200) = (   0.4285714  -0.0476190   0.0000000), wk =   0.0090703
        k(  201) = (   0.4761905   0.0000000   0.0000000), wk =   0.0090703
        k(  202) = (   0.4761905   0.0476190   0.0000000), wk =   0.0090703
        k(  203) = (   0.4761905   0.0952381   0.0000000), wk =   0.0090703
        k(  204) = (   0.4761905   0.1428571   0.0000000), wk =   0.0090703
        k(  205) = (   0.4761905   0.1904762   0.0000000), wk =   0.0090703
        k(  206) = (   0.4761905   0.2380952   0.0000000), wk =   0.0090703
        k(  207) = (   0.4761905   0.2857143   0.0000000), wk =   0.0090703
        k(  208) = (   0.4761905   0.3333333   0.0000000), wk =   0.0090703
        k(  209) = (   0.4761905   0.3809524   0.0000000), wk =   0.0090703
        k(  210) = (   0.4761905   0.4285714   0.0000000), wk =   0.0090703
        k(  211) = (   0.4761905   0.4761905   0.0000000), wk =   0.0090703
        k(  212) = (   0.4761905  -0.4761905   0.0000000), wk =   0.0090703
        k(  213) = (   0.4761905  -0.4285714   0.0000000), wk =   0.0090703
        k(  214) = (   0.4761905  -0.3809524   0.0000000), wk =   0.0090703
        k(  215) = (   0.4761905  -0.3333333   0.0000000), wk =   0.0090703
        k(  216) = (   0.4761905  -0.2857143   0.0000000), wk =   0.0090703
        k(  217) = (   0.4761905  -0.2380952   0.0000000), wk =   0.0090703
        k(  218) = (   0.4761905  -0.1904762   0.0000000), wk =   0.0090703
        k(  219) = (   0.4761905  -0.1428571   0.0000000), wk =   0.0090703
        k(  220) = (   0.4761905  -0.0952381   0.0000000), wk =   0.0090703
        k(  221) = (   0.4761905  -0.0476190   0.0000000), wk =   0.0090703

     Dense  grid:   467835 G-vectors     FFT dimensions: (  60,  60, 300)

     Smooth grid:   118417 G-vectors     FFT dimensions: (  40,  40, 192)

     Dynamical RAM for                 wfc:       0.37 MB

     Dynamical RAM for     wfc (w. buffer):      81.38 MB

     Dynamical RAM for           str. fact:       0.60 MB

     Dynamical RAM for           local pot:       0.00 MB

     Dynamical RAM for          nlocal pot:       0.85 MB

     Dynamical RAM for                qrad:       3.59 MB

     Dynamical RAM for          rho,v,vnew:       1.96 MB

     Dynamical RAM for               rhoin:       0.65 MB

     Dynamical RAM for            rho*nmix:       4.76 MB

     Dynamical RAM for           G-vectors:       1.15 MB

     Dynamical RAM for          h,s,v(r/c):       0.28 MB

     Dynamical RAM for          <psi|beta>:       0.05 MB

     Dynamical RAM for                 psi:       0.73 MB

     Dynamical RAM for                hpsi:       0.73 MB

     Dynamical RAM for      wfcinit/wfcrot:       0.77 MB

     Estimated static dynamical RAM per process >      92.86 MB

     Estimated max dynamical RAM per process >      99.42 MB

     Estimated total dynamical RAM >       2.33 GB

     Initial potential from superposition of free atoms

     starting charge      77.7638, renormalised to      78.0000

     negative rho (up, down):  3.906E-04 0.000E+00
     Starting wfcs are random

     total cpu time spent up to now is        5.0 secs

     Self-consistent Calculation

     iteration #  1     ecut=    50.00 Ry     beta= 0.70
     Davidson diagonalization with overlap

---- Real-time Memory Report at c_bands before calling an iterative solver
           279 MiB given to the printing process from OS
             0 MiB allocation reported by mallinfo(arena+hblkhd)
        108080 MiB available memory on the node where the printing process lives
------------------
     ethr =  1.00E-02,  avg # of iterations = 11.0

     Threshold (ethr) on eigenvalues was too large:
     Diagonalizing with lowered threshold

     Davidson diagonalization with overlap

---- Real-time Memory Report at c_bands before calling an iterative solver
           282 MiB given to the printing process from OS
             0 MiB allocation reported by mallinfo(arena+hblkhd)
        108055 MiB available memory on the node where the printing process lives
------------------
     ethr =  1.29E-04,  avg # of iterations =  5.7

     negative rho (up, down):  1.619E-05 0.000E+00

     total cpu time spent up to now is       65.2 secs

     total energy              =    -806.47975554 Ry
     estimated scf accuracy    <       0.08687271 Ry

     iteration #  2     ecut=    50.00 Ry     beta= 0.70
     Davidson diagonalization with overlap

---- Real-time Memory Report at c_bands before calling an iterative solver
           287 MiB given to the printing process from OS
             0 MiB allocation reported by mallinfo(arena+hblkhd)
        107993 MiB available memory on the node where the printing process lives
------------------
     ethr =  1.11E-04,  avg # of iterations =  5.6

     negative rho (up, down):  2.726E-05 0.000E+00

     total cpu time spent up to now is       82.4 secs

     total energy              =    -806.42753631 Ry
     estimated scf accuracy    <       0.51213654 Ry

     iteration #  3     ecut=    50.00 Ry     beta= 0.70
     Davidson diagonalization with overlap

---- Real-time Memory Report at c_bands before calling an iterative solver
           287 MiB given to the printing process from OS
             0 MiB allocation reported by mallinfo(arena+hblkhd)
        107987 MiB available memory on the node where the printing process lives
------------------
     ethr =  1.11E-04,  avg # of iterations =  5.3

     negative rho (up, down):  2.274E-05 0.000E+00

     total cpu time spent up to now is       98.7 secs

     total energy              =    -806.49345992 Ry
     estimated scf accuracy    <       0.23096835 Ry

     iteration #  4     ecut=    50.00 Ry     beta= 0.70
     Davidson diagonalization with overlap

---- Real-time Memory Report at c_bands before calling an iterative solver
           288 MiB given to the printing process from OS
             0 MiB allocation reported by mallinfo(arena+hblkhd)
        107987 MiB available memory on the node where the printing process lives
------------------
     ethr =  1.11E-04,  avg # of iterations =  3.4

     negative rho (up, down):  4.827E-06 0.000E+00

     total cpu time spent up to now is      111.6 secs

     total energy              =    -806.51714103 Ry
     estimated scf accuracy    <       0.00465830 Ry

     iteration #  5     ecut=    50.00 Ry     beta= 0.70
     Davidson diagonalization with overlap

---- Real-time Memory Report at c_bands before calling an iterative solver
           288 MiB given to the printing process from OS
             0 MiB allocation reported by mallinfo(arena+hblkhd)
        107985 MiB available memory on the node where the printing process lives
------------------
     ethr =  5.97E-06,  avg # of iterations =  6.6

     negative rho (up, down):  2.562E-06 0.000E+00

     total cpu time spent up to now is      128.3 secs

     total energy              =    -806.51488852 Ry
     estimated scf accuracy    <       0.07093725 Ry

     iteration #  6     ecut=    50.00 Ry     beta= 0.70
     Davidson diagonalization with overlap

---- Real-time Memory Report at c_bands before calling an iterative solver
           288 MiB given to the printing process from OS
             0 MiB allocation reported by mallinfo(arena+hblkhd)
        107983 MiB available memory on the node where the printing process lives
------------------
     ethr =  5.97E-06,  avg # of iterations =  6.8

     negative rho (up, down):  2.652E-08 0.000E+00

     total cpu time spent up to now is      143.4 secs

     total energy              =    -806.51862078 Ry
     estimated scf accuracy    <       0.00337373 Ry

     iteration #  7     ecut=    50.00 Ry     beta= 0.70
     Davidson diagonalization with overlap

---- Real-time Memory Report at c_bands before calling an iterative solver
           288 MiB given to the printing process from OS
             0 MiB allocation reported by mallinfo(arena+hblkhd)
        107982 MiB available memory on the node where the printing process lives
------------------
     ethr =  4.33E-06,  avg # of iterations =  2.6

     total cpu time spent up to now is      154.9 secs

     total energy              =    -806.51888385 Ry
     estimated scf accuracy    <       0.00014057 Ry

     iteration #  8     ecut=    50.00 Ry     beta= 0.70
     Davidson diagonalization with overlap

---- Real-time Memory Report at c_bands before calling an iterative solver
           288 MiB given to the printing process from OS
             0 MiB allocation reported by mallinfo(arena+hblkhd)
        107980 MiB available memory on the node where the printing process lives
------------------
     ethr =  1.80E-07,  avg # of iterations =  5.6

     total cpu time spent up to now is      170.2 secs

     total energy              =    -806.51892569 Ry
     estimated scf accuracy    <       0.00014941 Ry

     iteration #  9     ecut=    50.00 Ry     beta= 0.70
     Davidson diagonalization with overlap

---- Real-time Memory Report at c_bands before calling an iterative solver
           288 MiB given to the printing process from OS
             0 MiB allocation reported by mallinfo(arena+hblkhd)
        107979 MiB available memory on the node where the printing process lives
------------------
     ethr =  1.80E-07,  avg # of iterations =  2.0

     total cpu time spent up to now is      181.2 secs

     total energy              =    -806.51892182 Ry
     estimated scf accuracy    <       0.00005686 Ry

     iteration # 10     ecut=    50.00 Ry     beta= 0.70
     Davidson diagonalization with overlap

---- Real-time Memory Report at c_bands before calling an iterative solver
           289 MiB given to the printing process from OS
             0 MiB allocation reported by mallinfo(arena+hblkhd)
        107977 MiB available memory on the node where the printing process lives
------------------
     ethr =  7.29E-08,  avg # of iterations =  3.8

     total cpu time spent up to now is      193.6 secs

     total energy              =    -806.51892694 Ry
     estimated scf accuracy    <       0.00000109 Ry

     iteration # 11     ecut=    50.00 Ry     beta= 0.70
     Davidson diagonalization with overlap

---- Real-time Memory Report at c_bands before calling an iterative solver
           289 MiB given to the printing process from OS
             0 MiB allocation reported by mallinfo(arena+hblkhd)
        107975 MiB available memory on the node where the printing process lives
------------------
     ethr =  1.40E-09,  avg # of iterations =  6.0

     total cpu time spent up to now is      209.7 secs

     total energy              =    -806.51892726 Ry
     estimated scf accuracy    <       0.00000519 Ry

     iteration # 12     ecut=    50.00 Ry     beta= 0.70
     Davidson diagonalization with overlap

---- Real-time Memory Report at c_bands before calling an iterative solver
           289 MiB given to the printing process from OS
             0 MiB allocation reported by mallinfo(arena+hblkhd)
        107975 MiB available memory on the node where the printing process lives
------------------
     ethr =  1.40E-09,  avg # of iterations =  4.1

     total cpu time spent up to now is      222.8 secs

     total energy              =    -806.51892759 Ry
     estimated scf accuracy    <       0.00000013 Ry

     iteration # 13     ecut=    50.00 Ry     beta= 0.70
     Davidson diagonalization with overlap

---- Real-time Memory Report at c_bands before calling an iterative solver
           289 MiB given to the printing process from OS
             0 MiB allocation reported by mallinfo(arena+hblkhd)
        107975 MiB available memory on the node where the printing process lives
------------------
     ethr =  1.68E-10,  avg # of iterations =  5.6

     total cpu time spent up to now is      237.3 secs

     End of self-consistent calculation

          k = 0.0000 0.0000 0.0000 ( 14817 PWs)   bands (ev):

   -34.7701 -34.7699 -34.7698 -34.7696 -34.7383 -34.7382 -34.7333 -34.7329
   -34.7237 -34.7235 -34.6643 -34.6583 -34.6479 -34.6199 -34.6190 -27.5444
   -27.5442 -27.5439 -27.5436 -27.5368 -27.5365 -27.5331 -27.5328 -27.5311
   -27.5307 -10.7027 -10.1659  -9.0892  -6.3480  -4.9842  -0.2155  -0.0187
     0.2066   0.2207   0.3887   0.7131   0.8146   0.9553   1.1797

     occupation numbers 
     1.0000   1.0000   1.0000   1.0000   1.0000   1.0000   1.0000   1.0000
     1.0000   1.0000   1.0000   1.0000   1.0000   1.0000   1.0000   1.0000
     1.0000   1.0000   1.0000   1.0000   1.0000   1.0000   1.0000   1.0000
     1.0000   1.0000   1.0000   1.0000   1.0000   1.0000   1.0000   1.0000
     1.0000   1.0000   1.0000   1.0000   1.0000   1.0000   1.0000

          k = 0.0000 0.0566 0.0000 ( 14810 PWs)   bands (ev):

   -34.7701 -34.7699 -34.7698 -34.7695 -34.7383 -34.7382 -34.7333 -34.7329
   -34.7237 -34.7235 -34.6643 -34.6583 -34.6479 -34.6199 -34.6190 -27.5445
   -27.5442 -27.5438 -27.5435 -27.5368 -27.5364 -27.5331 -27.5328 -27.5311
   -27.5308 -10.6829 -10.1477  -9.0781  -6.3506  -5.0166  -0.2882  -0.1075
     0.0370   0.1958   0.2093   0.6560   0.8568   0.9503   1.3778

     occupation numbers 
     1.0000   1.0000   1.0000   1.0000   1.0000   1.0000   1.0000   1.0000
     1.0000   1.0000   1.0000   1.0000   1.0000   1.0000   1.0000   1.0000
     1.0000   1.0000   1.0000   1.0000   1.0000   1.0000   1.0000   1.0000
     1.0000   1.0000   1.0000   1.0000   1.0000   1.0000   1.0000   1.0000
     1.0000   1.0000   1.0000   1.0000   1.0000   1.0000   1.0000

          k = 0.0000 0.1133 0.0000 ( 14809 PWs)   bands (ev):

   -34.7701 -34.7699 -34.7697 -34.7694 -34.7383 -34.7382 -34.7333 -34.7330
   -34.7236 -34.7234 -34.6643 -34.6583 -34.6479 -34.6198 -34.6190 -27.5445
   -27.5442 -27.5436 -27.5433 -27.5366 -27.5363 -27.5332 -27.5328 -27.5313
   -27.5310 -10.6237 -10.0935  -9.0455  -6.3605  -5.1134  -0.6212  -0.2993
    -0.1863  -0.0312   0.1147   0.3051   0.9078   1.1946   1.5256

     occupation numbers 
     1.0000   1.0000   1.0000   1.0000   1.0000   1.0000   1.0000   1.0000
     1.0000   1.0000   1.0000   1.0000   1.0000   1.0000   1.0000   1.0000
     1.0000   1.0000   1.0000   1.0000   1.0000   1.0000   1.0000   1.0000
     1.0000   1.0000   1.0000   1.0000   1.0000   1.0000   1.0000   1.0000
     1.0000   1.0000   1.0000   1.0000   1.0000   1.0000   1.0000

          k = 0.0000 0.1699 0.0000 ( 14803 PWs)   bands (ev):

   -34.7701 -34.7699 -34.7695 -34.7693 -34.7383 -34.7382 -34.7334 -34.7330
   -34.7236 -34.7233 -34.6642 -34.6583 -34.6480 -34.6197 -34.6189 -27.5446
   -27.5443 -27.5432 -27.5429 -27.5364 -27.5361 -27.5332 -27.5328 -27.5317
   -27.5312 -10.5260 -10.0045  -8.9940  -6.3836  -5.2732  -1.0907  -0.5177
    -0.4478  -0.3100  -0.0397   0.1461   0.9323   1.2156   1.4854

     occupation numbers 
     1.0000   1.0000   1.0000   1.0000   1.0000   1.0000   1.0000   1.0000
     1.0000   1.0000   1.0000   1.0000   1.0000   1.0000   1.0000   1.0000
     1.0000   1.0000   1.0000   1.0000   1.0000   1.0000   1.0000   1.0000
     1.0000   1.0000   1.0000   1.0000   1.0000   1.0000   1.0000   1.0000
     1.0000   1.0000   1.0000   1.0000   1.0000   1.0000   1.0000

          k = 0.0000 0.2265 0.0000 ( 14816 PWs)   bands (ev):

   -34.7701 -34.7699 -34.7694 -34.7691 -34.7383 -34.7383 -34.7334 -34.7330
   -34.7235 -34.7232 -34.6641 -34.6584 -34.6480 -34.6196 -34.6189 -27.5447
   -27.5444 -27.5427 -27.5424 -27.5362 -27.5358 -27.5333 -27.5328 -27.5320
   -27.5316 -10.3911  -9.8829  -8.9279  -6.4293  -5.4897  -1.5569  -0.7766
    -0.7411  -0.5778  -0.2104   0.1428   0.8574   0.9214   1.5987

     occupation numbers 
     1.0000   1.0000   1.0000   1.0000   1.0000   1.0000   1.0000   1.0000
     1.0000   1.0000   1.0000   1.0000   1.0000   1.0000   1.0000   1.0000
     1.0000   1.0000   1.0000   1.0000   1.0000   1.0000   1.0000   1.0000
     1.0000   1.0000   1.0000   1.0000   1.0000   1.0000   1.0000   1.0000
     1.0000   1.0000   1.0000   1.0000   1.0000   1.0000   1.0000

          k = 0.0000 0.2832 0.0000 ( 14807 PWs)   bands (ev):

   -34.7701 -34.7699 -34.7692 -34.7689 -34.7383 -34.7383 -34.7335 -34.7331
   -34.7234 -34.7231 -34.6641 -34.6584 -34.6481 -34.6195 -34.6187 -27.5448
   -27.5445 -27.5421 -27.5418 -27.5359 -27.5356 -27.5334 -27.5328 -27.5324
   -27.5320 -10.2210  -9.7323  -8.8540  -6.5094  -5.7490  -1.9779  -1.1241
    -0.9530  -0.7485  -0.3800   0.1461   0.5299   0.8758   1.5598

     occupation numbers 
     1.0000   1.0000   1.0000   1.0000   1.0000   1.0000   1.0000   1.0000
     1.0000   1.0000   1.0000   1.0000   1.0000   1.0000   1.0000   1.0000
     1.0000   1.0000   1.0000   1.0000   1.0000   1.0000   1.0000   1.0000
     1.0000   1.0000   1.0000   1.0000   1.0000   1.0000   1.0000   1.0000
     1.0000   1.0000   1.0000   1.0000   1.0000   1.0000   1.0000

          k = 0.0000 0.3398 0.0000 ( 14818 PWs)   bands (ev):

   -34.7701 -34.7699 -34.7690 -34.7687 -34.7383 -34.7383 -34.7335 -34.7331
   -34.7233 -34.7230 -34.6640 -34.6584 -34.6481 -34.6194 -34.6186 -27.5449
   -27.5446 -27.5415 -27.5413 -27.5357 -27.5353 -27.5335 -27.5330 -27.5326
   -27.5324 -10.0192  -9.5585  -8.7824  -6.6353  -6.0283  -2.3363  -1.4152
    -1.1402  -0.8780  -0.5366   0.0229   0.3909   0.8152   1.3886

     occupation numbers 
     1.0000   1.0000   1.0000   1.0000   1.0000   1.0000   1.0000   1.0000
     1.0000   1.0000   1.0000   1.0000   1.0000   1.0000   1.0000   1.0000
     1.0000   1.0000   1.0000   1.0000   1.0000   1.0000   1.0000   1.0000
     1.0000   1.0000   1.0000   1.0000   1.0000   1.0000   1.0000   1.0000
     1.0000   1.0000   1.0000   1.0000   1.0000   1.0000   1.0000

          k = 0.0000 0.3965 0.0000 ( 14830 PWs)   bands (ev):

   -34.7701 -34.7699 -34.7688 -34.7685 -34.7383 -34.7383 -34.7335 -34.7332
   -34.7232 -34.7229 -34.6639 -34.6584 -34.6482 -34.6193 -34.6184 -27.5450
   -27.5447 -27.5410 -27.5407 -27.5355 -27.5352 -27.5335 -27.5332 -27.5328
   -27.5326  -9.7909  -9.3708  -8.7277  -6.8107  -6.2978  -2.6260  -1.6245
    -1.2956  -1.0029  -0.6714  -0.1772   0.4126   0.7513   1.1738

     occupation numbers 
     1.0000   1.0000   1.0000   1.0000   1.0000   1.0000   1.0000   1.0000
     1.0000   1.0000   1.0000   1.0000   1.0000   1.0000   1.0000   1.0000
     1.0000   1.0000   1.0000   1.0000   1.0000   1.0000   1.0000   1.0000
     1.0000   1.0000   1.0000   1.0000   1.0000   1.0000   1.0000   1.0000
     1.0000   1.0000   1.0000   1.0000   1.0000   1.0000   1.0000

          k = 0.0000 0.4531 0.0000 ( 14819 PWs)   bands (ev):

   -34.7701 -34.7699 -34.7686 -34.7684 -34.7383 -34.7383 -34.7336 -34.7332
   -34.7231 -34.7228 -34.6639 -34.6584 -34.6482 -34.6193 -34.6183 -27.5451
   -27.5448 -27.5405 -27.5403 -27.5354 -27.5351 -27.5336 -27.5333 -27.5331
   -27.5326  -9.5444  -9.1844  -8.7095  -7.0174  -6.5301  -2.8464  -1.7415
    -1.4153  -1.1518  -0.7779  -0.3077   0.4566   0.6935   0.9788

     occupation numbers 
     1.0000   1.0000   1.0000   1.0000   1.0000   1.0000   1.0000   1.0000
     1.0000   1.0000   1.0000   1.0000   1.0000   1.0000   1.0000   1.0000
     1.0000   1.0000   1.0000   1.0000   1.0000   1.0000   1.0000   1.0000
     1.0000   1.0000   1.0000   1.0000   1.0000   1.0000   1.0000   1.0000
     1.0000   1.0000   1.0000   1.0000   1.0000   1.0000   1.0000

          k = 0.0000 0.5097 0.0000 ( 14832 PWs)   bands (ev):

   -34.7701 -34.7699 -34.7685 -34.7683 -34.7384 -34.7383 -34.7336 -34.7332
   -34.7230 -34.7228 -34.6638 -34.6584 -34.6483 -34.6193 -34.6182 -27.5452
   -27.5449 -27.5402 -27.5400 -27.5354 -27.5350 -27.5337 -27.5334 -27.5331
   -27.5325  -9.2933  -9.0244  -8.7512  -7.2085  -6.7052  -2.9968  -1.7711
    -1.4971  -1.3158  -0.8509  -0.3594   0.4816   0.6480   0.8456

     occupation numbers 
     1.0000   1.0000   1.0000   1.0000   1.0000   1.0000   1.0000   1.0000
     1.0000   1.0000   1.0000   1.0000   1.0000   1.0000   1.0000   1.0000
     1.0000   1.0000   1.0000   1.0000   1.0000   1.0000   1.0000   1.0000
     1.0000   1.0000   1.0000   1.0000   1.0000   1.0000   1.0000   1.0000
     1.0000   1.0000   1.0000   1.0000   1.0000   1.0000   1.0000

          k = 0.0000 0.5664 0.0000 ( 14840 PWs)   bands (ev):

   -34.7701 -34.7699 -34.7684 -34.7682 -34.7384 -34.7383 -34.7336 -34.7332
   -34.7230 -34.7228 -34.6638 -34.6584 -34.6483 -34.6192 -34.6181 -27.5452
   -27.5449 -27.5401 -27.5398 -27.5354 -27.5350 -27.5338 -27.5334 -27.5331
   -27.5325  -9.0589  -8.9275  -8.8690  -7.3254  -6.8019  -3.0736  -1.7443
    -1.5414  -1.4424  -0.8878  -0.3700   0.4798   0.6227   0.7896

     occupation numbers 
     1.0000   1.0000   1.0000   1.0000   1.0000   1.0000   1.0000   1.0000
     1.0000   1.0000   1.0000   1.0000   1.0000   1.0000   1.0000   1.0000
     1.0000   1.0000   1.0000   1.0000   1.0000   1.0000   1.0000   1.0000
     1.0000   1.0000   1.0000   1.0000   1.0000   1.0000   1.0000   1.0000
     1.0000   1.0000   1.0000   1.0000   1.0000   1.0000   1.0000

          k = 0.0476 0.0275 0.0000 ( 14802 PWs)   bands (ev):

   -34.7701 -34.7699 -34.7698 -34.7696 -34.7383 -34.7382 -34.7333 -34.7329
   -34.7237 -34.7235 -34.6643 -34.6583 -34.6479 -34.6199 -34.6190 -27.5444
   -27.5441 -27.5439 -27.5436 -27.5368 -27.5364 -27.5331 -27.5328 -27.5311
   -27.5307 -10.6840 -10.1489  -9.0791  -6.3520  -5.0202  -0.3042  -0.2150
     0.0698   0.1743   0.3629   0.5983   0.9128   0.9915   1.3349

     occupation numbers 
     1.0000   1.0000   1.0000   1.0000   1.0000   1.0000   1.0000   1.0000
     1.0000   1.0000   1.0000   1.0000   1.0000   1.0000   1.0000   1.0000
     1.0000   1.0000   1.0000   1.0000   1.0000   1.0000   1.0000   1.0000
     1.0000   1.0000   1.0000   1.0000   1.0000   1.0000   1.0000   1.0000
     1.0000   1.0000   1.0000   1.0000   1.0000   1.0000   1.0000

          k = 0.0476 0.0841 0.0000 ( 14810 PWs)   bands (ev):

   -34.7701 -34.7699 -34.7697 -34.7695 -34.7383 -34.7382 -34.7333 -34.7329
   -34.7237 -34.7234 -34.6643 -34.6583 -34.6479 -34.6198 -34.6190 -27.5444
   -27.5441 -27.5437 -27.5434 -27.5367 -27.5364 -27.5332 -27.5328 -27.5312
   -27.5308 -10.6451 -10.1133  -9.0578  -6.3592  -5.0866  -0.5358  -0.3609
    -0.0509   0.0381   0.1683   0.4992   0.8638   1.1533   1.5112

     occupation numbers 
     1.0000   1.0000   1.0000   1.0000   1.0000   1.0000   1.0000   1.0000
     1.0000   1.0000   1.0000   1.0000   1.0000   1.0000   1.0000   1.0000
     1.0000   1.0000   1.0000   1.0000   1.0000   1.0000   1.0000   1.0000
     1.0000   1.0000   1.0000   1.0000   1.0000   1.0000   1.0000   1.0000
     1.0000   1.0000   1.0000   1.0000   1.0000   1.0000   1.0000

          k = 0.0476 0.1408 0.0000 ( 14819 PWs)   bands (ev):

   -34.7701 -34.7699 -34.7696 -34.7694 -34.7383 -34.7383 -34.7334 -34.7330
   -34.7236 -34.7234 -34.6642 -34.6583 -34.6479 -34.6197 -34.6190 -27.5445
   -27.5442 -27.5434 -27.5431 -27.5366 -27.5362 -27.5333 -27.5328 -27.5314
   -27.5310 -10.5672 -10.0423  -9.0163  -6.3762  -5.2164  -0.9066  -0.5798
    -0.3343  -0.2032   0.0897   0.3132   0.8023   1.3547   1.5066

     occupation numbers 
     1.0000   1.0000   1.0000   1.0000   1.0000   1.0000   1.0000   1.0000
     1.0000   1.0000   1.0000   1.0000   1.0000   1.0000   1.0000   1.0000
     1.0000   1.0000   1.0000   1.0000   1.0000   1.0000   1.0000   1.0000
     1.0000   1.0000   1.0000   1.0000   1.0000   1.0000   1.0000   1.0000
     1.0000   1.0000   1.0000   1.0000   1.0000   1.0000   1.0000

          k = 0.0476 0.1974 0.0000 ( 14817 PWs)   bands (ev):

   -34.7701 -34.7699 -34.7695 -34.7692 -34.7383 -34.7383 -34.7334 -34.7330
   -34.7235 -34.7233 -34.6642 -34.6584 -34.6480 -34.6196 -34.6190 -27.5445
   -27.5443 -27.5430 -27.5427 -27.5364 -27.5360 -27.5334 -27.5328 -27.5318
   -27.5313 -10.4514  -9.9375  -8.9577  -6.4106  -5.4055  -1.3376  -0.8603
    -0.6102  -0.3993  -0.0840   0.1630   0.7815   1.1928   1.5836

     occupation numbers 
     1.0000   1.0000   1.0000   1.0000   1.0000   1.0000   1.0000   1.0000
     1.0000   1.0000   1.0000   1.0000   1.0000   1.0000   1.0000   1.0000
     1.0000   1.0000   1.0000   1.0000   1.0000   1.0000   1.0000   1.0000
     1.0000   1.0000   1.0000   1.0000   1.0000   1.0000   1.0000   1.0000
     1.0000   1.0000   1.0000   1.0000   1.0000   1.0000   1.0000

          k = 0.0476 0.2540 0.0000 ( 14796 PWs)   bands (ev):

   -34.7701 -34.7699 -34.7693 -34.7690 -34.7383 -34.7383 -34.7334 -34.7330
   -34.7234 -34.7232 -34.6641 -34.6584 -34.6480 -34.6195 -34.6189 -27.5446
   -27.5444 -27.5424 -27.5422 -27.5361 -27.5358 -27.5335 -27.5329 -27.5321
   -27.5316 -10.2992  -9.8017  -8.8876  -6.4726  -5.6445  -1.7653  -1.1497
    -0.8162  -0.6149  -0.3382   0.1343   0.6998   0.9472   1.6113

     occupation numbers 
     1.0000   1.0000   1.0000   1.0000   1.0000   1.0000   1.0000   1.0000
     1.0000   1.0000   1.0000   1.0000   1.0000   1.0000   1.0000   1.0000
     1.0000   1.0000   1.0000   1.0000   1.0000   1.0000   1.0000   1.0000
     1.0000   1.0000   1.0000   1.0000   1.0000   1.0000   1.0000   1.0000
     1.0000   1.0000   1.0000   1.0000   1.0000   1.0000   1.0000

          k = 0.0476 0.3107 0.0000 ( 14799 PWs)   bands (ev):

   -34.7701 -34.7699 -34.7691 -34.7688 -34.7383 -34.7383 -34.7335 -34.7331
   -34.7233 -34.7231 -34.6640 -34.6584 -34.6481 -34.6194 -34.6188 -27.5448
   -27.5445 -27.5419 -27.5416 -27.5359 -27.5355 -27.5335 -27.5330 -27.5324
   -27.5320 -10.1135  -9.6396  -8.8140  -6.5738  -5.9157  -2.1509  -1.3956
    -1.0245  -0.8208  -0.5201   0.0805   0.5354   0.8184   1.5125

     occupation numbers 
     1.0000   1.0000   1.0000   1.0000   1.0000   1.0000   1.0000   1.0000
     1.0000   1.0000   1.0000   1.0000   1.0000   1.0000   1.0000   1.0000
     1.0000   1.0000   1.0000   1.0000   1.0000   1.0000   1.0000   1.0000
     1.0000   1.0000   1.0000   1.0000   1.0000   1.0000   1.0000   1.0000
     1.0000   1.0000   1.0000   1.0000   1.0000   1.0000   1.0000

          k = 0.0476 0.3673 0.0000 ( 14798 PWs)   bands (ev):

   -34.7701 -34.7699 -34.7689 -34.7686 -34.7383 -34.7383 -34.7335 -34.7331
   -34.7232 -34.7230 -34.6639 -34.6584 -34.6481 -34.6193 -34.6186 -27.5449
   -27.5446 -27.5413 -27.5410 -27.5357 -27.5353 -27.5336 -27.5331 -27.5326
   -27.5324  -9.8985  -9.4582  -8.7489  -6.7230  -6.1928  -2.4753  -1.5811
    -1.2398  -0.9950  -0.6302  -0.0630   0.4352   0.7559   1.3360

     occupation numbers 
     1.0000   1.0000   1.0000   1.0000   1.0000   1.0000   1.0000   1.0000
     1.0000   1.0000   1.0000   1.0000   1.0000   1.0000   1.0000   1.0000
     1.0000   1.0000   1.0000   1.0000   1.0000   1.0000   1.0000   1.0000
     1.0000   1.0000   1.0000   1.0000   1.0000   1.0000   1.0000   1.0000
     1.0000   1.0000   1.0000   1.0000   1.0000   1.0000   1.0000

          k = 0.0476 0.4239 0.0000 ( 14821 PWs)   bands (ev):

   -34.7701 -34.7699 -34.7687 -34.7685 -34.7383 -34.7383 -34.7336 -34.7332
   -34.7231 -34.7229 -34.6639 -34.6584 -34.6482 -34.6192 -34.6184 -27.5450
   -27.5447 -27.5408 -27.5405 -27.5355 -27.5352 -27.5336 -27.5333 -27.5328
   -27.5325  -9.6606  -9.2694  -8.7090  -6.9158  -6.4458  -2.7315  -1.6999
    -1.4206  -1.1504  -0.7085  -0.2346   0.4163   0.7167   1.1426

     occupation numbers 
     1.0000   1.0000   1.0000   1.0000   1.0000   1.0000   1.0000   1.0000
     1.0000   1.0000   1.0000   1.0000   1.0000   1.0000   1.0000   1.0000
     1.0000   1.0000   1.0000   1.0000   1.0000   1.0000   1.0000   1.0000
     1.0000   1.0000   1.0000   1.0000   1.0000   1.0000   1.0000   1.0000
     1.0000   1.0000   1.0000   1.0000   1.0000   1.0000   1.0000

          k = 0.0476 0.4806 0.0000 ( 14819 PWs)   bands (ev):

   -34.7701 -34.7699 -34.7686 -34.7683 -34.7384 -34.7383 -34.7336 -34.7332
   -34.7230 -34.7228 -34.6638 -34.6584 -34.6482 -34.6192 -34.6183 -27.5451
   -27.5448 -27.5404 -27.5402 -27.5354 -27.5351 -27.5337 -27.5333 -27.5330
   -27.5326  -9.4104  -9.0924  -8.7160  -7.1208  -6.6509  -2.9175  -1.7567
    -1.5381  -1.2967  -0.7906  -0.3444   0.4286   0.6834   0.9789

     occupation numbers 
     1.0000   1.0000   1.0000   1.0000   1.0000   1.0000   1.0000   1.0000
     1.0000   1.0000   1.0000   1.0000   1.0000   1.0000   1.0000   1.0000
     1.0000   1.0000   1.0000   1.0000   1.0000   1.0000   1.0000   1.0000
     1.0000   1.0000   1.0000   1.0000   1.0000   1.0000   1.0000   1.0000
     1.0000   1.0000   1.0000   1.0000   1.0000   1.0000   1.0000

          k = 0.0476 0.5372 0.0000 ( 14834 PWs)   bands (ev):

   -34.7701 -34.7699 -34.7685 -34.7682 -34.7384 -34.7383 -34.7336 -34.7332
   -34.7230 -34.7228 -34.6638 -34.6584 -34.6483 -34.6192 -34.6182 -27.5451
   -27.5448 -27.5402 -27.5399 -27.5354 -27.5351 -27.5337 -27.5334 -27.5331
   -27.5325  -9.1652  -8.9583  -8.7919  -7.2822  -6.7888  -3.0314  -1.7732
    -1.5712  -1.4357  -0.8648  -0.3846   0.4558   0.6351   0.8834

     occupation numbers 
     1.0000   1.0000   1.0000   1.0000   1.0000   1.0000   1.0000   1.0000
     1.0000   1.0000   1.0000   1.0000   1.0000   1.0000   1.0000   1.0000
     1.0000   1.0000   1.0000   1.0000   1.0000   1.0000   1.0000   1.0000
     1.0000   1.0000   1.0000   1.0000   1.0000   1.0000   1.0000   1.0000
     1.0000   1.0000   1.0000   1.0000   1.0000   1.0000   1.0000

          k = 0.0476 0.5939 0.0000 ( 14842 PWs)   bands (ev):

   -34.7701 -34.7699 -34.7684 -34.7682 -34.7384 -34.7383 -34.7336 -34.7332
   -34.7230 -34.7227 -34.6638 -34.6584 -34.6483 -34.6192 -34.6181 -27.5452
   -27.5448 -27.5401 -27.5398 -27.5354 -27.5350 -27.5338 -27.5334 -27.5332
   -27.5325  -8.9551  -8.9401  -8.9056  -7.3447  -6.8381  -3.0706  -1.7717
    -1.5535  -1.5165  -0.8960  -0.3902   0.4781   0.5950   0.8594

     occupation numbers 
     1.0000   1.0000   1.0000   1.0000   1.0000   1.0000   1.0000   1.0000
     1.0000   1.0000   1.0000   1.0000   1.0000   1.0000   1.0000   1.0000
     1.0000   1.0000   1.0000   1.0000   1.0000   1.0000   1.0000   1.0000
     1.0000   1.0000   1.0000   1.0000   1.0000   1.0000   1.0000   1.0000
     1.0000   1.0000   1.0000   1.0000   1.0000   1.0000   1.0000

          k = 0.0476-0.5389 0.0000 ( 14838 PWs)   bands (ev):

   -34.7701 -34.7699 -34.7685 -34.7682 -34.7384 -34.7383 -34.7336 -34.7332
   -34.7230 -34.7228 -34.6638 -34.6584 -34.6483 -34.6193 -34.6182 -27.5451
   -27.5448 -27.5402 -27.5399 -27.5353 -27.5350 -27.5337 -27.5334 -27.5332
   -27.5326  -9.1589  -8.9551  -8.7946  -7.2841  -6.7880  -3.0335  -1.7634
    -1.6077  -1.4051  -0.8736  -0.3767   0.4650   0.6116   0.8915

     occupation numbers 
     1.0000   1.0000   1.0000   1.0000   1.0000   1.0000   1.0000   1.0000
     1.0000   1.0000   1.0000   1.0000   1.0000   1.0000   1.0000   1.0000
     1.0000   1.0000   1.0000   1.0000   1.0000   1.0000   1.0000   1.0000
     1.0000   1.0000   1.0000   1.0000   1.0000   1.0000   1.0000   1.0000
     1.0000   1.0000   1.0000   1.0000   1.0000   1.0000   1.0000

          k = 0.0476-0.4822 0.0000 ( 14835 PWs)   bands (ev):

   -34.7701 -34.7699 -34.7685 -34.7683 -34.7384 -34.7383 -34.7336 -34.7332
   -34.7230 -34.7228 -34.6638 -34.6584 -34.6483 -34.6193 -34.6182 -27.5451
   -27.5448 -27.5404 -27.5401 -27.5353 -27.5350 -27.5336 -27.5334 -27.5332
   -27.5326  -9.4037  -9.0871  -8.7162  -7.1236  -6.6488  -2.9215  -1.7591
    -1.5546  -1.2675  -0.8122  -0.3279   0.4475   0.6410   0.9883

     occupation numbers 
     1.0000   1.0000   1.0000   1.0000   1.0000   1.0000   1.0000   1.0000
     1.0000   1.0000   1.0000   1.0000   1.0000   1.0000   1.0000   1.0000
     1.0000   1.0000   1.0000   1.0000   1.0000   1.0000   1.0000   1.0000
     1.0000   1.0000   1.0000   1.0000   1.0000   1.0000   1.0000   1.0000
     1.0000   1.0000   1.0000   1.0000   1.0000   1.0000   1.0000

          k = 0.0476-0.4256 0.0000 ( 14833 PWs)   bands (ev):

   -34.7701 -34.7699 -34.7687 -34.7684 -34.7383 -34.7383 -34.7336 -34.7332
   -34.7231 -34.7229 -34.6639 -34.6584 -34.6482 -34.6194 -34.6183 -27.5450
   -27.5447 -27.5408 -27.5405 -27.5353 -27.5351 -27.5334 -27.5333 -27.5331
   -27.5326  -9.6538  -9.2631  -8.7071  -6.9180  -6.4420  -2.7372  -1.7115
    -1.4231  -1.1194  -0.7386  -0.2131   0.4337   0.6741   1.1411

     occupation numbers 
     1.0000   1.0000   1.0000   1.0000   1.0000   1.0000   1.0000   1.0000
     1.0000   1.0000   1.0000   1.0000   1.0000   1.0000   1.0000   1.0000
     1.0000   1.0000   1.0000   1.0000   1.0000   1.0000   1.0000   1.0000
     1.0000   1.0000   1.0000   1.0000   1.0000   1.0000   1.0000   1.0000
     1.0000   1.0000   1.0000   1.0000   1.0000   1.0000   1.0000

          k = 0.0476-0.3690 0.0000 ( 14846 PWs)   bands (ev):

   -34.7701 -34.7699 -34.7688 -34.7686 -34.7383 -34.7383 -34.7335 -34.7331
   -34.7232 -34.7230 -34.6640 -34.6584 -34.6482 -34.6194 -34.6184 -27.5449
   -27.5446 -27.5412 -27.5410 -27.5354 -27.5352 -27.5334 -27.5331 -27.5328
   -27.5326  -9.8922  -9.4518  -8.7457  -6.7234  -6.1873  -2.4829  -1.5904
    -1.2420  -0.9651  -0.6538  -0.0387   0.4288   0.7279   1.3208

     occupation numbers 
     1.0000   1.0000   1.0000   1.0000   1.0000   1.0000   1.0000   1.0000
     1.0000   1.0000   1.0000   1.0000   1.0000   1.0000   1.0000   1.0000
     1.0000   1.0000   1.0000   1.0000   1.0000   1.0000   1.0000   1.0000
     1.0000   1.0000   1.0000   1.0000   1.0000   1.0000   1.0000   1.0000
     1.0000   1.0000   1.0000   1.0000   1.0000   1.0000   1.0000

          k = 0.0476-0.3123 0.0000 ( 14803 PWs)   bands (ev):

   -34.7701 -34.7699 -34.7690 -34.7688 -34.7383 -34.7383 -34.7335 -34.7331
   -34.7233 -34.7231 -34.6640 -34.6584 -34.6481 -34.6195 -34.6186 -27.5448
   -27.5445 -27.5418 -27.5415 -27.5357 -27.5354 -27.5334 -27.5329 -27.5327
   -27.5323 -10.1079  -9.6336  -8.8102  -6.5720  -5.9086  -2.1601  -1.3936
    -1.0340  -0.7991  -0.5283   0.1099   0.4950   0.8030   1.4891

     occupation numbers 
     1.0000   1.0000   1.0000   1.0000   1.0000   1.0000   1.0000   1.0000
     1.0000   1.0000   1.0000   1.0000   1.0000   1.0000   1.0000   1.0000
     1.0000   1.0000   1.0000   1.0000   1.0000   1.0000   1.0000   1.0000
     1.0000   1.0000   1.0000   1.0000   1.0000   1.0000   1.0000   1.0000
     1.0000   1.0000   1.0000   1.0000   1.0000   1.0000   1.0000

          k = 0.0476-0.2557 0.0000 ( 14807 PWs)   bands (ev):

   -34.7701 -34.7699 -34.7692 -34.7690 -34.7383 -34.7383 -34.7334 -34.7331
   -34.7234 -34.7232 -34.6641 -34.6584 -34.6481 -34.6196 -34.6187 -27.5447
   -27.5444 -27.5423 -27.5421 -27.5359 -27.5356 -27.5333 -27.5328 -27.5323
   -27.5319 -10.2944  -9.7966  -8.8837  -6.4693  -5.6360  -1.7742  -1.1325
    -0.8265  -0.6016  -0.3451   0.1486   0.6666   0.9157   1.5921

     occupation numbers 
     1.0000   1.0000   1.0000   1.0000   1.0000   1.0000   1.0000   1.0000
     1.0000   1.0000   1.0000   1.0000   1.0000   1.0000   1.0000   1.0000
     1.0000   1.0000   1.0000   1.0000   1.0000   1.0000   1.0000   1.0000
     1.0000   1.0000   1.0000   1.0000   1.0000   1.0000   1.0000   1.0000
     1.0000   1.0000   1.0000   1.0000   1.0000   1.0000   1.0000

          k = 0.0476-0.1991 0.0000 ( 14813 PWs)   bands (ev):

   -34.7701 -34.7699 -34.7694 -34.7692 -34.7383 -34.7383 -34.7334 -34.7330
   -34.7235 -34.7233 -34.6642 -34.6583 -34.6480 -34.6197 -34.6188 -27.5446
   -27.5443 -27.5429 -27.5426 -27.5362 -27.5359 -27.5333 -27.5328 -27.5319
   -27.5315 -10.4475  -9.9333  -8.9543  -6.4068  -5.3965  -1.3402  -0.8328
    -0.6050  -0.3839  -0.1234   0.1585   0.7654   1.1381   1.5787

     occupation numbers 
     1.0000   1.0000   1.0000   1.0000   1.0000   1.0000   1.0000   1.0000
     1.0000   1.0000   1.0000   1.0000   1.0000   1.0000   1.0000   1.0000
     1.0000   1.0000   1.0000   1.0000   1.0000   1.0000   1.0000   1.0000
     1.0000   1.0000   1.0000   1.0000   1.0000   1.0000   1.0000   1.0000
     1.0000   1.0000   1.0000   1.0000   1.0000   1.0000   1.0000

          k = 0.0476-0.1424 0.0000 ( 14811 PWs)   bands (ev):

   -34.7701 -34.7699 -34.7696 -34.7694 -34.7383 -34.7382 -34.7334 -34.7330
   -34.7236 -34.7234 -34.6642 -34.6583 -34.6480 -34.6198 -34.6189 -27.5445
   -27.5443 -27.5433 -27.5430 -27.5365 -27.5361 -27.5332 -27.5328 -27.5315
   -27.5312 -10.5644 -10.0392  -9.0137  -6.3728  -5.2083  -0.8918  -0.5458
    -0.3037  -0.1967   0.0154   0.2905   0.7660   1.3530   1.4749

     occupation numbers 
     1.0000   1.0000   1.0000   1.0000   1.0000   1.0000   1.0000   1.0000
     1.0000   1.0000   1.0000   1.0000   1.0000   1.0000   1.0000   1.0000
     1.0000   1.0000   1.0000   1.0000   1.0000   1.0000   1.0000   1.0000
     1.0000   1.0000   1.0000   1.0000   1.0000   1.0000   1.0000   1.0000
     1.0000   1.0000   1.0000   1.0000   1.0000   1.0000   1.0000

          k = 0.0476-0.0858 0.0000 ( 14810 PWs)   bands (ev):

   -34.7701 -34.7699 -34.7697 -34.7695 -34.7383 -34.7382 -34.7333 -34.7329
   -34.7237 -34.7234 -34.6643 -34.6583 -34.6479 -34.6199 -34.6190 -27.5445
   -27.5442 -27.5437 -27.5434 -27.5367 -27.5363 -27.5331 -27.5328 -27.5312
   -27.5309 -10.6434 -10.1114  -9.0562  -6.3569  -5.0810  -0.5059  -0.2786
    -0.0764   0.0419   0.0819   0.4993   0.7789   1.1767   1.5067

     occupation numbers 
     1.0000   1.0000   1.0000   1.0000   1.0000   1.0000   1.0000   1.0000
     1.0000   1.0000   1.0000   1.0000   1.0000   1.0000   1.0000   1.0000
     1.0000   1.0000   1.0000   1.0000   1.0000   1.0000   1.0000   1.0000
     1.0000   1.0000   1.0000   1.0000   1.0000   1.0000   1.0000   1.0000
     1.0000   1.0000   1.0000   1.0000   1.0000   1.0000   1.0000

          k = 0.0476-0.0291 0.0000 ( 14808 PWs)   bands (ev):

   -34.7701 -34.7699 -34.7698 -34.7696 -34.7383 -34.7382 -34.7333 -34.7329
   -34.7237 -34.7235 -34.6643 -34.6583 -34.6479 -34.6199 -34.6190 -27.5444
   -27.5442 -27.5439 -27.5436 -27.5368 -27.5364 -27.5331 -27.5329 -27.5311
   -27.5308 -10.6834 -10.1482  -9.0785  -6.3512  -5.0182  -0.3004  -0.1123
    -0.0227   0.2048   0.2924   0.6316   0.8802   0.9721   1.3590

     occupation numbers 
     1.0000   1.0000   1.0000   1.0000   1.0000   1.0000   1.0000   1.0000
     1.0000   1.0000   1.0000   1.0000   1.0000   1.0000   1.0000   1.0000
     1.0000   1.0000   1.0000   1.0000   1.0000   1.0000   1.0000   1.0000
     1.0000   1.0000   1.0000   1.0000   1.0000   1.0000   1.0000   1.0000
     1.0000   1.0000   1.0000   1.0000   1.0000   1.0000   1.0000

          k = 0.0952 0.0550 0.0000 ( 14801 PWs)   bands (ev):

   -34.7701 -34.7699 -34.7698 -34.7695 -34.7383 -34.7382 -34.7333 -34.7329
   -34.7237 -34.7234 -34.6642 -34.6583 -34.6479 -34.6198 -34.6190 -27.5443
   -27.5440 -27.5439 -27.5436 -27.5367 -27.5364 -27.5333 -27.5329 -27.5311
   -27.5307 -10.6282 -10.0982  -9.0496  -6.3664  -5.1271  -0.7258  -0.4256
    -0.0800  -0.0050   0.2719   0.2891   1.0451   1.1933   1.4992

     occupation numbers 
     1.0000   1.0000   1.0000   1.0000   1.0000   1.0000   1.0000   1.0000
     1.0000   1.0000   1.0000   1.0000   1.0000   1.0000   1.0000   1.0000
     1.0000   1.0000   1.0000   1.0000   1.0000   1.0000   1.0000   1.0000
     1.0000   1.0000   1.0000   1.0000   1.0000   1.0000   1.0000   1.0000
     1.0000   1.0000   1.0000   1.0000   1.0000   1.0000   1.0000

          k = 0.0952 0.1116 0.0000 ( 14828 PWs)   bands (ev):

   -34.7701 -34.7699 -34.7697 -34.7694 -34.7383 -34.7383 -34.7333 -34.7329
   -34.7236 -34.7234 -34.6642 -34.6583 -34.6479 -34.6198 -34.6190 -27.5443
   -27.5440 -27.5436 -27.5433 -27.5367 -27.5363 -27.5334 -27.5329 -27.5313
   -27.5308 -10.5706 -10.0459  -9.0194  -6.3809  -5.2262  -0.9882  -0.5696
    -0.3632  -0.1031   0.1249   0.3050   0.8803   1.4047   1.4643

     occupation numbers 
     1.0000   1.0000   1.0000   1.0000   1.0000   1.0000   1.0000   1.0000
     1.0000   1.0000   1.0000   1.0000   1.0000   1.0000   1.0000   1.0000
     1.0000   1.0000   1.0000   1.0000   1.0000   1.0000   1.0000   1.0000
     1.0000   1.0000   1.0000   1.0000   1.0000   1.0000   1.0000   1.0000
     1.0000   1.0000   1.0000   1.0000   1.0000   1.0000   1.0000

          k = 0.0952 0.1683 0.0000 ( 14795 PWs)   bands (ev):

   -34.7701 -34.7699 -34.7695 -34.7693 -34.7383 -34.7383 -34.7334 -34.7330
   -34.7236 -34.7233 -34.6642 -34.6584 -34.6479 -34.6196 -34.6190 -27.5444
   -27.5441 -27.5432 -27.5430 -27.5365 -27.5361 -27.5335 -27.5329 -27.5315
   -27.5310 -10.4745  -9.9590  -8.9708  -6.4093  -5.3855  -1.2701  -0.9044
    -0.6175  -0.2987   0.0101   0.2818   0.6607   1.3913   1.5947

     occupation numbers 
     1.0000   1.0000   1.0000   1.0000   1.0000   1.0000   1.0000   1.0000
     1.0000   1.0000   1.0000   1.0000   1.0000   1.0000   1.0000   1.0000
     1.0000   1.0000   1.0000   1.0000   1.0000   1.0000   1.0000   1.0000
     1.0000   1.0000   1.0000   1.0000   1.0000   1.0000   1.0000   1.0000
     1.0000   1.0000   1.0000   1.0000   1.0000   1.0000   1.0000

          k = 0.0952 0.2249 0.0000 ( 14785 PWs)   bands (ev):

   -34.7701 -34.7699 -34.7694 -34.7691 -34.7383 -34.7383 -34.7334 -34.7330
   -34.7235 -34.7232 -34.6641 -34.6584 -34.6480 -34.6195 -34.6190 -27.5445
   -27.5442 -27.5428 -27.5425 -27.5363 -27.5359 -27.5336 -27.5329 -27.5318
   -27.5313 -10.3414  -9.8400  -8.9079  -6.4596  -5.5985  -1.5787  -1.2934
    -0.7398  -0.5599  -0.1849   0.1192   0.6340   1.2628   1.6038

     occupation numbers 
     1.0000   1.0000   1.0000   1.0000   1.0000   1.0000   1.0000   1.0000
     1.0000   1.0000   1.0000   1.0000   1.0000   1.0000   1.0000   1.0000
     1.0000   1.0000   1.0000   1.0000   1.0000   1.0000   1.0000   1.0000
     1.0000   1.0000   1.0000   1.0000   1.0000   1.0000   1.0000   1.0000
     1.0000   1.0000   1.0000   1.0000   1.0000   1.0000   1.0000

          k = 0.0952 0.2815 0.0000 ( 14794 PWs)   bands (ev):

   -34.7701 -34.7698 -34.7692 -34.7689 -34.7383 -34.7383 -34.7334 -34.7330
   -34.7234 -34.7231 -34.6640 -34.6584 -34.6480 -34.6193 -34.6189 -27.5446
   -27.5443 -27.5422 -27.5420 -27.5361 -27.5357 -27.5337 -27.5330 -27.5321
   -27.5316 -10.1735  -9.6922  -8.8372  -6.5413  -5.8528  -1.9376  -1.5520
    -0.8832  -0.8024  -0.4592   0.0117   0.6551   1.0220   1.5559

     occupation numbers 
     1.0000   1.0000   1.0000   1.0000   1.0000   1.0000   1.0000   1.0000
     1.0000   1.0000   1.0000   1.0000   1.0000   1.0000   1.0000   1.0000
[...]
     1.0000   1.0000   1.0000   1.0000   1.0000   1.0000   1.0000   1.0000
     1.0000   1.0000   1.0000   1.0000   1.0000   1.0000   1.0000   1.0000
     1.0000   1.0000   1.0000   1.0000   1.0000   1.0000   1.0000

          k = 0.4762 0.3316 0.0000 ( 14780 PWs)   bands (ev):

   -34.7697 -34.7695 -34.7690 -34.7687 -34.7385 -34.7384 -34.7334 -34.7330
   -34.7232 -34.7230 -34.6637 -34.6586 -34.6480 -34.6194 -34.6184 -27.5442
   -27.5439 -27.5420 -27.5416 -27.5365 -27.5361 -27.5342 -27.5336 -27.5315
   -27.5306  -9.0430  -9.0228  -8.9960  -7.3941  -6.8392  -3.0598  -1.6986
    -1.6616  -1.2928  -0.6827  -0.3321   0.5316   0.8108   1.0946

     occupation numbers 
     1.0000   1.0000   1.0000   1.0000   1.0000   1.0000   1.0000   1.0000
     1.0000   1.0000   1.0000   1.0000   1.0000   1.0000   1.0000   1.0000
     1.0000   1.0000   1.0000   1.0000   1.0000   1.0000   1.0000   1.0000
     1.0000   1.0000   1.0000   1.0000   1.0000   1.0000   1.0000   1.0000
     1.0000   1.0000   1.0000   1.0000   1.0000   1.0000   1.0000

          k = 0.4762 0.3882 0.0000 ( 14788 PWs)   bands (ev):

   -34.7697 -34.7694 -34.7690 -34.7688 -34.7385 -34.7384 -34.7334 -34.7330
   -34.7232 -34.7230 -34.6637 -34.6586 -34.6480 -34.6194 -34.6184 -27.5440
   -27.5437 -27.5421 -27.5417 -27.5365 -27.5361 -27.5342 -27.5336 -27.5316
   -27.5307  -9.1042  -8.9863  -8.9084  -7.3833  -6.8877  -3.0091  -1.7875
    -1.7094  -1.3794  -0.7910  -0.3838   0.5257   0.7709   1.2813

     occupation numbers 
     1.0000   1.0000   1.0000   1.0000   1.0000   1.0000   1.0000   1.0000
     1.0000   1.0000   1.0000   1.0000   1.0000   1.0000   1.0000   1.0000
     1.0000   1.0000   1.0000   1.0000   1.0000   1.0000   1.0000   1.0000
     1.0000   1.0000   1.0000   1.0000   1.0000   1.0000   1.0000   1.0000
     1.0000   1.0000   1.0000   1.0000   1.0000   1.0000   1.0000

          k = 0.4762 0.4448 0.0000 ( 14759 PWs)   bands (ev):

   -34.7696 -34.7693 -34.7691 -34.7688 -34.7385 -34.7384 -34.7334 -34.7330
   -34.7232 -34.7229 -34.6637 -34.6586 -34.6480 -34.6193 -34.6185 -27.5436
   -27.5433 -27.5423 -27.5419 -27.5364 -27.5360 -27.5342 -27.5336 -27.5317
   -27.5309  -9.1599  -8.9731  -8.8015  -7.3479  -6.9505  -2.9174  -1.9513
    -1.7808  -1.4324  -0.8388  -0.5547   0.5135   0.8576   1.3942

     occupation numbers 
     1.0000   1.0000   1.0000   1.0000   1.0000   1.0000   1.0000   1.0000
     1.0000   1.0000   1.0000   1.0000   1.0000   1.0000   1.0000   1.0000
     1.0000   1.0000   1.0000   1.0000   1.0000   1.0000   1.0000   1.0000
     1.0000   1.0000   1.0000   1.0000   1.0000   1.0000   1.0000   1.0000
     1.0000   1.0000   1.0000   1.0000   1.0000   1.0000   1.0000

          k = 0.4762 0.5015 0.0000 ( 14759 PWs)   bands (ev):

   -34.7695 -34.7692 -34.7692 -34.7689 -34.7385 -34.7384 -34.7334 -34.7330
   -34.7231 -34.7229 -34.6637 -34.6586 -34.6481 -34.6193 -34.6184 -27.5432
   -27.5429 -27.5425 -27.5422 -27.5363 -27.5359 -27.5342 -27.5337 -27.5318
   -27.5312  -9.1975  -8.9635  -8.7151  -7.2929  -7.0236  -2.7904  -2.1931
    -1.7699  -1.4629  -0.9748  -0.6375   0.5271   0.9797   1.3564

     occupation numbers 
     1.0000   1.0000   1.0000   1.0000   1.0000   1.0000   1.0000   1.0000
     1.0000   1.0000   1.0000   1.0000   1.0000   1.0000   1.0000   1.0000
     1.0000   1.0000   1.0000   1.0000   1.0000   1.0000   1.0000   1.0000
     1.0000   1.0000   1.0000   1.0000   1.0000   1.0000   1.0000   1.0000
     1.0000   1.0000   1.0000   1.0000   1.0000   1.0000   1.0000

          k = 0.4762 0.5581 0.0000 ( 14759 PWs)   bands (ev):

   -34.7694 -34.7692 -34.7692 -34.7690 -34.7384 -34.7384 -34.7335 -34.7331
   -34.7231 -34.7229 -34.6637 -34.6586 -34.6481 -34.6193 -34.6184 -27.5430
   -27.5427 -27.5425 -27.5422 -27.5362 -27.5358 -27.5342 -27.5338 -27.5318
   -27.5314  -9.2141  -8.9551  -8.6628  -7.2285  -7.0965  -2.6302  -2.4294
    -1.7344  -1.4167  -1.2203  -0.5981   0.5458   1.0455   1.2752

     occupation numbers 
     1.0000   1.0000   1.0000   1.0000   1.0000   1.0000   1.0000   1.0000
     1.0000   1.0000   1.0000   1.0000   1.0000   1.0000   1.0000   1.0000
     1.0000   1.0000   1.0000   1.0000   1.0000   1.0000   1.0000   1.0000
     1.0000   1.0000   1.0000   1.0000   1.0000   1.0000   1.0000   1.0000
     1.0000   1.0000   1.0000   1.0000   1.0000   1.0000   1.0000

          k = 0.4762 0.6147 0.0000 ( 14758 PWs)   bands (ev):

   -34.7695 -34.7693 -34.7691 -34.7689 -34.7384 -34.7384 -34.7335 -34.7331
   -34.7231 -34.7229 -34.6637 -34.6585 -34.6481 -34.6194 -34.6182 -27.5433
   -27.5431 -27.5421 -27.5419 -27.5361 -27.5357 -27.5343 -27.5339 -27.5319
   -27.5316  -9.2085  -8.9469  -8.6536  -7.2149  -7.1082  -2.6320  -2.4333
    -1.7422  -1.4248  -1.2284  -0.5949   0.5298   1.0351   1.2605

     occupation numbers 
     1.0000   1.0000   1.0000   1.0000   1.0000   1.0000   1.0000   1.0000
     1.0000   1.0000   1.0000   1.0000   1.0000   1.0000   1.0000   1.0000
     1.0000   1.0000   1.0000   1.0000   1.0000   1.0000   1.0000   1.0000
     1.0000   1.0000   1.0000   1.0000   1.0000   1.0000   1.0000   1.0000
     1.0000   1.0000   1.0000   1.0000   1.0000   1.0000   1.0000

          k = 0.4762 0.6714 0.0000 ( 14777 PWs)   bands (ev):

   -34.7696 -34.7694 -34.7690 -34.7688 -34.7384 -34.7384 -34.7335 -34.7331
   -34.7231 -34.7229 -34.6637 -34.6585 -34.6481 -34.6195 -34.6181 -27.5437
   -27.5435 -27.5417 -27.5415 -27.5359 -27.5355 -27.5343 -27.5339 -27.5319
   -27.5316  -9.1810  -8.9395  -8.6896  -7.2737  -7.0365  -2.7951  -2.2011
    -1.7981  -1.4866  -0.9820  -0.6516   0.4893   0.9557   1.3003

     occupation numbers 
     1.0000   1.0000   1.0000   1.0000   1.0000   1.0000   1.0000   1.0000
     1.0000   1.0000   1.0000   1.0000   1.0000   1.0000   1.0000   1.0000
     1.0000   1.0000   1.0000   1.0000   1.0000   1.0000   1.0000   1.0000
     1.0000   1.0000   1.0000   1.0000   1.0000   1.0000   1.0000   1.0000
     1.0000   1.0000   1.0000   1.0000   1.0000   1.0000   1.0000

          k = 0.4762 0.7280 0.0000 ( 14790 PWs)   bands (ev):

   -34.7697 -34.7695 -34.7689 -34.7687 -34.7384 -34.7384 -34.7335 -34.7331
   -34.7231 -34.7228 -34.6637 -34.6585 -34.6482 -34.6196 -34.6180 -27.5441
   -27.5439 -27.5415 -27.5412 -27.5358 -27.5353 -27.5344 -27.5339 -27.5320
   -27.5315  -9.1332  -8.9353  -8.7642  -7.3277  -6.9591  -2.9223  -1.9493
    -1.8317  -1.4725  -0.8222  -0.6285   0.4699   0.8175   1.2956

     occupation numbers 
     1.0000   1.0000   1.0000   1.0000   1.0000   1.0000   1.0000   1.0000
     1.0000   1.0000   1.0000   1.0000   1.0000   1.0000   1.0000   1.0000
     1.0000   1.0000   1.0000   1.0000   1.0000   1.0000   1.0000   1.0000
     1.0000   1.0000   1.0000   1.0000   1.0000   1.0000   1.0000   1.0000
     1.0000   1.0000   1.0000   1.0000   1.0000   1.0000   1.0000

          k = 0.4762 0.7847 0.0000 ( 14783 PWs)   bands (ev):

   -34.7698 -34.7696 -34.7688 -34.7686 -34.7384 -34.7384 -34.7335 -34.7331
   -34.7231 -34.7228 -34.6637 -34.6585 -34.6482 -34.6197 -34.6179 -27.5444
   -27.5442 -27.5413 -27.5410 -27.5357 -27.5352 -27.5344 -27.5339 -27.5320
   -27.5314  -9.0683  -8.9379  -8.8655  -7.3622  -6.8910  -3.0136  -1.8049
    -1.7162  -1.4496  -0.8434  -0.4384   0.4882   0.6969   1.1637

     occupation numbers 
     1.0000   1.0000   1.0000   1.0000   1.0000   1.0000   1.0000   1.0000
     1.0000   1.0000   1.0000   1.0000   1.0000   1.0000   1.0000   1.0000
     1.0000   1.0000   1.0000   1.0000   1.0000   1.0000   1.0000   1.0000
     1.0000   1.0000   1.0000   1.0000   1.0000   1.0000   1.0000   1.0000
     1.0000   1.0000   1.0000   1.0000   1.0000   1.0000   1.0000

          k = 0.4762 0.8413 0.0000 ( 14800 PWs)   bands (ev):

   -34.7699 -34.7696 -34.7688 -34.7685 -34.7384 -34.7384 -34.7335 -34.7331
   -34.7231 -34.7228 -34.6637 -34.6585 -34.6482 -34.6198 -34.6178 -27.5446
   -27.5444 -27.5412 -27.5409 -27.5357 -27.5351 -27.5345 -27.5339 -27.5320
   -27.5314  -8.9914  -8.9818  -8.9483  -7.3718  -6.8383  -3.0638  -1.7323
    -1.6032  -1.4099  -0.8041  -0.3532   0.5068   0.6848   0.9896

     occupation numbers 
     1.0000   1.0000   1.0000   1.0000   1.0000   1.0000   1.0000   1.0000
     1.0000   1.0000   1.0000   1.0000   1.0000   1.0000   1.0000   1.0000
     1.0000   1.0000   1.0000   1.0000   1.0000   1.0000   1.0000   1.0000
     1.0000   1.0000   1.0000   1.0000   1.0000   1.0000   1.0000   1.0000
     1.0000   1.0000   1.0000   1.0000   1.0000   1.0000   1.0000

          k = 0.4762-0.2914 0.0000 ( 14793 PWs)   bands (ev):

   -34.7699 -34.7696 -34.7688 -34.7685 -34.7384 -34.7384 -34.7335 -34.7331
   -34.7231 -34.7228 -34.6637 -34.6585 -34.6482 -34.6198 -34.6178 -27.5447
   -27.5444 -27.5412 -27.5409 -27.5357 -27.5351 -27.5345 -27.5339 -27.5320
   -27.5313  -9.0972  -8.9713  -8.9080  -7.3540  -6.8042  -3.0677  -1.7312
    -1.5301  -1.3786  -0.7612  -0.3480   0.5079   0.7155   0.9234

     occupation numbers 
     1.0000   1.0000   1.0000   1.0000   1.0000   1.0000   1.0000   1.0000
     1.0000   1.0000   1.0000   1.0000   1.0000   1.0000   1.0000   1.0000
     1.0000   1.0000   1.0000   1.0000   1.0000   1.0000   1.0000   1.0000
     1.0000   1.0000   1.0000   1.0000   1.0000   1.0000   1.0000   1.0000
     1.0000   1.0000   1.0000   1.0000   1.0000   1.0000   1.0000

          k = 0.4762-0.2348 0.0000 ( 14788 PWs)   bands (ev):

   -34.7698 -34.7696 -34.7688 -34.7686 -34.7384 -34.7384 -34.7335 -34.7331
   -34.7231 -34.7228 -34.6637 -34.6585 -34.6482 -34.6198 -34.6178 -27.5446
   -27.5443 -27.5413 -27.5410 -27.5357 -27.5352 -27.5345 -27.5339 -27.5319
   -27.5313  -9.2046  -9.0009  -8.8271  -7.3102  -6.7911  -3.0248  -1.7709
    -1.5173  -1.3966  -0.7730  -0.3526   0.4916   0.7260   1.0077

     occupation numbers 
     1.0000   1.0000   1.0000   1.0000   1.0000   1.0000   1.0000   1.0000
     1.0000   1.0000   1.0000   1.0000   1.0000   1.0000   1.0000   1.0000
     1.0000   1.0000   1.0000   1.0000   1.0000   1.0000   1.0000   1.0000
     1.0000   1.0000   1.0000   1.0000   1.0000   1.0000   1.0000   1.0000
     1.0000   1.0000   1.0000   1.0000   1.0000   1.0000   1.0000

          k = 0.4762-0.1782 0.0000 ( 14790 PWs)   bands (ev):

   -34.7698 -34.7695 -34.7689 -34.7687 -34.7384 -34.7384 -34.7335 -34.7331
   -34.7231 -34.7229 -34.6637 -34.6585 -34.6482 -34.6197 -34.6179 -27.5444
   -27.5441 -27.5414 -27.5411 -27.5358 -27.5353 -27.5345 -27.5340 -27.5319
   -27.5314  -9.2960  -9.0336  -8.7561  -7.2453  -6.8000  -2.9392  -1.7827
    -1.6789  -1.4134  -0.7696  -0.4060   0.4437   0.7701   1.2138

     occupation numbers 
     1.0000   1.0000   1.0000   1.0000   1.0000   1.0000   1.0000   1.0000
     1.0000   1.0000   1.0000   1.0000   1.0000   1.0000   1.0000   1.0000
     1.0000   1.0000   1.0000   1.0000   1.0000   1.0000   1.0000   1.0000
     1.0000   1.0000   1.0000   1.0000   1.0000   1.0000   1.0000   1.0000
     1.0000   1.0000   1.0000   1.0000   1.0000   1.0000   1.0000

          k = 0.4762-0.1215 0.0000 ( 14779 PWs)   bands (ev):

   -34.7697 -34.7695 -34.7690 -34.7688 -34.7384 -34.7384 -34.7335 -34.7331
   -34.7231 -34.7229 -34.6637 -34.6585 -34.6481 -34.6196 -34.6181 -27.5440
   -27.5438 -27.5417 -27.5414 -27.5359 -27.5354 -27.5344 -27.5340 -27.5318
   -27.5314  -9.3662  -9.0639  -8.7024  -7.1683  -6.8303  -2.8149  -1.9674
    -1.6612  -1.4761  -0.7972  -0.5097   0.4806   0.8651   1.3576

     occupation numbers 
     1.0000   1.0000   1.0000   1.0000   1.0000   1.0000   1.0000   1.0000
     1.0000   1.0000   1.0000   1.0000   1.0000   1.0000   1.0000   1.0000
     1.0000   1.0000   1.0000   1.0000   1.0000   1.0000   1.0000   1.0000
     1.0000   1.0000   1.0000   1.0000   1.0000   1.0000   1.0000   1.0000
     1.0000   1.0000   1.0000   1.0000   1.0000   1.0000   1.0000

          k = 0.4762-0.0649 0.0000 ( 14753 PWs)   bands (ev):

   -34.7696 -34.7693 -34.7691 -34.7689 -34.7384 -34.7384 -34.7335 -34.7331
   -34.7231 -34.7229 -34.6637 -34.6585 -34.6481 -34.6196 -34.6182 -27.5437
   -27.5434 -27.5420 -27.5418 -27.5360 -27.5356 -27.5344 -27.5340 -27.5317
   -27.5314  -9.4118  -9.0871  -8.6715  -7.0952  -6.8738  -2.6535  -2.2200
    -1.5599  -1.4702  -0.9977  -0.5234   0.5985   0.9713   1.3316

     occupation numbers 
     1.0000   1.0000   1.0000   1.0000   1.0000   1.0000   1.0000   1.0000
     1.0000   1.0000   1.0000   1.0000   1.0000   1.0000   1.0000   1.0000
     1.0000   1.0000   1.0000   1.0000   1.0000   1.0000   1.0000   1.0000
     1.0000   1.0000   1.0000   1.0000   1.0000   1.0000   1.0000   1.0000
     1.0000   1.0000   1.0000   1.0000   1.0000   1.0000   1.0000

          k = 0.4762-0.0082 0.0000 ( 14746 PWs)   bands (ev):

   -34.7695 -34.7693 -34.7692 -34.7690 -34.7384 -34.7384 -34.7335 -34.7331
   -34.7232 -34.7229 -34.6637 -34.6585 -34.6481 -34.6195 -34.6183 -27.5433
   -27.5431 -27.5424 -27.5421 -27.5362 -27.5358 -27.5343 -27.5339 -27.5317
   -27.5313  -9.4308  -9.1001  -8.6662  -7.0656  -6.8966  -2.4944  -2.4094
    -1.5575  -1.3087  -1.1970  -0.5130   0.6724   1.0501   1.2657

     occupation numbers 
     1.0000   1.0000   1.0000   1.0000   1.0000   1.0000   1.0000   1.0000
     1.0000   1.0000   1.0000   1.0000   1.0000   1.0000   1.0000   1.0000
     1.0000   1.0000   1.0000   1.0000   1.0000   1.0000   1.0000   1.0000
     1.0000   1.0000   1.0000   1.0000   1.0000   1.0000   1.0000   1.0000
     1.0000   1.0000   1.0000   1.0000   1.0000   1.0000   1.0000

          k = 0.4762 0.0484 0.0000 ( 14769 PWs)   bands (ev):

   -34.7694 -34.7693 -34.7692 -34.7691 -34.7384 -34.7384 -34.7334 -34.7330
   -34.7232 -34.7230 -34.6637 -34.6586 -34.6481 -34.6194 -34.6184 -27.5432
   -27.5430 -27.5426 -27.5423 -27.5363 -27.5359 -27.5343 -27.5338 -27.5316
   -27.5311  -9.4223  -9.1015  -8.6868  -7.1142  -6.8657  -2.6594  -2.2041
    -1.5339  -1.4681  -0.9867  -0.5046   0.6177   0.9924   1.3735

     occupation numbers 
     1.0000   1.0000   1.0000   1.0000   1.0000   1.0000   1.0000   1.0000
     1.0000   1.0000   1.0000   1.0000   1.0000   1.0000   1.0000   1.0000
     1.0000   1.0000   1.0000   1.0000   1.0000   1.0000   1.0000   1.0000
     1.0000   1.0000   1.0000   1.0000   1.0000   1.0000   1.0000   1.0000
     1.0000   1.0000   1.0000   1.0000   1.0000   1.0000   1.0000

          k = 0.4762 0.1050 0.0000 ( 14763 PWs)   bands (ev):

   -34.7696 -34.7693 -34.7692 -34.7689 -34.7385 -34.7384 -34.7334 -34.7330
   -34.7232 -34.7230 -34.6637 -34.6586 -34.6480 -34.6194 -34.6185 -27.5436
   -27.5433 -27.5424 -27.5421 -27.5364 -27.5360 -27.5343 -27.5337 -27.5316
   -27.5309  -9.3869  -9.0917  -8.7309  -7.1935  -6.8251  -2.8170  -1.9598
    -1.6349  -1.4254  -0.8103  -0.4425   0.5214   0.8957   1.4457

     occupation numbers 
     1.0000   1.0000   1.0000   1.0000   1.0000   1.0000   1.0000   1.0000
     1.0000   1.0000   1.0000   1.0000   1.0000   1.0000   1.0000   1.0000
     1.0000   1.0000   1.0000   1.0000   1.0000   1.0000   1.0000   1.0000
     1.0000   1.0000   1.0000   1.0000   1.0000   1.0000   1.0000   1.0000
     1.0000   1.0000   1.0000   1.0000   1.0000   1.0000   1.0000

          k = 0.4762 0.1617 0.0000 ( 14755 PWs)   bands (ev):

   -34.7697 -34.7694 -34.7691 -34.7688 -34.7385 -34.7384 -34.7334 -34.7330
   -34.7232 -34.7230 -34.6637 -34.6586 -34.6480 -34.6194 -34.6185 -27.5439
   -27.5437 -27.5422 -27.5418 -27.5365 -27.5361 -27.5342 -27.5336 -27.5315
   -27.5307  -9.3260  -9.0731  -8.7941  -7.2718  -6.7995  -2.9390  -1.8082
    -1.6268  -1.3407  -0.7392  -0.3407   0.4950   0.8226   1.3280

     occupation numbers 
     1.0000   1.0000   1.0000   1.0000   1.0000   1.0000   1.0000   1.0000
     1.0000   1.0000   1.0000   1.0000   1.0000   1.0000   1.0000   1.0000
     1.0000   1.0000   1.0000   1.0000   1.0000   1.0000   1.0000   1.0000
     1.0000   1.0000   1.0000   1.0000   1.0000   1.0000   1.0000   1.0000
     1.0000   1.0000   1.0000   1.0000   1.0000   1.0000   1.0000

          k = 0.4762 0.2183 0.0000 ( 14786 PWs)   bands (ev):

   -34.7697 -34.7695 -34.7690 -34.7688 -34.7385 -34.7384 -34.7334 -34.7330
   -34.7232 -34.7230 -34.6637 -34.6586 -34.6480 -34.6194 -34.6184 -27.5442
   -27.5439 -27.5420 -27.5417 -27.5365 -27.5361 -27.5342 -27.5336 -27.5314
   -27.5305  -9.2427  -9.0494  -8.8701  -7.3358  -6.7938  -3.0230  -1.7773
    -1.5382  -1.2757  -0.6592  -0.3277   0.5275   0.8335   1.1156

     occupation numbers 
     1.0000   1.0000   1.0000   1.0000   1.0000   1.0000   1.0000   1.0000
     1.0000   1.0000   1.0000   1.0000   1.0000   1.0000   1.0000   1.0000
     1.0000   1.0000   1.0000   1.0000   1.0000   1.0000   1.0000   1.0000
     1.0000   1.0000   1.0000   1.0000   1.0000   1.0000   1.0000   1.0000
     1.0000   1.0000   1.0000   1.0000   1.0000   1.0000   1.0000

     highest occupied level (ev):     1.6739

!    total energy              =    -806.51892757 Ry
     estimated scf accuracy    <       0.00000006 Ry

     The total energy is the sum of the following terms:
     one-electron contribution =   -3382.12070010 Ry
     hartree contribution      =    1685.84884230 Ry
     xc contribution           =     -87.13827650 Ry
     ewald contribution        =     976.89120674 Ry

     convergence has been achieved in  13 iterations

     Writing all to output data dir tmp/Sb2Te3-uatsx-c1-3.0.save/ :
     XML data file, charge density, pseudopotentials, collected wavefunctions

     init_run     :      8.64s CPU      5.00s WALL (       1 calls)
     electrons    :    453.17s CPU    232.52s WALL (       1 calls)

     Called by init_run:
     wfcinit      :      7.51s CPU      3.86s WALL (       1 calls)
     wfcinit:wfcr :      6.83s CPU      3.50s WALL (     221 calls)
     potinit      :      0.48s CPU      0.47s WALL (       1 calls)
     hinit0       :      0.55s CPU      0.56s WALL (       1 calls)

     Called by electrons:
     c_bands      :    408.28s CPU    209.33s WALL (      14 calls)
     sum_band     :     44.12s CPU     22.46s WALL (      14 calls)
     v_of_rho     :      0.60s CPU      0.44s WALL (      14 calls)
     v_h          :      0.06s CPU      0.05s WALL (      14 calls)
     v_xc         :      0.54s CPU      0.38s WALL (      14 calls)
     mix_rho      :      0.10s CPU      0.05s WALL (      14 calls)

     Called by c_bands:
     init_us_2    :      4.46s CPU      2.54s WALL (    6409 calls)
     cegterg      :    393.57s CPU    201.27s WALL (    3094 calls)

     Called by sum_band:
     sum_band:wei :      0.00s CPU      0.00s WALL (      14 calls)
     sum_band:loo :     44.08s CPU     22.44s WALL (      14 calls)
     sum_band:buf :      0.55s CPU      0.32s WALL (    3094 calls)
     sum_band:ini :      2.33s CPU      1.19s WALL (    3094 calls)

     Called by *egterg:
     cdiaghg      :     72.19s CPU     39.47s WALL (   19244 calls)
     cegterg:over :     12.46s CPU      7.30s WALL (   16371 calls)
     cegterg:upda :     10.84s CPU      3.57s WALL (   16371 calls)
     cegterg:last :     10.39s CPU      4.66s WALL (    8201 calls)
     h_psi        :    285.23s CPU    143.27s WALL (   19686 calls)
     g_psi        :      0.99s CPU      0.90s WALL (   16371 calls)

     Called by h_psi:
     h_psi:calbec :     21.74s CPU      7.53s WALL (   19686 calls)
     vloc_psi     :    252.15s CPU    130.47s WALL (   19686 calls)
     add_vuspsi   :     10.49s CPU      4.67s WALL (   19686 calls)

     General routines
     calbec       :     21.67s CPU      7.49s WALL (   19686 calls)
     fft          :      1.02s CPU      0.93s WALL (     166 calls)
     ffts         :      0.43s CPU      0.43s WALL (      28 calls)
     fftw         :    243.03s CPU    126.79s WALL (  887226 calls)
     interpolate  :      0.47s CPU      0.46s WALL (      14 calls)

     Parallel routines

     PWSCF        :   7m45.48s CPU   4m11.37s WALL


   This run was terminated on:  16: 9:32  13Aug2025            

=------------------------------------------------------------------------------=
   JOB DONE.
=------------------------------------------------------------------------------=
