
     Program PWSCF v.7.4.1 starts on 23Aug2025 at  2:31:22 

     This program is part of the open-source Quantum ESPRESSO suite
     for quantum simulation of materials; please cite
         "P. Giannozzi et al., J. Phys.:Condens. Matter 21 395502 (2009);
         "P. Giannozzi et al., J. Phys.:Condens. Matter 29 465901 (2017);
         "P. Giannozzi et al., J. Chem. Phys. 152 154105 (2020);
          URL http://www.quantum-espresso.org", 
     in publications or presentations arising from this work. More details at
     http://www.quantum-espresso.org/quote

     Parallel version (MPI & OpenMP), running on      48 processor cores
     Number of MPI processes:                24
     Threads/MPI process:                     2

     MPI processes distributed on     2 nodes
     25113 MiB available memory on the printing compute node when the environment starts

     Waiting for input...
     Reading input from standard input

     Current dimensions of program PWSCF are:
     Max number of different atomic species (ntypx) = 10
     Max number of k-points (npk) =  40000
     Max angular momentum in pseudopotentials (lmaxx) =  4
Error reading attribute index: expected integer, found *
Error reading attribute index: expected integer, found *

     IMPORTANT: XC functional enforced from input :
     Exchange-correlation= PBE
                           (   1   4   3   4   0   0   0)
     Any further DFT definition will be discarded
     Please, verify this is what you really want

     Message from routine setup:
     no reason to have ecutrho>4*ecutwfc

     R & G space division:  proc/nbgrp/npool/nimage =      24
     Subspace diagonalization in iterative solution of the eigenvalue problem:
     a serial algorithm will be used


     Parallelization info
     --------------------
     sticks:   dense  smooth     PW     G-vecs:    dense   smooth      PW
     Min         140      55     16                32920     8311    1324
     Max         141      56     17                32928     8340    1339
     Sum        3363    1343    397               790163   200001   31965

     Using Slab Decomposition



     bravais-lattice index     =            0
     lattice parameter (alat)  =       8.5529  a.u.
     unit-cell volume          =    2526.9262 (a.u.)^3
     number of atoms/cell      =            5
     number of atomic types    =            2
     number of electrons       =        78.00
     number of Kohn-Sham states=           78
     kinetic-energy cutoff     =      70.0000  Ry
     charge density cutoff     =     700.0000  Ry
     scf convergence threshold =      1.0E-07
     mixing beta               =       0.7000
     number of iterations used =            8  plain     mixing
     Exchange-correlation= PBE
                           (   1   4   3   4   0   0   0)
     Non magnetic calculation with spin-orbit


     celldm(1)=   8.552915  celldm(2)=   0.000000  celldm(3)=   0.000000
     celldm(4)=   0.000000  celldm(5)=   0.000000  celldm(6)=   0.000000

     crystal axes: (cart. coord. in units of alat)
               a(1) = (   1.000000   0.000000   0.000000 )  
               a(2) = (  -0.476190   0.824778   0.000000 )  
               a(3) = (   0.000000   0.000000   4.896807 )  

     reciprocal axes: (cart. coord. in units 2 pi/alat)
               b(1) = (  1.000000  0.577356 -0.000000 )  
               b(2) = (  0.000000  1.212447  0.000000 )  
               b(3) = (  0.000000 -0.000000  0.204215 )  


     PseudoPot. # 1 for Sb read from file:
     /zfs-home/202401017n1/pseudos/Sb_ONCV_PBE_FR-1.1.upf
     MD5 check sum: 7dc1726f2158e3c51e4807d42b9c5c65
     Pseudo is Norm-conserving, Zval = 15.0
     Generated using ONCVPSP code by D. R. Hamann
     Using radial grid of  602 points, 10 beta functions with: 
                l(1) =   0
                l(2) =   0
                l(3) =   1
                l(4) =   1
                l(5) =   1
                l(6) =   1
                l(7) =   2
                l(8) =   2
                l(9) =   2
               l(10) =   2

     PseudoPot. # 2 for Te read from file:
     /zfs-home/202401017n1/pseudos/Te_ONCV_PBE_FR-1.1.upf
     MD5 check sum: c6e17480449037a9a9d16e6377b5c7c4
     Pseudo is Norm-conserving, Zval = 16.0
     Generated using ONCVPSP code by D. R. Hamann
     Using radial grid of  602 points, 10 beta functions with: 
                l(1) =   0
                l(2) =   0
                l(3) =   1
                l(4) =   1
                l(5) =   1
                l(6) =   1
                l(7) =   2
                l(8) =   2
                l(9) =   2
               l(10) =   2

     atomic species   valence    mass     pseudopotential
     Sb               15.00   121.76000     Sb( 1.00)
     Te               16.00   127.60000     Te( 1.00)

     No symmetry found


                                    s                        frac. trans.

      isym =  1     identity                                     

 cryst.   s( 1) = (     1          0          0      )
                  (     0          1          0      )
                  (     0          0          1      )

 cart.    s( 1) = (  1.0000000  0.0000000  0.0000000 )
                  (  0.0000000  1.0000000  0.0000000 )
                  (  0.0000000  0.0000000  1.0000000 )


   Cartesian axes

     site n.     atom                  positions (alat units)
         1        Sb     tau(   1) = (   0.5941563   0.4140600   2.8819763  )
         2        Te     tau(   2) = (   0.5757813   0.3831770   1.6487259  )
         3        Sb     tau(   3) = (   0.0713597   0.1150985   2.0147862  )
         4        Te     tau(   4) = (   0.0896521   0.1461334   3.2480478  )
         5        Te     tau(   5) = (   0.0946223   0.6770376   2.4483865  )

     -------------------------------------------------
     Parameters for Dispersion (Grimme-D2) Correction:
     -------------------------------------------------
       atom      VdW radius       C_6     

        Sb         3.555       1333.532
        Te         3.575       1101.101

   Crystallographic axes

     site n.     atom                  positions (cryst. coord.)
         1        Sb     tau(   1) = (  0.8332162  0.5020259  0.5885420  )
         2        Te     tau(   2) = (  0.7970108  0.4645820  0.3366941  )
         3        Sb     tau(   3) = (  0.1378125  0.1395508  0.4114490  )
         4        Te     tau(   4) = (  0.1740231  0.1771791  0.6632992  )
         5        Te     tau(   5) = (  0.4855140  0.8208724  0.4999966  )

     number of k points=   221
                       cart. coord. in units 2pi/alat
        k(    1) = (   0.0000000   0.0000000   0.0000000), wk =   0.0022676
        k(    2) = (   0.0000000   0.0577356   0.0000000), wk =   0.0045351
        k(    3) = (   0.0000000   0.1154712   0.0000000), wk =   0.0045351
        k(    4) = (   0.0000000   0.1732068   0.0000000), wk =   0.0045351
        k(    5) = (   0.0000000   0.2309423   0.0000000), wk =   0.0045351
        k(    6) = (   0.0000000   0.2886779   0.0000000), wk =   0.0045351
        k(    7) = (   0.0000000   0.3464135   0.0000000), wk =   0.0045351
        k(    8) = (   0.0000000   0.4041491   0.0000000), wk =   0.0045351
        k(    9) = (   0.0000000   0.4618847   0.0000000), wk =   0.0045351
        k(   10) = (   0.0000000   0.5196203   0.0000000), wk =   0.0045351
        k(   11) = (   0.0000000   0.5773559   0.0000000), wk =   0.0045351
        k(   12) = (   0.0476190   0.0274931   0.0000000), wk =   0.0045351
        k(   13) = (   0.0476190   0.0852287   0.0000000), wk =   0.0045351
        k(   14) = (   0.0476190   0.1429643   0.0000000), wk =   0.0045351
        k(   15) = (   0.0476190   0.2006999   0.0000000), wk =   0.0045351
        k(   16) = (   0.0476190   0.2584355   0.0000000), wk =   0.0045351
        k(   17) = (   0.0476190   0.3161711   0.0000000), wk =   0.0045351
        k(   18) = (   0.0476190   0.3739066   0.0000000), wk =   0.0045351
        k(   19) = (   0.0476190   0.4316422   0.0000000), wk =   0.0045351
        k(   20) = (   0.0476190   0.4893778   0.0000000), wk =   0.0045351
        k(   21) = (   0.0476190   0.5471134   0.0000000), wk =   0.0045351
        k(   22) = (   0.0476190   0.6048490   0.0000000), wk =   0.0045351
        k(   23) = (   0.0476190  -0.5498627   0.0000000), wk =   0.0045351
        k(   24) = (   0.0476190  -0.4921271   0.0000000), wk =   0.0045351
        k(   25) = (   0.0476190  -0.4343915   0.0000000), wk =   0.0045351
        k(   26) = (   0.0476190  -0.3766560   0.0000000), wk =   0.0045351
        k(   27) = (   0.0476190  -0.3189204   0.0000000), wk =   0.0045351
        k(   28) = (   0.0476190  -0.2611848   0.0000000), wk =   0.0045351
        k(   29) = (   0.0476190  -0.2034492   0.0000000), wk =   0.0045351
        k(   30) = (   0.0476190  -0.1457136   0.0000000), wk =   0.0045351
        k(   31) = (   0.0476190  -0.0879780   0.0000000), wk =   0.0045351
        k(   32) = (   0.0476190  -0.0302424   0.0000000), wk =   0.0045351
        k(   33) = (   0.0952381   0.0549863   0.0000000), wk =   0.0045351
        k(   34) = (   0.0952381   0.1127219   0.0000000), wk =   0.0045351
        k(   35) = (   0.0952381   0.1704574   0.0000000), wk =   0.0045351
        k(   36) = (   0.0952381   0.2281930   0.0000000), wk =   0.0045351
        k(   37) = (   0.0952381   0.2859286   0.0000000), wk =   0.0045351
        k(   38) = (   0.0952381   0.3436642   0.0000000), wk =   0.0045351
        k(   39) = (   0.0952381   0.4013998   0.0000000), wk =   0.0045351
        k(   40) = (   0.0952381   0.4591354   0.0000000), wk =   0.0045351
        k(   41) = (   0.0952381   0.5168710   0.0000000), wk =   0.0045351
        k(   42) = (   0.0952381   0.5746065   0.0000000), wk =   0.0045351
        k(   43) = (   0.0952381   0.6323421   0.0000000), wk =   0.0045351
        k(   44) = (   0.0952381  -0.5223696   0.0000000), wk =   0.0045351
        k(   45) = (   0.0952381  -0.4646340   0.0000000), wk =   0.0045351
        k(   46) = (   0.0952381  -0.4068984   0.0000000), wk =   0.0045351
        k(   47) = (   0.0952381  -0.3491628   0.0000000), wk =   0.0045351
        k(   48) = (   0.0952381  -0.2914272   0.0000000), wk =   0.0045351
        k(   49) = (   0.0952381  -0.2336917   0.0000000), wk =   0.0045351
        k(   50) = (   0.0952381  -0.1759561   0.0000000), wk =   0.0045351
        k(   51) = (   0.0952381  -0.1182205   0.0000000), wk =   0.0045351
        k(   52) = (   0.0952381  -0.0604849   0.0000000), wk =   0.0045351
        k(   53) = (   0.0952381  -0.0027493   0.0000000), wk =   0.0045351
        k(   54) = (   0.1428571   0.0824794   0.0000000), wk =   0.0045351
        k(   55) = (   0.1428571   0.1402150   0.0000000), wk =   0.0045351
        k(   56) = (   0.1428571   0.1979506   0.0000000), wk =   0.0045351
        k(   57) = (   0.1428571   0.2556862   0.0000000), wk =   0.0045351
        k(   58) = (   0.1428571   0.3134217   0.0000000), wk =   0.0045351
        k(   59) = (   0.1428571   0.3711573   0.0000000), wk =   0.0045351
        k(   60) = (   0.1428571   0.4288929   0.0000000), wk =   0.0045351
        k(   61) = (   0.1428571   0.4866285   0.0000000), wk =   0.0045351
        k(   62) = (   0.1428571   0.5443641   0.0000000), wk =   0.0045351
        k(   63) = (   0.1428571   0.6020997   0.0000000), wk =   0.0045351
        k(   64) = (   0.1428571   0.6598353   0.0000000), wk =   0.0045351
        k(   65) = (   0.1428571  -0.4948764   0.0000000), wk =   0.0045351
        k(   66) = (   0.1428571  -0.4371409   0.0000000), wk =   0.0045351
        k(   67) = (   0.1428571  -0.3794053   0.0000000), wk =   0.0045351
        k(   68) = (   0.1428571  -0.3216697   0.0000000), wk =   0.0045351
        k(   69) = (   0.1428571  -0.2639341   0.0000000), wk =   0.0045351
        k(   70) = (   0.1428571  -0.2061985   0.0000000), wk =   0.0045351
        k(   71) = (   0.1428571  -0.1484629   0.0000000), wk =   0.0045351
        k(   72) = (   0.1428571  -0.0907273   0.0000000), wk =   0.0045351
        k(   73) = (   0.1428571  -0.0329918   0.0000000), wk =   0.0045351
        k(   74) = (   0.1428571   0.0247438   0.0000000), wk =   0.0045351
        k(   75) = (   0.1904762   0.1099725   0.0000000), wk =   0.0045351
        k(   76) = (   0.1904762   0.1677081   0.0000000), wk =   0.0045351
        k(   77) = (   0.1904762   0.2254437   0.0000000), wk =   0.0045351
        k(   78) = (   0.1904762   0.2831793   0.0000000), wk =   0.0045351
        k(   79) = (   0.1904762   0.3409149   0.0000000), wk =   0.0045351
        k(   80) = (   0.1904762   0.3986505   0.0000000), wk =   0.0045351
        k(   81) = (   0.1904762   0.4563861   0.0000000), wk =   0.0045351
        k(   82) = (   0.1904762   0.5141216   0.0000000), wk =   0.0045351
        k(   83) = (   0.1904762   0.5718572   0.0000000), wk =   0.0045351
        k(   84) = (   0.1904762   0.6295928   0.0000000), wk =   0.0045351
        k(   85) = (   0.1904762   0.6873284   0.0000000), wk =   0.0045351
        k(   86) = (   0.1904762  -0.4673833   0.0000000), wk =   0.0045351
        k(   87) = (   0.1904762  -0.4096477   0.0000000), wk =   0.0045351
        k(   88) = (   0.1904762  -0.3519121   0.0000000), wk =   0.0045351
        k(   89) = (   0.1904762  -0.2941766   0.0000000), wk =   0.0045351
        k(   90) = (   0.1904762  -0.2364410   0.0000000), wk =   0.0045351
        k(   91) = (   0.1904762  -0.1787054   0.0000000), wk =   0.0045351
        k(   92) = (   0.1904762  -0.1209698   0.0000000), wk =   0.0045351
        k(   93) = (   0.1904762  -0.0632342   0.0000000), wk =   0.0045351
        k(   94) = (   0.1904762  -0.0054986   0.0000000), wk =   0.0045351
        k(   95) = (   0.1904762   0.0522370   0.0000000), wk =   0.0045351
        k(   96) = (   0.2380952   0.1374657   0.0000000), wk =   0.0045351
        k(   97) = (   0.2380952   0.1952013   0.0000000), wk =   0.0045351
        k(   98) = (   0.2380952   0.2529369   0.0000000), wk =   0.0045351
        k(   99) = (   0.2380952   0.3106724   0.0000000), wk =   0.0045351
        k(  100) = (   0.2380952   0.3684080   0.0000000), wk =   0.0045351
        k(  101) = (   0.2380952   0.4261436   0.0000000), wk =   0.0045351
        k(  102) = (   0.2380952   0.4838792   0.0000000), wk =   0.0045351
        k(  103) = (   0.2380952   0.5416148   0.0000000), wk =   0.0045351
        k(  104) = (   0.2380952   0.5993504   0.0000000), wk =   0.0045351
        k(  105) = (   0.2380952   0.6570859   0.0000000), wk =   0.0045351
        k(  106) = (   0.2380952   0.7148215   0.0000000), wk =   0.0045351
        k(  107) = (   0.2380952  -0.4398902   0.0000000), wk =   0.0045351
        k(  108) = (   0.2380952  -0.3821546   0.0000000), wk =   0.0045351
        k(  109) = (   0.2380952  -0.3244190   0.0000000), wk =   0.0045351
        k(  110) = (   0.2380952  -0.2666834   0.0000000), wk =   0.0045351
        k(  111) = (   0.2380952  -0.2089478   0.0000000), wk =   0.0045351
        k(  112) = (   0.2380952  -0.1512122   0.0000000), wk =   0.0045351
        k(  113) = (   0.2380952  -0.0934767   0.0000000), wk =   0.0045351
        k(  114) = (   0.2380952  -0.0357411   0.0000000), wk =   0.0045351
        k(  115) = (   0.2380952   0.0219945   0.0000000), wk =   0.0045351
        k(  116) = (   0.2380952   0.0797301   0.0000000), wk =   0.0045351
        k(  117) = (   0.2857143   0.1649588   0.0000000), wk =   0.0045351
        k(  118) = (   0.2857143   0.2226944   0.0000000), wk =   0.0045351
        k(  119) = (   0.2857143   0.2804300   0.0000000), wk =   0.0045351
        k(  120) = (   0.2857143   0.3381656   0.0000000), wk =   0.0045351
        k(  121) = (   0.2857143   0.3959012   0.0000000), wk =   0.0045351
        k(  122) = (   0.2857143   0.4536367   0.0000000), wk =   0.0045351
        k(  123) = (   0.2857143   0.5113723   0.0000000), wk =   0.0045351
        k(  124) = (   0.2857143   0.5691079   0.0000000), wk =   0.0045351
        k(  125) = (   0.2857143   0.6268435   0.0000000), wk =   0.0045351
        k(  126) = (   0.2857143   0.6845791   0.0000000), wk =   0.0045351
        k(  127) = (   0.2857143   0.7423147   0.0000000), wk =   0.0045351
        k(  128) = (   0.2857143  -0.4123970   0.0000000), wk =   0.0045351
        k(  129) = (   0.2857143  -0.3546615   0.0000000), wk =   0.0045351
        k(  130) = (   0.2857143  -0.2969259   0.0000000), wk =   0.0045351
        k(  131) = (   0.2857143  -0.2391903   0.0000000), wk =   0.0045351
        k(  132) = (   0.2857143  -0.1814547   0.0000000), wk =   0.0045351
        k(  133) = (   0.2857143  -0.1237191   0.0000000), wk =   0.0045351
        k(  134) = (   0.2857143  -0.0659835   0.0000000), wk =   0.0045351
        k(  135) = (   0.2857143  -0.0082479   0.0000000), wk =   0.0045351
        k(  136) = (   0.2857143   0.0494876   0.0000000), wk =   0.0045351
        k(  137) = (   0.2857143   0.1072232   0.0000000), wk =   0.0045351
        k(  138) = (   0.3333333   0.1924520   0.0000000), wk =   0.0045351
        k(  139) = (   0.3333333   0.2501875   0.0000000), wk =   0.0045351
        k(  140) = (   0.3333333   0.3079231   0.0000000), wk =   0.0045351
        k(  141) = (   0.3333333   0.3656587   0.0000000), wk =   0.0045351
        k(  142) = (   0.3333333   0.4233943   0.0000000), wk =   0.0045351
        k(  143) = (   0.3333333   0.4811299   0.0000000), wk =   0.0045351
        k(  144) = (   0.3333333   0.5388655   0.0000000), wk =   0.0045351
        k(  145) = (   0.3333333   0.5966010   0.0000000), wk =   0.0045351
        k(  146) = (   0.3333333   0.6543366   0.0000000), wk =   0.0045351
        k(  147) = (   0.3333333   0.7120722   0.0000000), wk =   0.0045351
        k(  148) = (   0.3333333   0.7698078   0.0000000), wk =   0.0045351
        k(  149) = (   0.3333333  -0.3849039   0.0000000), wk =   0.0045351
        k(  150) = (   0.3333333  -0.3271683   0.0000000), wk =   0.0045351
        k(  151) = (   0.3333333  -0.2694327   0.0000000), wk =   0.0045351
        k(  152) = (   0.3333333  -0.2116971   0.0000000), wk =   0.0045351
        k(  153) = (   0.3333333  -0.1539616   0.0000000), wk =   0.0045351
        k(  154) = (   0.3333333  -0.0962260   0.0000000), wk =   0.0045351
        k(  155) = (   0.3333333  -0.0384904   0.0000000), wk =   0.0045351
        k(  156) = (   0.3333333   0.0192452   0.0000000), wk =   0.0045351
        k(  157) = (   0.3333333   0.0769808   0.0000000), wk =   0.0045351
        k(  158) = (   0.3333333   0.1347164   0.0000000), wk =   0.0045351
        k(  159) = (   0.3809524   0.2199451   0.0000000), wk =   0.0045351
        k(  160) = (   0.3809524   0.2776807   0.0000000), wk =   0.0045351
        k(  161) = (   0.3809524   0.3354163   0.0000000), wk =   0.0045351
        k(  162) = (   0.3809524   0.3931518   0.0000000), wk =   0.0045351
        k(  163) = (   0.3809524   0.4508874   0.0000000), wk =   0.0045351
        k(  164) = (   0.3809524   0.5086230   0.0000000), wk =   0.0045351
        k(  165) = (   0.3809524   0.5663586   0.0000000), wk =   0.0045351
        k(  166) = (   0.3809524   0.6240942   0.0000000), wk =   0.0045351
        k(  167) = (   0.3809524   0.6818298   0.0000000), wk =   0.0045351
        k(  168) = (   0.3809524   0.7395654   0.0000000), wk =   0.0045351
        k(  169) = (   0.3809524   0.7973009   0.0000000), wk =   0.0045351
        k(  170) = (   0.3809524  -0.3574108   0.0000000), wk =   0.0045351
        k(  171) = (   0.3809524  -0.2996752   0.0000000), wk =   0.0045351
        k(  172) = (   0.3809524  -0.2419396   0.0000000), wk =   0.0045351
        k(  173) = (   0.3809524  -0.1842040   0.0000000), wk =   0.0045351
        k(  174) = (   0.3809524  -0.1264684   0.0000000), wk =   0.0045351
        k(  175) = (   0.3809524  -0.0687328   0.0000000), wk =   0.0045351
        k(  176) = (   0.3809524  -0.0109973   0.0000000), wk =   0.0045351
        k(  177) = (   0.3809524   0.0467383   0.0000000), wk =   0.0045351
        k(  178) = (   0.3809524   0.1044739   0.0000000), wk =   0.0045351
        k(  179) = (   0.3809524   0.1622095   0.0000000), wk =   0.0045351
        k(  180) = (   0.4285714   0.2474382   0.0000000), wk =   0.0045351
        k(  181) = (   0.4285714   0.3051738   0.0000000), wk =   0.0045351
        k(  182) = (   0.4285714   0.3629094   0.0000000), wk =   0.0045351
        k(  183) = (   0.4285714   0.4206450   0.0000000), wk =   0.0045351
        k(  184) = (   0.4285714   0.4783806   0.0000000), wk =   0.0045351
        k(  185) = (   0.4285714   0.5361161   0.0000000), wk =   0.0045351
        k(  186) = (   0.4285714   0.5938517   0.0000000), wk =   0.0045351
        k(  187) = (   0.4285714   0.6515873   0.0000000), wk =   0.0045351
        k(  188) = (   0.4285714   0.7093229   0.0000000), wk =   0.0045351
        k(  189) = (   0.4285714   0.7670585   0.0000000), wk =   0.0045351
        k(  190) = (   0.4285714   0.8247941   0.0000000), wk =   0.0045351
        k(  191) = (   0.4285714  -0.3299176   0.0000000), wk =   0.0045351
        k(  192) = (   0.4285714  -0.2721820   0.0000000), wk =   0.0045351
        k(  193) = (   0.4285714  -0.2144465   0.0000000), wk =   0.0045351
        k(  194) = (   0.4285714  -0.1567109   0.0000000), wk =   0.0045351
        k(  195) = (   0.4285714  -0.0989753   0.0000000), wk =   0.0045351
        k(  196) = (   0.4285714  -0.0412397   0.0000000), wk =   0.0045351
        k(  197) = (   0.4285714   0.0164959   0.0000000), wk =   0.0045351
        k(  198) = (   0.4285714   0.0742315   0.0000000), wk =   0.0045351
        k(  199) = (   0.4285714   0.1319671   0.0000000), wk =   0.0045351
        k(  200) = (   0.4285714   0.1897026   0.0000000), wk =   0.0045351
        k(  201) = (   0.4761905   0.2749314   0.0000000), wk =   0.0045351
        k(  202) = (   0.4761905   0.3326669   0.0000000), wk =   0.0045351
        k(  203) = (   0.4761905   0.3904025   0.0000000), wk =   0.0045351
        k(  204) = (   0.4761905   0.4481381   0.0000000), wk =   0.0045351
        k(  205) = (   0.4761905   0.5058737   0.0000000), wk =   0.0045351
        k(  206) = (   0.4761905   0.5636093   0.0000000), wk =   0.0045351
        k(  207) = (   0.4761905   0.6213449   0.0000000), wk =   0.0045351
        k(  208) = (   0.4761905   0.6790805   0.0000000), wk =   0.0045351
        k(  209) = (   0.4761905   0.7368160   0.0000000), wk =   0.0045351
        k(  210) = (   0.4761905   0.7945516   0.0000000), wk =   0.0045351
        k(  211) = (   0.4761905   0.8522872   0.0000000), wk =   0.0045351
        k(  212) = (   0.4761905  -0.3024245   0.0000000), wk =   0.0045351
        k(  213) = (   0.4761905  -0.2446889   0.0000000), wk =   0.0045351
        k(  214) = (   0.4761905  -0.1869533   0.0000000), wk =   0.0045351
        k(  215) = (   0.4761905  -0.1292177   0.0000000), wk =   0.0045351
        k(  216) = (   0.4761905  -0.0714822   0.0000000), wk =   0.0045351
        k(  217) = (   0.4761905  -0.0137466   0.0000000), wk =   0.0045351
        k(  218) = (   0.4761905   0.0439890   0.0000000), wk =   0.0045351
        k(  219) = (   0.4761905   0.1017246   0.0000000), wk =   0.0045351
        k(  220) = (   0.4761905   0.1594602   0.0000000), wk =   0.0045351
        k(  221) = (   0.4761905   0.2171958   0.0000000), wk =   0.0045351

                       cryst. coord.
        k(    1) = (   0.0000000   0.0000000   0.0000000), wk =   0.0022676
        k(    2) = (   0.0000000   0.0476190   0.0000000), wk =   0.0045351
        k(    3) = (   0.0000000   0.0952381   0.0000000), wk =   0.0045351
        k(    4) = (   0.0000000   0.1428571   0.0000000), wk =   0.0045351
        k(    5) = (   0.0000000   0.1904762   0.0000000), wk =   0.0045351
        k(    6) = (   0.0000000   0.2380952   0.0000000), wk =   0.0045351
        k(    7) = (   0.0000000   0.2857143   0.0000000), wk =   0.0045351
        k(    8) = (   0.0000000   0.3333333   0.0000000), wk =   0.0045351
        k(    9) = (   0.0000000   0.3809524   0.0000000), wk =   0.0045351
        k(   10) = (   0.0000000   0.4285714   0.0000000), wk =   0.0045351
        k(   11) = (   0.0000000   0.4761905   0.0000000), wk =   0.0045351
        k(   12) = (   0.0476190   0.0000000   0.0000000), wk =   0.0045351
        k(   13) = (   0.0476190   0.0476190   0.0000000), wk =   0.0045351
        k(   14) = (   0.0476190   0.0952381   0.0000000), wk =   0.0045351
        k(   15) = (   0.0476190   0.1428571   0.0000000), wk =   0.0045351
        k(   16) = (   0.0476190   0.1904762   0.0000000), wk =   0.0045351
        k(   17) = (   0.0476190   0.2380952   0.0000000), wk =   0.0045351
        k(   18) = (   0.0476190   0.2857143   0.0000000), wk =   0.0045351
        k(   19) = (   0.0476190   0.3333333   0.0000000), wk =   0.0045351
        k(   20) = (   0.0476190   0.3809524   0.0000000), wk =   0.0045351
        k(   21) = (   0.0476190   0.4285714   0.0000000), wk =   0.0045351
        k(   22) = (   0.0476190   0.4761905   0.0000000), wk =   0.0045351
        k(   23) = (   0.0476190  -0.4761905   0.0000000), wk =   0.0045351
        k(   24) = (   0.0476190  -0.4285714   0.0000000), wk =   0.0045351
        k(   25) = (   0.0476190  -0.3809524   0.0000000), wk =   0.0045351
        k(   26) = (   0.0476190  -0.3333333   0.0000000), wk =   0.0045351
        k(   27) = (   0.0476190  -0.2857143   0.0000000), wk =   0.0045351
        k(   28) = (   0.0476190  -0.2380952   0.0000000), wk =   0.0045351
        k(   29) = (   0.0476190  -0.1904762   0.0000000), wk =   0.0045351
        k(   30) = (   0.0476190  -0.1428571   0.0000000), wk =   0.0045351
        k(   31) = (   0.0476190  -0.0952381   0.0000000), wk =   0.0045351
        k(   32) = (   0.0476190  -0.0476190   0.0000000), wk =   0.0045351
        k(   33) = (   0.0952381   0.0000000   0.0000000), wk =   0.0045351
        k(   34) = (   0.0952381   0.0476190   0.0000000), wk =   0.0045351
        k(   35) = (   0.0952381   0.0952381   0.0000000), wk =   0.0045351
        k(   36) = (   0.0952381   0.1428571   0.0000000), wk =   0.0045351
        k(   37) = (   0.0952381   0.1904762   0.0000000), wk =   0.0045351
        k(   38) = (   0.0952381   0.2380952   0.0000000), wk =   0.0045351
        k(   39) = (   0.0952381   0.2857143   0.0000000), wk =   0.0045351
        k(   40) = (   0.0952381   0.3333333   0.0000000), wk =   0.0045351
        k(   41) = (   0.0952381   0.3809524   0.0000000), wk =   0.0045351
        k(   42) = (   0.0952381   0.4285714   0.0000000), wk =   0.0045351
        k(   43) = (   0.0952381   0.4761905   0.0000000), wk =   0.0045351
        k(   44) = (   0.0952381  -0.4761905   0.0000000), wk =   0.0045351
        k(   45) = (   0.0952381  -0.4285714   0.0000000), wk =   0.0045351
        k(   46) = (   0.0952381  -0.3809524   0.0000000), wk =   0.0045351
        k(   47) = (   0.0952381  -0.3333333   0.0000000), wk =   0.0045351
        k(   48) = (   0.0952381  -0.2857143   0.0000000), wk =   0.0045351
        k(   49) = (   0.0952381  -0.2380952   0.0000000), wk =   0.0045351
        k(   50) = (   0.0952381  -0.1904762   0.0000000), wk =   0.0045351
        k(   51) = (   0.0952381  -0.1428571   0.0000000), wk =   0.0045351
        k(   52) = (   0.0952381  -0.0952381   0.0000000), wk =   0.0045351
        k(   53) = (   0.0952381  -0.0476190   0.0000000), wk =   0.0045351
        k(   54) = (   0.1428571   0.0000000   0.0000000), wk =   0.0045351
        k(   55) = (   0.1428571   0.0476190   0.0000000), wk =   0.0045351
        k(   56) = (   0.1428571   0.0952381   0.0000000), wk =   0.0045351
        k(   57) = (   0.1428571   0.1428571   0.0000000), wk =   0.0045351
        k(   58) = (   0.1428571   0.1904762   0.0000000), wk =   0.0045351
        k(   59) = (   0.1428571   0.2380952   0.0000000), wk =   0.0045351
        k(   60) = (   0.1428571   0.2857143   0.0000000), wk =   0.0045351
        k(   61) = (   0.1428571   0.3333333   0.0000000), wk =   0.0045351
        k(   62) = (   0.1428571   0.3809524   0.0000000), wk =   0.0045351
        k(   63) = (   0.1428571   0.4285714   0.0000000), wk =   0.0045351
        k(   64) = (   0.1428571   0.4761905   0.0000000), wk =   0.0045351
        k(   65) = (   0.1428571  -0.4761905   0.0000000), wk =   0.0045351
        k(   66) = (   0.1428571  -0.4285714   0.0000000), wk =   0.0045351
        k(   67) = (   0.1428571  -0.3809524   0.0000000), wk =   0.0045351
        k(   68) = (   0.1428571  -0.3333333   0.0000000), wk =   0.0045351
        k(   69) = (   0.1428571  -0.2857143   0.0000000), wk =   0.0045351
        k(   70) = (   0.1428571  -0.2380952   0.0000000), wk =   0.0045351
        k(   71) = (   0.1428571  -0.1904762   0.0000000), wk =   0.0045351
        k(   72) = (   0.1428571  -0.1428571   0.0000000), wk =   0.0045351
        k(   73) = (   0.1428571  -0.0952381   0.0000000), wk =   0.0045351
        k(   74) = (   0.1428571  -0.0476190   0.0000000), wk =   0.0045351
        k(   75) = (   0.1904762   0.0000000   0.0000000), wk =   0.0045351
        k(   76) = (   0.1904762   0.0476190   0.0000000), wk =   0.0045351
        k(   77) = (   0.1904762   0.0952381   0.0000000), wk =   0.0045351
        k(   78) = (   0.1904762   0.1428571   0.0000000), wk =   0.0045351
        k(   79) = (   0.1904762   0.1904762   0.0000000), wk =   0.0045351
        k(   80) = (   0.1904762   0.2380952   0.0000000), wk =   0.0045351
        k(   81) = (   0.1904762   0.2857143   0.0000000), wk =   0.0045351
        k(   82) = (   0.1904762   0.3333333   0.0000000), wk =   0.0045351
        k(   83) = (   0.1904762   0.3809524   0.0000000), wk =   0.0045351
        k(   84) = (   0.1904762   0.4285714   0.0000000), wk =   0.0045351
        k(   85) = (   0.1904762   0.4761905   0.0000000), wk =   0.0045351
        k(   86) = (   0.1904762  -0.4761905   0.0000000), wk =   0.0045351
        k(   87) = (   0.1904762  -0.4285714   0.0000000), wk =   0.0045351
        k(   88) = (   0.1904762  -0.3809524   0.0000000), wk =   0.0045351
        k(   89) = (   0.1904762  -0.3333333   0.0000000), wk =   0.0045351
        k(   90) = (   0.1904762  -0.2857143   0.0000000), wk =   0.0045351
        k(   91) = (   0.1904762  -0.2380952   0.0000000), wk =   0.0045351
        k(   92) = (   0.1904762  -0.1904762   0.0000000), wk =   0.0045351
        k(   93) = (   0.1904762  -0.1428571   0.0000000), wk =   0.0045351
        k(   94) = (   0.1904762  -0.0952381   0.0000000), wk =   0.0045351
        k(   95) = (   0.1904762  -0.0476190   0.0000000), wk =   0.0045351
        k(   96) = (   0.2380952   0.0000000   0.0000000), wk =   0.0045351
        k(   97) = (   0.2380952   0.0476190   0.0000000), wk =   0.0045351
        k(   98) = (   0.2380952   0.0952381   0.0000000), wk =   0.0045351
        k(   99) = (   0.2380952   0.1428571   0.0000000), wk =   0.0045351
        k(  100) = (   0.2380952   0.1904762   0.0000000), wk =   0.0045351
        k(  101) = (   0.2380952   0.2380952   0.0000000), wk =   0.0045351
        k(  102) = (   0.2380952   0.2857143   0.0000000), wk =   0.0045351
        k(  103) = (   0.2380952   0.3333333   0.0000000), wk =   0.0045351
        k(  104) = (   0.2380952   0.3809524   0.0000000), wk =   0.0045351
        k(  105) = (   0.2380952   0.4285714   0.0000000), wk =   0.0045351
        k(  106) = (   0.2380952   0.4761905   0.0000000), wk =   0.0045351
        k(  107) = (   0.2380952  -0.4761905   0.0000000), wk =   0.0045351
        k(  108) = (   0.2380952  -0.4285714   0.0000000), wk =   0.0045351
        k(  109) = (   0.2380952  -0.3809524   0.0000000), wk =   0.0045351
        k(  110) = (   0.2380952  -0.3333333   0.0000000), wk =   0.0045351
        k(  111) = (   0.2380952  -0.2857143   0.0000000), wk =   0.0045351
        k(  112) = (   0.2380952  -0.2380952   0.0000000), wk =   0.0045351
        k(  113) = (   0.2380952  -0.1904762   0.0000000), wk =   0.0045351
        k(  114) = (   0.2380952  -0.1428571   0.0000000), wk =   0.0045351
        k(  115) = (   0.2380952  -0.0952381   0.0000000), wk =   0.0045351
        k(  116) = (   0.2380952  -0.0476190   0.0000000), wk =   0.0045351
        k(  117) = (   0.2857143   0.0000000   0.0000000), wk =   0.0045351
        k(  118) = (   0.2857143   0.0476190   0.0000000), wk =   0.0045351
        k(  119) = (   0.2857143   0.0952381   0.0000000), wk =   0.0045351
        k(  120) = (   0.2857143   0.1428571   0.0000000), wk =   0.0045351
        k(  121) = (   0.2857143   0.1904762   0.0000000), wk =   0.0045351
        k(  122) = (   0.2857143   0.2380952   0.0000000), wk =   0.0045351
        k(  123) = (   0.2857143   0.2857143   0.0000000), wk =   0.0045351
        k(  124) = (   0.2857143   0.3333333   0.0000000), wk =   0.0045351
        k(  125) = (   0.2857143   0.3809524   0.0000000), wk =   0.0045351
        k(  126) = (   0.2857143   0.4285714   0.0000000), wk =   0.0045351
        k(  127) = (   0.2857143   0.4761905   0.0000000), wk =   0.0045351
        k(  128) = (   0.2857143  -0.4761905   0.0000000), wk =   0.0045351
        k(  129) = (   0.2857143  -0.4285714   0.0000000), wk =   0.0045351
        k(  130) = (   0.2857143  -0.3809524   0.0000000), wk =   0.0045351
        k(  131) = (   0.2857143  -0.3333333   0.0000000), wk =   0.0045351
        k(  132) = (   0.2857143  -0.2857143   0.0000000), wk =   0.0045351
        k(  133) = (   0.2857143  -0.2380952   0.0000000), wk =   0.0045351
        k(  134) = (   0.2857143  -0.1904762   0.0000000), wk =   0.0045351
        k(  135) = (   0.2857143  -0.1428571   0.0000000), wk =   0.0045351
        k(  136) = (   0.2857143  -0.0952381   0.0000000), wk =   0.0045351
        k(  137) = (   0.2857143  -0.0476190   0.0000000), wk =   0.0045351
        k(  138) = (   0.3333333   0.0000000   0.0000000), wk =   0.0045351
        k(  139) = (   0.3333333   0.0476190   0.0000000), wk =   0.0045351
        k(  140) = (   0.3333333   0.0952381   0.0000000), wk =   0.0045351
        k(  141) = (   0.3333333   0.1428571   0.0000000), wk =   0.0045351
        k(  142) = (   0.3333333   0.1904762   0.0000000), wk =   0.0045351
        k(  143) = (   0.3333333   0.2380952   0.0000000), wk =   0.0045351
        k(  144) = (   0.3333333   0.2857143   0.0000000), wk =   0.0045351
        k(  145) = (   0.3333333   0.3333333   0.0000000), wk =   0.0045351
        k(  146) = (   0.3333333   0.3809524   0.0000000), wk =   0.0045351
        k(  147) = (   0.3333333   0.4285714   0.0000000), wk =   0.0045351
        k(  148) = (   0.3333333   0.4761905   0.0000000), wk =   0.0045351
        k(  149) = (   0.3333333  -0.4761905   0.0000000), wk =   0.0045351
        k(  150) = (   0.3333333  -0.4285714   0.0000000), wk =   0.0045351
        k(  151) = (   0.3333333  -0.3809524   0.0000000), wk =   0.0045351
        k(  152) = (   0.3333333  -0.3333333   0.0000000), wk =   0.0045351
        k(  153) = (   0.3333333  -0.2857143   0.0000000), wk =   0.0045351
        k(  154) = (   0.3333333  -0.2380952   0.0000000), wk =   0.0045351
        k(  155) = (   0.3333333  -0.1904762   0.0000000), wk =   0.0045351
        k(  156) = (   0.3333333  -0.1428571   0.0000000), wk =   0.0045351
        k(  157) = (   0.3333333  -0.0952381   0.0000000), wk =   0.0045351
        k(  158) = (   0.3333333  -0.0476190   0.0000000), wk =   0.0045351
        k(  159) = (   0.3809524   0.0000000   0.0000000), wk =   0.0045351
        k(  160) = (   0.3809524   0.0476190   0.0000000), wk =   0.0045351
        k(  161) = (   0.3809524   0.0952381   0.0000000), wk =   0.0045351
        k(  162) = (   0.3809524   0.1428571   0.0000000), wk =   0.0045351
        k(  163) = (   0.3809524   0.1904762   0.0000000), wk =   0.0045351
        k(  164) = (   0.3809524   0.2380952   0.0000000), wk =   0.0045351
        k(  165) = (   0.3809524   0.2857143   0.0000000), wk =   0.0045351
        k(  166) = (   0.3809524   0.3333333   0.0000000), wk =   0.0045351
        k(  167) = (   0.3809524   0.3809524   0.0000000), wk =   0.0045351
        k(  168) = (   0.3809524   0.4285714   0.0000000), wk =   0.0045351
        k(  169) = (   0.3809524   0.4761905   0.0000000), wk =   0.0045351
        k(  170) = (   0.3809524  -0.4761905   0.0000000), wk =   0.0045351
        k(  171) = (   0.3809524  -0.4285714   0.0000000), wk =   0.0045351
        k(  172) = (   0.3809524  -0.3809524   0.0000000), wk =   0.0045351
        k(  173) = (   0.3809524  -0.3333333   0.0000000), wk =   0.0045351
        k(  174) = (   0.3809524  -0.2857143   0.0000000), wk =   0.0045351
        k(  175) = (   0.3809524  -0.2380952   0.0000000), wk =   0.0045351
        k(  176) = (   0.3809524  -0.1904762   0.0000000), wk =   0.0045351
        k(  177) = (   0.3809524  -0.1428571   0.0000000), wk =   0.0045351
        k(  178) = (   0.3809524  -0.0952381   0.0000000), wk =   0.0045351
        k(  179) = (   0.3809524  -0.0476190   0.0000000), wk =   0.0045351
        k(  180) = (   0.4285714   0.0000000   0.0000000), wk =   0.0045351
        k(  181) = (   0.4285714   0.0476190   0.0000000), wk =   0.0045351
        k(  182) = (   0.4285714   0.0952381   0.0000000), wk =   0.0045351
        k(  183) = (   0.4285714   0.1428571   0.0000000), wk =   0.0045351
        k(  184) = (   0.4285714   0.1904762   0.0000000), wk =   0.0045351
        k(  185) = (   0.4285714   0.2380952   0.0000000), wk =   0.0045351
        k(  186) = (   0.4285714   0.2857143   0.0000000), wk =   0.0045351
        k(  187) = (   0.4285714   0.3333333   0.0000000), wk =   0.0045351
        k(  188) = (   0.4285714   0.3809524   0.0000000), wk =   0.0045351
        k(  189) = (   0.4285714   0.4285714   0.0000000), wk =   0.0045351
        k(  190) = (   0.4285714   0.4761905   0.0000000), wk =   0.0045351
        k(  191) = (   0.4285714  -0.4761905   0.0000000), wk =   0.0045351
        k(  192) = (   0.4285714  -0.4285714   0.0000000), wk =   0.0045351
        k(  193) = (   0.4285714  -0.3809524   0.0000000), wk =   0.0045351
        k(  194) = (   0.4285714  -0.3333333   0.0000000), wk =   0.0045351
        k(  195) = (   0.4285714  -0.2857143   0.0000000), wk =   0.0045351
        k(  196) = (   0.4285714  -0.2380952   0.0000000), wk =   0.0045351
        k(  197) = (   0.4285714  -0.1904762   0.0000000), wk =   0.0045351
        k(  198) = (   0.4285714  -0.1428571   0.0000000), wk =   0.0045351
        k(  199) = (   0.4285714  -0.0952381   0.0000000), wk =   0.0045351
        k(  200) = (   0.4285714  -0.0476190   0.0000000), wk =   0.0045351
        k(  201) = (   0.4761905   0.0000000   0.0000000), wk =   0.0045351
        k(  202) = (   0.4761905   0.0476190   0.0000000), wk =   0.0045351
        k(  203) = (   0.4761905   0.0952381   0.0000000), wk =   0.0045351
        k(  204) = (   0.4761905   0.1428571   0.0000000), wk =   0.0045351
        k(  205) = (   0.4761905   0.1904762   0.0000000), wk =   0.0045351
        k(  206) = (   0.4761905   0.2380952   0.0000000), wk =   0.0045351
        k(  207) = (   0.4761905   0.2857143   0.0000000), wk =   0.0045351
        k(  208) = (   0.4761905   0.3333333   0.0000000), wk =   0.0045351
        k(  209) = (   0.4761905   0.3809524   0.0000000), wk =   0.0045351
        k(  210) = (   0.4761905   0.4285714   0.0000000), wk =   0.0045351
        k(  211) = (   0.4761905   0.4761905   0.0000000), wk =   0.0045351
        k(  212) = (   0.4761905  -0.4761905   0.0000000), wk =   0.0045351
        k(  213) = (   0.4761905  -0.4285714   0.0000000), wk =   0.0045351
        k(  214) = (   0.4761905  -0.3809524   0.0000000), wk =   0.0045351
        k(  215) = (   0.4761905  -0.3333333   0.0000000), wk =   0.0045351
        k(  216) = (   0.4761905  -0.2857143   0.0000000), wk =   0.0045351
        k(  217) = (   0.4761905  -0.2380952   0.0000000), wk =   0.0045351
        k(  218) = (   0.4761905  -0.1904762   0.0000000), wk =   0.0045351
        k(  219) = (   0.4761905  -0.1428571   0.0000000), wk =   0.0045351
        k(  220) = (   0.4761905  -0.0952381   0.0000000), wk =   0.0045351
        k(  221) = (   0.4761905  -0.0476190   0.0000000), wk =   0.0045351

     Dense  grid:   790163 G-vectors     FFT dimensions: (  75,  72, 360)

     Smooth grid:   200001 G-vectors     FFT dimensions: (  45,  45, 225)

     Dynamical RAM for                 wfc:       2.48 MB

     Dynamical RAM for     wfc (w. buffer):     550.11 MB

     Dynamical RAM for           str. fact:       1.00 MB

     Dynamical RAM for           local pot:       0.00 MB

     Dynamical RAM for          nlocal pot:       2.70 MB

     Dynamical RAM for                qrad:      11.12 MB

     Dynamical RAM for          rho,v,vnew:      13.44 MB

     Dynamical RAM for               rhoin:       4.48 MB

     Dynamical RAM for            rho*nmix:      32.15 MB

     Dynamical RAM for           G-vectors:       1.95 MB

     Dynamical RAM for          h,s,v(r/c):       1.11 MB

     Dynamical RAM for          <psi|beta>:       0.40 MB

     Dynamical RAM for                 psi:       4.96 MB

     Dynamical RAM for                hpsi:       4.96 MB

     Dynamical RAM for      wfcinit/wfcrot:       3.86 MB

     Estimated static dynamical RAM per process >     591.25 MB

     Estimated max dynamical RAM per process >     634.83 MB

     Estimated total dynamical RAM >      14.88 GB

     Initial potential from superposition of free atoms

     starting charge      77.7613, renormalised to      78.0000

     negative rho (up, down):  2.788E-04 0.000E+00
     Starting wfcs are random

     total cpu time spent up to now is       33.4 secs

     Self-consistent Calculation

     iteration #  1     ecut=    70.00 Ry     beta= 0.70
     Davidson diagonalization with overlap

---- Real-time Memory Report at c_bands before calling an iterative solver
           790 MiB given to the printing process from OS
             0 MiB allocation reported by mallinfo(arena+hblkhd)
         17805 MiB available memory on the node where the printing process lives
------------------
     ethr =  1.00E-02,  avg # of iterations = 12.4

     Threshold (ethr) on eigenvalues was too large:
     Diagonalizing with lowered threshold

     Davidson diagonalization with overlap

---- Real-time Memory Report at c_bands before calling an iterative solver
           802 MiB given to the printing process from OS
             0 MiB allocation reported by mallinfo(arena+hblkhd)
         17658 MiB available memory on the node where the printing process lives
------------------
     ethr =  1.24E-04,  avg # of iterations =  6.0

     negative rho (up, down):  3.357E-06 0.000E+00

     total cpu time spent up to now is      535.8 secs

     total energy              =    -806.62845052 Ry
     estimated scf accuracy    <       0.08545779 Ry

     iteration #  2     ecut=    70.00 Ry     beta= 0.70
     Davidson diagonalization with overlap

---- Real-time Memory Report at c_bands before calling an iterative solver
           804 MiB given to the printing process from OS
             0 MiB allocation reported by mallinfo(arena+hblkhd)
         17641 MiB available memory on the node where the printing process lives
------------------
     ethr =  1.10E-04,  avg # of iterations =  5.6

     negative rho (up, down):  2.301E-05 0.000E+00

     total cpu time spent up to now is      672.9 secs

     total energy              =    -806.57968662 Ry
     estimated scf accuracy    <       0.47854247 Ry

     iteration #  3     ecut=    70.00 Ry     beta= 0.70
     Davidson diagonalization with overlap

---- Real-time Memory Report at c_bands before calling an iterative solver
           806 MiB given to the printing process from OS
             0 MiB allocation reported by mallinfo(arena+hblkhd)
         17615 MiB available memory on the node where the printing process lives
------------------
     ethr =  1.10E-04,  avg # of iterations =  5.4

     negative rho (up, down):  1.987E-05 0.000E+00

     total cpu time spent up to now is      797.6 secs

     total energy              =    -806.64146299 Ry
     estimated scf accuracy    <       0.22756009 Ry

     iteration #  4     ecut=    70.00 Ry     beta= 0.70
     Davidson diagonalization with overlap

---- Real-time Memory Report at c_bands before calling an iterative solver
           807 MiB given to the printing process from OS
             0 MiB allocation reported by mallinfo(arena+hblkhd)
         17600 MiB available memory on the node where the printing process lives
------------------
     ethr =  1.10E-04,  avg # of iterations =  3.5

     negative rho (up, down):  2.513E-06 0.000E+00

     total cpu time spent up to now is      900.3 secs

     total energy              =    -806.66557540 Ry
     estimated scf accuracy    <       0.00350837 Ry

     iteration #  5     ecut=    70.00 Ry     beta= 0.70
     Davidson diagonalization with overlap

---- Real-time Memory Report at c_bands before calling an iterative solver
           808 MiB given to the printing process from OS
             0 MiB allocation reported by mallinfo(arena+hblkhd)
         17578 MiB available memory on the node where the printing process lives
------------------
     ethr =  4.50E-06,  avg # of iterations =  6.1

     negative rho (up, down):  2.288E-06 0.000E+00

     total cpu time spent up to now is     1026.3 secs

     total energy              =    -806.66574340 Ry
     estimated scf accuracy    <       0.02057980 Ry

     iteration #  6     ecut=    70.00 Ry     beta= 0.70
     Davidson diagonalization with overlap

---- Real-time Memory Report at c_bands before calling an iterative solver
           809 MiB given to the printing process from OS
             0 MiB allocation reported by mallinfo(arena+hblkhd)
         17566 MiB available memory on the node where the printing process lives
------------------
     ethr =  4.50E-06,  avg # of iterations =  6.2

     negative rho (up, down):  2.950E-08 0.000E+00

     total cpu time spent up to now is     1135.8 secs

     total energy              =    -806.66655595 Ry
     estimated scf accuracy    <       0.00330671 Ry

     iteration #  7     ecut=    70.00 Ry     beta= 0.70
     Davidson diagonalization with overlap

---- Real-time Memory Report at c_bands before calling an iterative solver
           811 MiB given to the printing process from OS
             0 MiB allocation reported by mallinfo(arena+hblkhd)
         17554 MiB available memory on the node where the printing process lives
------------------
     ethr =  4.24E-06,  avg # of iterations =  3.0

     total cpu time spent up to now is     1231.3 secs

     total energy              =    -806.66680829 Ry
     estimated scf accuracy    <       0.00017300 Ry

     iteration #  8     ecut=    70.00 Ry     beta= 0.70
     Davidson diagonalization with overlap

---- Real-time Memory Report at c_bands before calling an iterative solver
           812 MiB given to the printing process from OS
             0 MiB allocation reported by mallinfo(arena+hblkhd)
         17542 MiB available memory on the node where the printing process lives
------------------
     ethr =  2.22E-07,  avg # of iterations =  5.9

     total cpu time spent up to now is     1347.9 secs

     total energy              =    -806.66684997 Ry
     estimated scf accuracy    <       0.00014418 Ry

     iteration #  9     ecut=    70.00 Ry     beta= 0.70
     Davidson diagonalization with overlap

---- Real-time Memory Report at c_bands before calling an iterative solver
           813 MiB given to the printing process from OS
             0 MiB allocation reported by mallinfo(arena+hblkhd)
         17530 MiB available memory on the node where the printing process lives
------------------
     ethr =  1.85E-07,  avg # of iterations =  2.0

     total cpu time spent up to now is     1437.5 secs

     total energy              =    -806.66684627 Ry
     estimated scf accuracy    <       0.00005070 Ry

     iteration # 10     ecut=    70.00 Ry     beta= 0.70
     Davidson diagonalization with overlap

---- Real-time Memory Report at c_bands before calling an iterative solver
           814 MiB given to the printing process from OS
             0 MiB allocation reported by mallinfo(arena+hblkhd)
         17516 MiB available memory on the node where the printing process lives
------------------
     ethr =  6.50E-08,  avg # of iterations =  4.1

     total cpu time spent up to now is     1538.6 secs

     total energy              =    -806.66685183 Ry
     estimated scf accuracy    <       0.00000054 Ry

     iteration # 11     ecut=    70.00 Ry     beta= 0.70
     Davidson diagonalization with overlap

---- Real-time Memory Report at c_bands before calling an iterative solver
           815 MiB given to the printing process from OS
             0 MiB allocation reported by mallinfo(arena+hblkhd)
         17503 MiB available memory on the node where the printing process lives
------------------
     ethr =  6.89E-10,  avg # of iterations =  6.1

     total cpu time spent up to now is     1668.6 secs

     total energy              =    -806.66685192 Ry
     estimated scf accuracy    <       0.00000433 Ry

     iteration # 12     ecut=    70.00 Ry     beta= 0.70
     Davidson diagonalization with overlap

---- Real-time Memory Report at c_bands before calling an iterative solver
           815 MiB given to the printing process from OS
             0 MiB allocation reported by mallinfo(arena+hblkhd)
         17493 MiB available memory on the node where the printing process lives
------------------
     ethr =  6.89E-10,  avg # of iterations =  5.2

     total cpu time spent up to now is     1780.0 secs

     End of self-consistent calculation

          k = 0.0000 0.0000 0.0000 ( 24991 PWs)   bands (ev):

   -35.7011 -35.7011 -35.7010 -35.7010 -35.6647 -35.6647 -35.6646 -35.6646
   -35.6007 -35.6007 -35.5706 -35.5706 -34.2432 -34.2432 -34.2431 -34.2431
   -34.2128 -34.2128 -34.2127 -34.2127 -34.1959 -34.1959 -34.1958 -34.1958
   -34.1398 -34.1398 -34.1209 -34.1209 -34.1002 -34.1002 -28.3589 -28.3589
   -28.3588 -28.3588 -28.3502 -28.3502 -28.3501 -28.3501 -27.1193 -27.1193
   -27.1191 -27.1191 -27.1114 -27.1114 -27.1111 -27.1111 -27.1071 -27.1071
   -27.1070 -27.1070 -10.7512 -10.7512 -10.2085 -10.2085  -9.1412  -9.1412
    -6.4151  -6.4151  -5.0991  -5.0991  -0.7283  -0.7283  -0.3266  -0.3266
    -0.0131  -0.0131   0.2175   0.2175   0.3360   0.3360   0.3906   0.3906
     0.7099   0.7099   0.9285   0.9285   1.1551   1.1551

     occupation numbers 
     1.0000   1.0000   1.0000   1.0000   1.0000   1.0000   1.0000   1.0000
     1.0000   1.0000   1.0000   1.0000   1.0000   1.0000   1.0000   1.0000
     1.0000   1.0000   1.0000   1.0000   1.0000   1.0000   1.0000   1.0000
     1.0000   1.0000   1.0000   1.0000   1.0000   1.0000   1.0000   1.0000
     1.0000   1.0000   1.0000   1.0000   1.0000   1.0000   1.0000   1.0000
     1.0000   1.0000   1.0000   1.0000   1.0000   1.0000   1.0000   1.0000
     1.0000   1.0000   1.0000   1.0000   1.0000   1.0000   1.0000   1.0000
     1.0000   1.0000   1.0000   1.0000   1.0000   1.0000   1.0000   1.0000
     1.0000   1.0000   1.0000   1.0000   1.0000   1.0000   1.0000   1.0000
     1.0000   1.0000   1.0000   1.0000   1.0000   1.0000

          k = 0.0000 0.0577 0.0000 ( 24966 PWs)   bands (ev):

   -35.7011 -35.7011 -35.7010 -35.7010 -35.6647 -35.6647 -35.6646 -35.6646
   -35.6007 -35.6007 -35.5706 -35.5706 -34.2432 -34.2432 -34.2431 -34.2431
   -34.2128 -34.2128 -34.2127 -34.2127 -34.1959 -34.1959 -34.1958 -34.1958
   -34.1398 -34.1398 -34.1209 -34.1209 -34.1002 -34.1002 -28.3589 -28.3589
   -28.3587 -28.3587 -28.3502 -28.3502 -28.3501 -28.3500 -27.1192 -27.1192
   -27.1191 -27.1191 -27.1114 -27.1113 -27.1111 -27.1111 -27.1072 -27.1071
   -27.1070 -27.1070 -10.7315 -10.7315 -10.1906 -10.1906  -9.1305  -9.1305
    -6.4186  -6.4186  -5.1319  -5.1319  -0.7583  -0.7583  -0.4782  -0.4781
    -0.0510  -0.0504   0.0553   0.0556   0.1931   0.1933   0.4212   0.4221
     0.7275   0.7278   0.9073   0.9075   1.2623   1.2625

     occupation numbers 
     1.0000   1.0000   1.0000   1.0000   1.0000   1.0000   1.0000   1.0000
     1.0000   1.0000   1.0000   1.0000   1.0000   1.0000   1.0000   1.0000
     1.0000   1.0000   1.0000   1.0000   1.0000   1.0000   1.0000   1.0000
     1.0000   1.0000   1.0000   1.0000   1.0000   1.0000   1.0000   1.0000
     1.0000   1.0000   1.0000   1.0000   1.0000   1.0000   1.0000   1.0000
     1.0000   1.0000   1.0000   1.0000   1.0000   1.0000   1.0000   1.0000
     1.0000   1.0000   1.0000   1.0000   1.0000   1.0000   1.0000   1.0000
     1.0000   1.0000   1.0000   1.0000   1.0000   1.0000   1.0000   1.0000
     1.0000   1.0000   1.0000   1.0000   1.0000   1.0000   1.0000   1.0000
     1.0000   1.0000   1.0000   1.0000   1.0000   1.0000

          k = 0.0000 0.1155 0.0000 ( 24972 PWs)   bands (ev):

   -35.7011 -35.7011 -35.7010 -35.7010 -35.6647 -35.6647 -35.6646 -35.6646
   -35.6007 -35.6007 -35.5706 -35.5706 -34.2432 -34.2432 -34.2431 -34.2430
   -34.2129 -34.2128 -34.2127 -34.2127 -34.1959 -34.1959 -34.1958 -34.1957
   -34.1398 -34.1398 -34.1209 -34.1209 -34.1001 -34.1001 -28.3589 -28.3589
   -28.3587 -28.3587 -28.3503 -28.3502 -28.3501 -28.3500 -27.1191 -27.1191
   -27.1190 -27.1190 -27.1114 -27.1113 -27.1111 -27.1111 -27.1072 -27.1071
   -27.1071 -27.1070 -10.6728 -10.6728 -10.1369 -10.1369  -9.0991  -9.0991
    -6.4311  -6.4311  -5.2297  -5.2297  -0.8878  -0.8878  -0.7642  -0.7640
    -0.3816  -0.3810  -0.0835  -0.0832   0.0181   0.0184   0.2879   0.2882
     0.6310   0.6312   1.0989   1.0990   1.3908   1.3910

     occupation numbers 
     1.0000   1.0000   1.0000   1.0000   1.0000   1.0000   1.0000   1.0000
     1.0000   1.0000   1.0000   1.0000   1.0000   1.0000   1.0000   1.0000
     1.0000   1.0000   1.0000   1.0000   1.0000   1.0000   1.0000   1.0000
     1.0000   1.0000   1.0000   1.0000   1.0000   1.0000   1.0000   1.0000
     1.0000   1.0000   1.0000   1.0000   1.0000   1.0000   1.0000   1.0000
     1.0000   1.0000   1.0000   1.0000   1.0000   1.0000   1.0000   1.0000
     1.0000   1.0000   1.0000   1.0000   1.0000   1.0000   1.0000   1.0000
     1.0000   1.0000   1.0000   1.0000   1.0000   1.0000   1.0000   1.0000
     1.0000   1.0000   1.0000   1.0000   1.0000   1.0000   1.0000   1.0000
     1.0000   1.0000   1.0000   1.0000   1.0000   1.0000

          k = 0.0000 0.1732 0.0000 ( 24960 PWs)   bands (ev):

   -35.7011 -35.7011 -35.7009 -35.7009 -35.6647 -35.6647 -35.6646 -35.6646
   -35.6007 -35.6007 -35.5705 -35.5705 -34.2431 -34.2431 -34.2430 -34.2430
   -34.2129 -34.2128 -34.2127 -34.2127 -34.1959 -34.1959 -34.1957 -34.1957
   -34.1398 -34.1398 -34.1209 -34.1209 -34.1000 -34.1000 -28.3588 -28.3588
   -28.3586 -28.3586 -28.3503 -28.3502 -28.3501 -28.3500 -27.1190 -27.1190
   -27.1188 -27.1188 -27.1114 -27.1113 -27.1111 -27.1110 -27.1073 -27.1072
   -27.1071 -27.1070 -10.5758 -10.5758 -10.0489 -10.0489  -9.0495  -9.0495
    -6.4581  -6.4581  -5.3903  -5.3903  -1.2620  -1.2618  -0.9414  -0.9413
    -0.7093  -0.7089  -0.3077  -0.3075  -0.2366  -0.2363   0.1888   0.1891
     0.6182   0.6184   1.0820   1.0821   1.3801   1.3804

     occupation numbers 
     1.0000   1.0000   1.0000   1.0000   1.0000   1.0000   1.0000   1.0000
     1.0000   1.0000   1.0000   1.0000   1.0000   1.0000   1.0000   1.0000
     1.0000   1.0000   1.0000   1.0000   1.0000   1.0000   1.0000   1.0000
     1.0000   1.0000   1.0000   1.0000   1.0000   1.0000   1.0000   1.0000
     1.0000   1.0000   1.0000   1.0000   1.0000   1.0000   1.0000   1.0000
     1.0000   1.0000   1.0000   1.0000   1.0000   1.0000   1.0000   1.0000
     1.0000   1.0000   1.0000   1.0000   1.0000   1.0000   1.0000   1.0000
     1.0000   1.0000   1.0000   1.0000   1.0000   1.0000   1.0000   1.0000
     1.0000   1.0000   1.0000   1.0000   1.0000   1.0000   1.0000   1.0000
     1.0000   1.0000   1.0000   1.0000   1.0000   1.0000

          k = 0.0000 0.2309 0.0000 ( 24985 PWs)   bands (ev):

   -35.7010 -35.7010 -35.7009 -35.7009 -35.6647 -35.6647 -35.6646 -35.6645
   -35.6007 -35.6007 -35.5705 -35.5705 -34.2430 -34.2430 -34.2429 -34.2429
   -34.2129 -34.2128 -34.2127 -34.2127 -34.1959 -34.1958 -34.1957 -34.1956
   -34.1398 -34.1398 -34.1209 -34.1209 -34.0999 -34.0999 -28.3587 -28.3586
   -28.3585 -28.3585 -28.3504 -28.3503 -28.3501 -28.3500 -27.1188 -27.1188
   -27.1186 -27.1186 -27.1113 -27.1113 -27.1111 -27.1110 -27.1074 -27.1073
   -27.1071 -27.1070 -10.4418 -10.4418  -9.9286  -9.9286  -8.9859  -8.9859
    -6.5083  -6.5083  -5.6066  -5.6066  -1.6904  -1.6902  -1.1336  -1.1334
    -0.9968  -0.9967  -0.5591  -0.5589  -0.4492  -0.4490   0.1387   0.1390
     0.5278   0.5282   0.8364   0.8367   1.4657   1.4659

     occupation numbers 
     1.0000   1.0000   1.0000   1.0000   1.0000   1.0000   1.0000   1.0000
     1.0000   1.0000   1.0000   1.0000   1.0000   1.0000   1.0000   1.0000
     1.0000   1.0000   1.0000   1.0000   1.0000   1.0000   1.0000   1.0000
     1.0000   1.0000   1.0000   1.0000   1.0000   1.0000   1.0000   1.0000
     1.0000   1.0000   1.0000   1.0000   1.0000   1.0000   1.0000   1.0000
     1.0000   1.0000   1.0000   1.0000   1.0000   1.0000   1.0000   1.0000
     1.0000   1.0000   1.0000   1.0000   1.0000   1.0000   1.0000   1.0000
     1.0000   1.0000   1.0000   1.0000   1.0000   1.0000   1.0000   1.0000
     1.0000   1.0000   1.0000   1.0000   1.0000   1.0000   1.0000   1.0000
     1.0000   1.0000   1.0000   1.0000   1.0000   1.0000

          k = 0.0000 0.2887 0.0000 ( 25011 PWs)   bands (ev):

   -35.7010 -35.7009 -35.7008 -35.7008 -35.6647 -35.6647 -35.6646 -35.6645
   -35.6007 -35.6007 -35.5704 -35.5704 -34.2429 -34.2429 -34.2428 -34.2428
   -34.2129 -34.2128 -34.2127 -34.2127 -34.1958 -34.1957 -34.1956 -34.1956
   -34.1398 -34.1398 -34.1209 -34.1209 -34.0998 -34.0998 -28.3586 -28.3585
   -28.3584 -28.3584 -28.3504 -28.3503 -28.3502 -28.3501 -27.1186 -27.1185
   -27.1184 -27.1184 -27.1113 -27.1112 -27.1111 -27.1110 -27.1075 -27.1074
   -27.1072 -27.1071 -10.2729 -10.2729  -9.7797  -9.7797  -8.9151  -8.9151
    -6.5927  -6.5927  -5.8649  -5.8649  -2.0916  -2.0914  -1.3816  -1.3813
    -1.2125  -1.2121  -0.7643  -0.7640  -0.6296  -0.6294   0.0919   0.0921
     0.2938   0.2940   0.7278   0.7281   1.4213   1.4216

     occupation numbers 
     1.0000   1.0000   1.0000   1.0000   1.0000   1.0000   1.0000   1.0000
     1.0000   1.0000   1.0000   1.0000   1.0000   1.0000   1.0000   1.0000
     1.0000   1.0000   1.0000   1.0000   1.0000   1.0000   1.0000   1.0000
     1.0000   1.0000   1.0000   1.0000   1.0000   1.0000   1.0000   1.0000
     1.0000   1.0000   1.0000   1.0000   1.0000   1.0000   1.0000   1.0000
     1.0000   1.0000   1.0000   1.0000   1.0000   1.0000   1.0000   1.0000
     1.0000   1.0000   1.0000   1.0000   1.0000   1.0000   1.0000   1.0000
     1.0000   1.0000   1.0000   1.0000   1.0000   1.0000   1.0000   1.0000
     1.0000   1.0000   1.0000   1.0000   1.0000   1.0000   1.0000   1.0000
     1.0000   1.0000   1.0000   1.0000   1.0000   1.0000

          k = 0.0000 0.3464 0.0000 ( 25038 PWs)   bands (ev):

   -35.7009 -35.7009 -35.7008 -35.7007 -35.6647 -35.6646 -35.6645 -35.6645
   -35.6007 -35.6007 -35.5703 -35.5703 -34.2428 -34.2428 -34.2427 -34.2426
   -34.2129 -34.2128 -34.2127 -34.2127 -34.1957 -34.1957 -34.1956 -34.1955
   -34.1397 -34.1397 -34.1209 -34.1209 -34.0997 -34.0997 -28.3584 -28.3584
   -28.3583 -28.3582 -28.3504 -28.3503 -28.3502 -28.3501 -27.1184 -27.1183
   -27.1182 -27.1182 -27.1113 -27.1112 -27.1110 -27.1109 -27.1075 -27.1074
   -27.1072 -27.1071 -10.0727 -10.0727  -9.6079  -9.6079  -8.8467  -8.8467
    -6.7213  -6.7213  -6.1425  -6.1425  -2.4399  -2.4398  -1.6175  -1.6172
    -1.3878  -1.3874  -0.9177  -0.9174  -0.7942  -0.7941  -0.0583  -0.0581
     0.1528   0.1530   0.6813   0.6815   1.2663   1.2666

     occupation numbers 
     1.0000   1.0000   1.0000   1.0000   1.0000   1.0000   1.0000   1.0000
     1.0000   1.0000   1.0000   1.0000   1.0000   1.0000   1.0000   1.0000
     1.0000   1.0000   1.0000   1.0000   1.0000   1.0000   1.0000   1.0000
     1.0000   1.0000   1.0000   1.0000   1.0000   1.0000   1.0000   1.0000
     1.0000   1.0000   1.0000   1.0000   1.0000   1.0000   1.0000   1.0000
     1.0000   1.0000   1.0000   1.0000   1.0000   1.0000   1.0000   1.0000
     1.0000   1.0000   1.0000   1.0000   1.0000   1.0000   1.0000   1.0000
     1.0000   1.0000   1.0000   1.0000   1.0000   1.0000   1.0000   1.0000
     1.0000   1.0000   1.0000   1.0000   1.0000   1.0000   1.0000   1.0000
     1.0000   1.0000   1.0000   1.0000   1.0000   1.0000

          k = 0.0000 0.4041 0.0000 ( 25041 PWs)   bands (ev):

   -35.7008 -35.7008 -35.7007 -35.7007 -35.6646 -35.6646 -35.6645 -35.6645
   -35.6007 -35.6007 -35.5703 -35.5703 -34.2427 -34.2427 -34.2426 -34.2426
   -34.2129 -34.2128 -34.2127 -34.2127 -34.1957 -34.1956 -34.1955 -34.1955
   -34.1397 -34.1397 -34.1209 -34.1209 -34.0996 -34.0996 -28.3583 -28.3583
   -28.3582 -28.3581 -28.3505 -28.3504 -28.3502 -28.3501 -27.1182 -27.1182
   -27.1181 -27.1180 -27.1113 -27.1112 -27.1110 -27.1109 -27.1076 -27.1075
   -27.1073 -27.1072  -9.8463  -9.8463  -9.4224  -9.4224  -8.7947  -8.7947
    -6.8972  -6.8972  -6.4107  -6.4107  -2.7246  -2.7245  -1.7945  -1.7942
    -1.5381  -1.5378  -1.0379  -1.0376  -0.9505  -0.9504  -0.2465  -0.2464
     0.1093   0.1096   0.6571   0.6573   1.0794   1.0796

     occupation numbers 
     1.0000   1.0000   1.0000   1.0000   1.0000   1.0000   1.0000   1.0000
     1.0000   1.0000   1.0000   1.0000   1.0000   1.0000   1.0000   1.0000
     1.0000   1.0000   1.0000   1.0000   1.0000   1.0000   1.0000   1.0000
     1.0000   1.0000   1.0000   1.0000   1.0000   1.0000   1.0000   1.0000
     1.0000   1.0000   1.0000   1.0000   1.0000   1.0000   1.0000   1.0000
     1.0000   1.0000   1.0000   1.0000   1.0000   1.0000   1.0000   1.0000
     1.0000   1.0000   1.0000   1.0000   1.0000   1.0000   1.0000   1.0000
     1.0000   1.0000   1.0000   1.0000   1.0000   1.0000   1.0000   1.0000
     1.0000   1.0000   1.0000   1.0000   1.0000   1.0000   1.0000   1.0000
     1.0000   1.0000   1.0000   1.0000   1.0000   1.0000

          k = 0.0000 0.4619 0.0000 ( 25042 PWs)   bands (ev):

   -35.7008 -35.7008 -35.7006 -35.7006 -35.6646 -35.6646 -35.6645 -35.6645
   -35.6007 -35.6007 -35.5702 -35.5702 -34.2426 -34.2426 -34.2425 -34.2425
   -34.2129 -34.2128 -34.2127 -34.2127 -34.1956 -34.1956 -34.1955 -34.1954
   -34.1397 -34.1397 -34.1209 -34.1209 -34.0995 -34.0995 -28.3582 -28.3582
   -28.3581 -28.3580 -28.3505 -28.3504 -28.3503 -28.3502 -27.1180 -27.1180
   -27.1179 -27.1179 -27.1112 -27.1112 -27.1110 -27.1109 -27.1075 -27.1075
   -27.1073 -27.1072  -9.6022  -9.6022  -9.2381  -9.2381  -8.7780  -8.7780
    -7.1031  -7.1031  -6.6419  -6.6419  -2.9420  -2.9419  -1.8989  -1.8987
    -1.6618  -1.6615  -1.1488  -1.1486  -1.0876  -1.0875  -0.3609  -0.3608
     0.0650   0.0653   0.6508   0.6509   0.9153   0.9155

     occupation numbers 
     1.0000   1.0000   1.0000   1.0000   1.0000   1.0000   1.0000   1.0000
     1.0000   1.0000   1.0000   1.0000   1.0000   1.0000   1.0000   1.0000
     1.0000   1.0000   1.0000   1.0000   1.0000   1.0000   1.0000   1.0000
     1.0000   1.0000   1.0000   1.0000   1.0000   1.0000   1.0000   1.0000
     1.0000   1.0000   1.0000   1.0000   1.0000   1.0000   1.0000   1.0000
     1.0000   1.0000   1.0000   1.0000   1.0000   1.0000   1.0000   1.0000
     1.0000   1.0000   1.0000   1.0000   1.0000   1.0000   1.0000   1.0000
     1.0000   1.0000   1.0000   1.0000   1.0000   1.0000   1.0000   1.0000
     1.0000   1.0000   1.0000   1.0000   1.0000   1.0000   1.0000   1.0000
     1.0000   1.0000   1.0000   1.0000   1.0000   1.0000

          k = 0.0000 0.5196 0.0000 ( 25051 PWs)   bands (ev):

   -35.7007 -35.7007 -35.7006 -35.7006 -35.6646 -35.6646 -35.6645 -35.6645
   -35.6007 -35.6007 -35.5702 -35.5702 -34.2426 -34.2426 -34.2424 -34.2424
   -34.2128 -34.2128 -34.2127 -34.2127 -34.1956 -34.1956 -34.1954 -34.1954
   -34.1397 -34.1397 -34.1209 -34.1209 -34.0994 -34.0994 -28.3582 -28.3581
   -28.3580 -28.3580 -28.3505 -28.3504 -28.3503 -28.3502 -27.1179 -27.1179
   -27.1178 -27.1178 -27.1112 -27.1111 -27.1110 -27.1110 -27.1075 -27.1075
   -27.1073 -27.1072  -9.3538  -9.3538  -9.0800  -9.0800  -8.8192  -8.8191
    -7.2936  -7.2936  -6.8160  -6.8160  -3.0897  -3.0897  -1.9341  -1.9339
    -1.7583  -1.7581  -1.2706  -1.2705  -1.1664  -1.1663  -0.4067  -0.4066
     0.0154   0.0156   0.6507   0.6508   0.8054   0.8055

     occupation numbers 
     1.0000   1.0000   1.0000   1.0000   1.0000   1.0000   1.0000   1.0000
     1.0000   1.0000   1.0000   1.0000   1.0000   1.0000   1.0000   1.0000
     1.0000   1.0000   1.0000   1.0000   1.0000   1.0000   1.0000   1.0000
     1.0000   1.0000   1.0000   1.0000   1.0000   1.0000   1.0000   1.0000
     1.0000   1.0000   1.0000   1.0000   1.0000   1.0000   1.0000   1.0000
     1.0000   1.0000   1.0000   1.0000   1.0000   1.0000   1.0000   1.0000
     1.0000   1.0000   1.0000   1.0000   1.0000   1.0000   1.0000   1.0000
     1.0000   1.0000   1.0000   1.0000   1.0000   1.0000   1.0000   1.0000
     1.0000   1.0000   1.0000   1.0000   1.0000   1.0000   1.0000   1.0000
     1.0000   1.0000   1.0000   1.0000   1.0000   1.0000

          k = 0.0000 0.5774 0.0000 ( 25036 PWs)   bands (ev):

   -35.7007 -35.7007 -35.7006 -35.7006 -35.6646 -35.6646 -35.6645 -35.6645
   -35.6007 -35.6007 -35.5702 -35.5702 -34.2425 -34.2425 -34.2424 -34.2424
   -34.2128 -34.2128 -34.2127 -34.2127 -34.1956 -34.1956 -34.1954 -34.1954
   -34.1397 -34.1397 -34.1209 -34.1209 -34.0994 -34.0994 -28.3581 -28.3581
   -28.3580 -28.3580 -28.3504 -28.3504 -28.3503 -28.3503 -27.1179 -27.1179
   -27.1178 -27.1178 -27.1112 -27.1112 -27.1110 -27.1110 -27.1075 -27.1075
   -27.1073 -27.1072  -9.1230  -9.1230  -8.9842  -8.9841  -8.9342  -8.9341
    -7.4103  -7.4103  -6.9121  -6.9121  -3.1648  -3.1648  -1.9215  -1.9213
    -1.8262  -1.8260  -1.3510  -1.3509  -1.2014  -1.2014  -0.4159  -0.4159
    -0.0205  -0.0204   0.6444   0.6444   0.7605   0.7605

     occupation numbers 
     1.0000   1.0000   1.0000   1.0000   1.0000   1.0000   1.0000   1.0000
     1.0000   1.0000   1.0000   1.0000   1.0000   1.0000   1.0000   1.0000
     1.0000   1.0000   1.0000   1.0000   1.0000   1.0000   1.0000   1.0000
     1.0000   1.0000   1.0000   1.0000   1.0000   1.0000   1.0000   1.0000
     1.0000   1.0000   1.0000   1.0000   1.0000   1.0000   1.0000   1.0000
     1.0000   1.0000   1.0000   1.0000   1.0000   1.0000   1.0000   1.0000
     1.0000   1.0000   1.0000   1.0000   1.0000   1.0000   1.0000   1.0000
     1.0000   1.0000   1.0000   1.0000   1.0000   1.0000   1.0000   1.0000
     1.0000   1.0000   1.0000   1.0000   1.0000   1.0000   1.0000   1.0000
     1.0000   1.0000   1.0000   1.0000   1.0000   1.0000

          k = 0.0476 0.0275 0.0000 ( 24977 PWs)   bands (ev):

   -35.7011 -35.7011 -35.7010 -35.7010 -35.6647 -35.6647 -35.6646 -35.6646
   -35.6007 -35.6007 -35.5706 -35.5706 -34.2432 -34.2432 -34.2431 -34.2431
   -34.2128 -34.2128 -34.2127 -34.2127 -34.1959 -34.1959 -34.1958 -34.1958
   -34.1398 -34.1398 -34.1209 -34.1209 -34.1002 -34.1002 -28.3589 -28.3589
   -28.3588 -28.3587 -28.3502 -28.3502 -28.3501 -28.3501 -27.1193 -27.1193
   -27.1191 -27.1191 -27.1114 -27.1113 -27.1112 -27.1111 -27.1071 -27.1071
   -27.1070 -27.1070 -10.7333 -10.7333 -10.1925 -10.1925  -9.1321  -9.1321
    -6.4209  -6.4209  -5.1377  -5.1377  -0.7669  -0.7668  -0.5472  -0.5470
    -0.0290  -0.0284   0.0210   0.0212   0.2844   0.2849   0.4766   0.4774
     0.7422   0.7427   0.9177   0.9183   1.2440   1.2443

     occupation numbers 
     1.0000   1.0000   1.0000   1.0000   1.0000   1.0000   1.0000   1.0000
     1.0000   1.0000   1.0000   1.0000   1.0000   1.0000   1.0000   1.0000
     1.0000   1.0000   1.0000   1.0000   1.0000   1.0000   1.0000   1.0000
     1.0000   1.0000   1.0000   1.0000   1.0000   1.0000   1.0000   1.0000
     1.0000   1.0000   1.0000   1.0000   1.0000   1.0000   1.0000   1.0000
     1.0000   1.0000   1.0000   1.0000   1.0000   1.0000   1.0000   1.0000
     1.0000   1.0000   1.0000   1.0000   1.0000   1.0000   1.0000   1.0000
     1.0000   1.0000   1.0000   1.0000   1.0000   1.0000   1.0000   1.0000
     1.0000   1.0000   1.0000   1.0000   1.0000   1.0000   1.0000   1.0000
     1.0000   1.0000   1.0000   1.0000   1.0000   1.0000

          k = 0.0476 0.0852 0.0000 ( 24954 PWs)   bands (ev):

   -35.7011 -35.7011 -35.7010 -35.7010 -35.6647 -35.6647 -35.6646 -35.6646
   -35.6007 -35.6007 -35.5706 -35.5706 -34.2432 -34.2432 -34.2431 -34.2431
   -34.2128 -34.2128 -34.2127 -34.2127 -34.1959 -34.1959 -34.1958 -34.1958
   -34.1398 -34.1398 -34.1209 -34.1209 -34.1002 -34.1002 -28.3589 -28.3589
   -28.3587 -28.3587 -28.3503 -28.3502 -28.3501 -28.3500 -27.1192 -27.1192
   -27.1190 -27.1190 -27.1114 -27.1113 -27.1112 -27.1111 -27.1072 -27.1071
   -27.1070 -27.1070 -10.6950 -10.6950 -10.1577 -10.1577  -9.1120  -9.1120
    -6.4303  -6.4303  -5.2061  -5.2061  -0.8526  -0.8525  -0.7608  -0.7606
    -0.2891  -0.2885  -0.0255  -0.0251   0.1860   0.1864   0.3422   0.3428
     0.7037   0.7038   1.0279   1.0280   1.3763   1.3766

     occupation numbers 
     1.0000   1.0000   1.0000   1.0000   1.0000   1.0000   1.0000   1.0000
     1.0000   1.0000   1.0000   1.0000   1.0000   1.0000   1.0000   1.0000
     1.0000   1.0000   1.0000   1.0000   1.0000   1.0000   1.0000   1.0000
     1.0000   1.0000   1.0000   1.0000   1.0000   1.0000   1.0000   1.0000
     1.0000   1.0000   1.0000   1.0000   1.0000   1.0000   1.0000   1.0000
     1.0000   1.0000   1.0000   1.0000   1.0000   1.0000   1.0000   1.0000
     1.0000   1.0000   1.0000   1.0000   1.0000   1.0000   1.0000   1.0000
     1.0000   1.0000   1.0000   1.0000   1.0000   1.0000   1.0000   1.0000
     1.0000   1.0000   1.0000   1.0000   1.0000   1.0000   1.0000   1.0000
     1.0000   1.0000   1.0000   1.0000   1.0000   1.0000

          k = 0.0476 0.1430 0.0000 ( 24959 PWs)   bands (ev):

   -35.7011 -35.7011 -35.7010 -35.7009 -35.6647 -35.6647 -35.6646 -35.6646
   -35.6007 -35.6007 -35.5706 -35.5706 -34.2432 -34.2431 -34.2430 -34.2430
   -34.2128 -34.2128 -34.2127 -34.2127 -34.1959 -34.1959 -34.1958 -34.1957
   -34.1398 -34.1398 -34.1209 -34.1209 -34.1001 -34.1001 -28.3589 -28.3588
   -28.3587 -28.3586 -28.3503 -28.3502 -28.3501 -28.3500 -27.1191 -27.1191
   -27.1189 -27.1189 -27.1114 -27.1113 -27.1111 -27.1111 -27.1073 -27.1071
   -27.1071 -27.1070 -10.6181 -10.6181 -10.0879 -10.0879  -9.0723  -9.0723
    -6.4511  -6.4511  -5.3375  -5.3375  -1.1267  -1.1265  -0.9157  -0.9156
    -0.6596  -0.6592  -0.2377  -0.2375   0.0540   0.0543   0.2117   0.2120
     0.6043   0.6044   1.1706   1.1708   1.3938   1.3941

     occupation numbers 
     1.0000   1.0000   1.0000   1.0000   1.0000   1.0000   1.0000   1.0000
     1.0000   1.0000   1.0000   1.0000   1.0000   1.0000   1.0000   1.0000
     1.0000   1.0000   1.0000   1.0000   1.0000   1.0000   1.0000   1.0000
     1.0000   1.0000   1.0000   1.0000   1.0000   1.0000   1.0000   1.0000
     1.0000   1.0000   1.0000   1.0000   1.0000   1.0000   1.0000   1.0000
     1.0000   1.0000   1.0000   1.0000   1.0000   1.0000   1.0000   1.0000
     1.0000   1.0000   1.0000   1.0000   1.0000   1.0000   1.0000   1.0000
     1.0000   1.0000   1.0000   1.0000   1.0000   1.0000   1.0000   1.0000
     1.0000   1.0000   1.0000   1.0000   1.0000   1.0000   1.0000   1.0000
     1.0000   1.0000   1.0000   1.0000   1.0000   1.0000

          k = 0.0476 0.2007 0.0000 ( 24977 PWs)   bands (ev):

   -35.7010 -35.7010 -35.7009 -35.7009 -35.6647 -35.6647 -35.6646 -35.6646
   -35.6007 -35.6007 -35.5705 -35.5705 -34.2431 -34.2431 -34.2429 -34.2429
   -34.2128 -34.2128 -34.2127 -34.2127 -34.1959 -34.1958 -34.1957 -34.1957
   -34.1398 -34.1398 -34.1209 -34.1209 -34.1000 -34.1000 -28.3588 -28.3587
   -28.3586 -28.3585 -28.3503 -28.3502 -28.3501 -28.3500 -27.1189 -27.1189
   -27.1187 -27.1187 -27.1114 -27.1113 -27.1111 -27.1110 -27.1073 -27.1072
   -27.1071 -27.1070 -10.5034 -10.5034  -9.9846  -9.9846  -9.0163  -9.0163
    -6.4900  -6.4900  -5.5271  -5.5271  -1.4942  -1.4939  -1.1314  -1.1313
    -0.9244  -0.9243  -0.4926  -0.4923  -0.1875  -0.1872   0.1020   0.1022
     0.5800   0.5802   1.0178   1.0180   1.4555   1.4557

     occupation numbers 
     1.0000   1.0000   1.0000   1.0000   1.0000   1.0000   1.0000   1.0000
     1.0000   1.0000   1.0000   1.0000   1.0000   1.0000   1.0000   1.0000
     1.0000   1.0000   1.0000   1.0000   1.0000   1.0000   1.0000   1.0000
     1.0000   1.0000   1.0000   1.0000   1.0000   1.0000   1.0000   1.0000
     1.0000   1.0000   1.0000   1.0000   1.0000   1.0000   1.0000   1.0000
     1.0000   1.0000   1.0000   1.0000   1.0000   1.0000   1.0000   1.0000
     1.0000   1.0000   1.0000   1.0000   1.0000   1.0000   1.0000   1.0000
     1.0000   1.0000   1.0000   1.0000   1.0000   1.0000   1.0000   1.0000
     1.0000   1.0000   1.0000   1.0000   1.0000   1.0000   1.0000   1.0000
     1.0000   1.0000   1.0000   1.0000   1.0000   1.0000

          k = 0.0476 0.2584 0.0000 ( 24992 PWs)   bands (ev):

   -35.7010 -35.7010 -35.7009 -35.7008 -35.6647 -35.6647 -35.6646 -35.6645
   -35.6007 -35.6007 -35.5704 -35.5704 -34.2430 -34.2430 -34.2428 -34.2428
   -34.2128 -34.2128 -34.2127 -34.2127 -34.1958 -34.1958 -34.1957 -34.1956
   -34.1398 -34.1398 -34.1209 -34.1209 -34.0999 -34.0999 -28.3587 -28.3586
   -28.3585 -28.3584 -28.3504 -28.3503 -28.3501 -28.3500 -27.1187 -27.1187
   -27.1186 -27.1185 -27.1114 -27.1113 -27.1111 -27.1110 -27.1074 -27.1073
   -27.1072 -27.1070 -10.3527 -10.3527  -9.8507  -9.8507  -8.9492  -8.9492
    -6.5564  -6.5564  -5.7651  -5.7651  -1.8872  -1.8870  -1.3943  -1.3942
    -1.0851  -1.0849  -0.7491  -0.7487  -0.4344  -0.4342   0.0163   0.0164
     0.5223   0.5224   0.7906   0.7908   1.4695   1.4697

     occupation numbers 
     1.0000   1.0000   1.0000   1.0000   1.0000   1.0000   1.0000   1.0000
     1.0000   1.0000   1.0000   1.0000   1.0000   1.0000   1.0000   1.0000
     1.0000   1.0000   1.0000   1.0000   1.0000   1.0000   1.0000   1.0000
     1.0000   1.0000   1.0000   1.0000   1.0000   1.0000   1.0000   1.0000
     1.0000   1.0000   1.0000   1.0000   1.0000   1.0000   1.0000   1.0000
     1.0000   1.0000   1.0000   1.0000   1.0000   1.0000   1.0000   1.0000
     1.0000   1.0000   1.0000   1.0000   1.0000   1.0000   1.0000   1.0000
     1.0000   1.0000   1.0000   1.0000   1.0000   1.0000   1.0000   1.0000
     1.0000   1.0000   1.0000   1.0000   1.0000   1.0000   1.0000   1.0000
     1.0000   1.0000   1.0000   1.0000   1.0000   1.0000

          k = 0.0476 0.3162 0.0000 ( 25024 PWs)   bands (ev):

   -35.7009 -35.7009 -35.7008 -35.7008 -35.6647 -35.6646 -35.6645 -35.6645
   -35.6007 -35.6007 -35.5704 -35.5704 -34.2429 -34.2428 -34.2427 -34.2427
   -34.2128 -34.2128 -34.2127 -34.2127 -34.1958 -34.1957 -34.1956 -34.1956
   -34.1397 -34.1397 -34.1209 -34.1209 -34.0998 -34.0998 -28.3585 -28.3585
   -28.3584 -28.3583 -28.3504 -28.3503 -28.3502 -28.3501 -27.1185 -27.1184
   -27.1184 -27.1183 -27.1113 -27.1112 -27.1110 -27.1110 -27.1075 -27.1074
   -27.1072 -27.1071 -10.1687 -10.1687  -9.6906  -9.6906  -8.8788  -8.8788
    -6.6607  -6.6606  -6.0344  -6.0343  -2.2573  -2.2571  -1.6096  -1.6094
    -1.2542  -1.2539  -0.9849  -0.9845  -0.6122  -0.6120  -0.0882  -0.0881
     0.3667   0.3668   0.6837   0.6839   1.3751   1.3754

     occupation numbers 
     1.0000   1.0000   1.0000   1.0000   1.0000   1.0000   1.0000   1.0000
     1.0000   1.0000   1.0000   1.0000   1.0000   1.0000   1.0000   1.0000
     1.0000   1.0000   1.0000   1.0000   1.0000   1.0000   1.0000   1.0000
     1.0000   1.0000   1.0000   1.0000   1.0000   1.0000   1.0000   1.0000
     1.0000   1.0000   1.0000   1.0000   1.0000   1.0000   1.0000   1.0000
     1.0000   1.0000   1.0000   1.0000   1.0000   1.0000   1.0000   1.0000
     1.0000   1.0000   1.0000   1.0000   1.0000   1.0000   1.0000   1.0000
     1.0000   1.0000   1.0000   1.0000   1.0000   1.0000   1.0000   1.0000
     1.0000   1.0000   1.0000   1.0000   1.0000   1.0000   1.0000   1.0000
     1.0000   1.0000   1.0000   1.0000   1.0000   1.0000

          k = 0.0476 0.3739 0.0000 ( 25032 PWs)   bands (ev):

   -35.7009 -35.7008 -35.7007 -35.7007 -35.6647 -35.6646 -35.6645 -35.6645
   -35.6007 -35.6007 -35.5703 -35.5703 -34.2428 -34.2427 -34.2426 -34.2426
   -34.2128 -34.2128 -34.2127 -34.2127 -34.1957 -34.1957 -34.1956 -34.1955
   -34.1397 -34.1397 -34.1209 -34.1209 -34.0997 -34.0997 -28.3584 -28.3583
   -28.3583 -28.3582 -28.3504 -28.3503 -28.3502 -28.3501 -27.1183 -27.1182
   -27.1182 -27.1181 -27.1113 -27.1112 -27.1110 -27.1109 -27.1075 -27.1074
   -27.1072 -27.1071  -9.9555  -9.9555  -9.5115  -9.5115  -8.8166  -8.8166
    -6.8105  -6.8105  -6.3094  -6.3094  -2.5750  -2.5749  -1.7660  -1.7659
    -1.4453  -1.4450  -1.1705  -1.1702  -0.7321  -0.7320  -0.2338  -0.2337
     0.2230   0.2233   0.6511   0.6513   1.2143   1.2145

     occupation numbers 
     1.0000   1.0000   1.0000   1.0000   1.0000   1.0000   1.0000   1.0000
     1.0000   1.0000   1.0000   1.0000   1.0000   1.0000   1.0000   1.0000
     1.0000   1.0000   1.0000   1.0000   1.0000   1.0000   1.0000   1.0000
     1.0000   1.0000   1.0000   1.0000   1.0000   1.0000   1.0000   1.0000
     1.0000   1.0000   1.0000   1.0000   1.0000   1.0000   1.0000   1.0000
     1.0000   1.0000   1.0000   1.0000   1.0000   1.0000   1.0000   1.0000
     1.0000   1.0000   1.0000   1.0000   1.0000   1.0000   1.0000   1.0000
     1.0000   1.0000   1.0000   1.0000   1.0000   1.0000   1.0000   1.0000
     1.0000   1.0000   1.0000   1.0000   1.0000   1.0000   1.0000   1.0000
     1.0000   1.0000   1.0000   1.0000   1.0000   1.0000

          k = 0.0476 0.4316 0.0000 ( 25028 PWs)   bands (ev):

   -35.7008 -35.7008 -35.7007 -35.7007 -35.6646 -35.6646 -35.6645 -35.6645
   -35.6007 -35.6007 -35.5703 -35.5703 -34.2427 -34.2427 -34.2425 -34.2425
   -34.2128 -34.2128 -34.2127 -34.2127 -34.1957 -34.1956 -34.1955 -34.1955
   -34.1397 -34.1397 -34.1209 -34.1209 -34.0995 -34.0995 -28.3583 -28.3582
   -28.3582 -28.3581 -28.3505 -28.3504 -28.3502 -28.3501 -27.1182 -27.1181
   -27.1180 -27.1179 -27.1113 -27.1112 -27.1110 -27.1109 -27.1075 -27.1074
   -27.1073 -27.1072  -9.7199  -9.7199  -9.3249  -9.3249  -8.7785  -8.7784
    -7.0022  -7.0022  -6.5605  -6.5605  -2.8279  -2.8278  -1.8680  -1.8679
    -1.6173  -1.6171  -1.3122  -1.3120  -0.8358  -0.8357  -0.3794  -0.3791
     0.1412   0.1415   0.6387   0.6388   1.0422   1.0424

     occupation numbers 
     1.0000   1.0000   1.0000   1.0000   1.0000   1.0000   1.0000   1.0000
     1.0000   1.0000   1.0000   1.0000   1.0000   1.0000   1.0000   1.0000
     1.0000   1.0000   1.0000   1.0000   1.0000   1.0000   1.0000   1.0000
     1.0000   1.0000   1.0000   1.0000   1.0000   1.0000   1.0000   1.0000
     1.0000   1.0000   1.0000   1.0000   1.0000   1.0000   1.0000   1.0000
     1.0000   1.0000   1.0000   1.0000   1.0000   1.0000   1.0000   1.0000
     1.0000   1.0000   1.0000   1.0000   1.0000   1.0000   1.0000   1.0000
     1.0000   1.0000   1.0000   1.0000   1.0000   1.0000   1.0000   1.0000
     1.0000   1.0000   1.0000   1.0000   1.0000   1.0000   1.0000   1.0000
     1.0000   1.0000   1.0000   1.0000   1.0000   1.0000

          k = 0.0476 0.4894 0.0000 ( 25042 PWs)   bands (ev):

   -35.7008 -35.7007 -35.7006 -35.7006 -35.6646 -35.6646 -35.6645 -35.6645
   -35.6007 -35.6007 -35.5702 -35.5702 -34.2426 -34.2426 -34.2425 -34.2424
   -34.2129 -34.2128 -34.2127 -34.2127 -34.1956 -34.1956 -34.1955 -34.1954
   -34.1397 -34.1397 -34.1209 -34.1209 -34.0995 -34.0995 -28.3582 -28.3582
   -28.3581 -28.3580 -28.3505 -28.3504 -28.3503 -28.3502 -27.1180 -27.1179
   -27.1179 -27.1178 -27.1112 -27.1112 -27.1110 -27.1109 -27.1075 -27.1074
   -27.1073 -27.1072  -9.4723  -9.4723  -9.1498  -9.1498  -8.7854  -8.7853
[...]
   -27.1069 -27.1069  -9.0839  -9.0839  -9.0664  -9.0664  -9.0302  -9.0301
    -7.4666  -7.4666  -6.9379  -6.9378  -3.1493  -3.1493  -1.8964  -1.8959
    -1.7656  -1.7651  -1.4428  -1.4427  -0.9969  -0.9965  -0.4224  -0.4221
     0.1517   0.1519   0.7167   0.7167   0.9832   0.9833

     occupation numbers 
     1.0000   1.0000   1.0000   1.0000   1.0000   1.0000   1.0000   1.0000
     1.0000   1.0000   1.0000   1.0000   1.0000   1.0000   1.0000   1.0000
     1.0000   1.0000   1.0000   1.0000   1.0000   1.0000   1.0000   1.0000
     1.0000   1.0000   1.0000   1.0000   1.0000   1.0000   1.0000   1.0000
     1.0000   1.0000   1.0000   1.0000   1.0000   1.0000   1.0000   1.0000
     1.0000   1.0000   1.0000   1.0000   1.0000   1.0000   1.0000   1.0000
     1.0000   1.0000   1.0000   1.0000   1.0000   1.0000   1.0000   1.0000
     1.0000   1.0000   1.0000   1.0000   1.0000   1.0000   1.0000   1.0000
     1.0000   1.0000   1.0000   1.0000   1.0000   1.0000   1.0000   1.0000
     1.0000   1.0000   1.0000   1.0000   1.0000   1.0000

          k = 0.4762-0.3024 0.0000 ( 25011 PWs)   bands (ev):

   -35.7008 -35.7008 -35.7006 -35.7006 -35.6646 -35.6646 -35.6645 -35.6645
   -35.6006 -35.6006 -35.5702 -35.5702 -34.2426 -34.2426 -34.2425 -34.2425
   -34.2128 -34.2128 -34.2127 -34.2127 -34.1956 -34.1956 -34.1955 -34.1955
   -34.1396 -34.1396 -34.1210 -34.1210 -34.0995 -34.0995 -28.3583 -28.3583
   -28.3582 -28.3581 -28.3504 -28.3504 -28.3502 -28.3501 -27.1180 -27.1180
   -27.1179 -27.1179 -27.1116 -27.1116 -27.1114 -27.1114 -27.1072 -27.1071
   -27.1069 -27.1069  -9.1831  -9.1831  -9.0542  -9.0542  -8.9958  -8.9958
    -7.4491  -7.4491  -6.9041  -6.9041  -3.1531  -3.1531  -1.8625  -1.8623
    -1.7570  -1.7569  -1.3401  -1.3401  -1.0332  -1.0332  -0.3470  -0.3470
     0.0853   0.0853   0.7338   0.7338   0.9652   0.9653

     occupation numbers 
     1.0000   1.0000   1.0000   1.0000   1.0000   1.0000   1.0000   1.0000
     1.0000   1.0000   1.0000   1.0000   1.0000   1.0000   1.0000   1.0000
     1.0000   1.0000   1.0000   1.0000   1.0000   1.0000   1.0000   1.0000
     1.0000   1.0000   1.0000   1.0000   1.0000   1.0000   1.0000   1.0000
     1.0000   1.0000   1.0000   1.0000   1.0000   1.0000   1.0000   1.0000
     1.0000   1.0000   1.0000   1.0000   1.0000   1.0000   1.0000   1.0000
     1.0000   1.0000   1.0000   1.0000   1.0000   1.0000   1.0000   1.0000
     1.0000   1.0000   1.0000   1.0000   1.0000   1.0000   1.0000   1.0000
     1.0000   1.0000   1.0000   1.0000   1.0000   1.0000   1.0000   1.0000
     1.0000   1.0000   1.0000   1.0000   1.0000   1.0000

          k = 0.4762-0.2447 0.0000 ( 25008 PWs)   bands (ev):

   -35.7008 -35.7008 -35.7006 -35.7006 -35.6646 -35.6646 -35.6645 -35.6645
   -35.6006 -35.6006 -35.5702 -35.5702 -34.2426 -34.2426 -34.2425 -34.2425
   -34.2129 -34.2128 -34.2127 -34.2127 -34.1956 -34.1956 -34.1955 -34.1955
   -34.1396 -34.1396 -34.1210 -34.1210 -34.0995 -34.0995 -28.3584 -28.3583
   -28.3582 -28.3581 -28.3504 -28.3503 -28.3502 -28.3501 -27.1181 -27.1180
   -27.1179 -27.1179 -27.1116 -27.1116 -27.1114 -27.1113 -27.1072 -27.1071
   -27.1069 -27.1069  -9.2923  -9.2923  -9.0842  -9.0842  -8.9138  -8.9138
    -7.4053  -7.4053  -6.8927  -6.8927  -3.1107  -3.1107  -1.9226  -1.9223
    -1.6965  -1.6963  -1.4365  -1.4363  -0.9594  -0.9591  -0.4241  -0.4238
     0.1658   0.1661   0.7290   0.7291   1.0044   1.0045

     occupation numbers 
     1.0000   1.0000   1.0000   1.0000   1.0000   1.0000   1.0000   1.0000
     1.0000   1.0000   1.0000   1.0000   1.0000   1.0000   1.0000   1.0000
     1.0000   1.0000   1.0000   1.0000   1.0000   1.0000   1.0000   1.0000
     1.0000   1.0000   1.0000   1.0000   1.0000   1.0000   1.0000   1.0000
     1.0000   1.0000   1.0000   1.0000   1.0000   1.0000   1.0000   1.0000
     1.0000   1.0000   1.0000   1.0000   1.0000   1.0000   1.0000   1.0000
     1.0000   1.0000   1.0000   1.0000   1.0000   1.0000   1.0000   1.0000
     1.0000   1.0000   1.0000   1.0000   1.0000   1.0000   1.0000   1.0000
     1.0000   1.0000   1.0000   1.0000   1.0000   1.0000   1.0000   1.0000
     1.0000   1.0000   1.0000   1.0000   1.0000   1.0000

          k = 0.4762-0.1870 0.0000 ( 24947 PWs)   bands (ev):

   -35.7008 -35.7008 -35.7007 -35.7006 -35.6646 -35.6646 -35.6645 -35.6645
   -35.6006 -35.6006 -35.5703 -35.5703 -34.2427 -34.2426 -34.2425 -34.2425
   -34.2129 -34.2128 -34.2127 -34.2127 -34.1956 -34.1956 -34.1955 -34.1955
   -34.1396 -34.1396 -34.1209 -34.1209 -34.0995 -34.0995 -28.3584 -28.3583
   -28.3582 -28.3581 -28.3504 -28.3503 -28.3502 -28.3501 -27.1181 -27.1180
   -27.1179 -27.1178 -27.1117 -27.1116 -27.1114 -27.1113 -27.1072 -27.1071
   -27.1069 -27.1069  -9.3863  -9.3863  -9.1190  -9.1190  -8.8427  -8.8427
    -7.3402  -7.3401  -6.9048  -6.9048  -3.0265  -3.0264  -1.9578  -1.9574
    -1.7666  -1.7660  -1.5597  -1.5595  -0.8497  -0.8496  -0.5675  -0.5673
     0.2618   0.2621   0.7222   0.7224   1.1517   1.1519

     occupation numbers 
     1.0000   1.0000   1.0000   1.0000   1.0000   1.0000   1.0000   1.0000
     1.0000   1.0000   1.0000   1.0000   1.0000   1.0000   1.0000   1.0000
     1.0000   1.0000   1.0000   1.0000   1.0000   1.0000   1.0000   1.0000
     1.0000   1.0000   1.0000   1.0000   1.0000   1.0000   1.0000   1.0000
     1.0000   1.0000   1.0000   1.0000   1.0000   1.0000   1.0000   1.0000
     1.0000   1.0000   1.0000   1.0000   1.0000   1.0000   1.0000   1.0000
     1.0000   1.0000   1.0000   1.0000   1.0000   1.0000   1.0000   1.0000
     1.0000   1.0000   1.0000   1.0000   1.0000   1.0000   1.0000   1.0000
     1.0000   1.0000   1.0000   1.0000   1.0000   1.0000   1.0000   1.0000
     1.0000   1.0000   1.0000   1.0000   1.0000   1.0000

          k = 0.4762-0.1292 0.0000 ( 24946 PWs)   bands (ev):

   -35.7008 -35.7008 -35.7007 -35.7006 -35.6646 -35.6646 -35.6645 -35.6645
   -35.6006 -35.6006 -35.5703 -35.5703 -34.2427 -34.2426 -34.2425 -34.2425
   -34.2129 -34.2128 -34.2127 -34.2127 -34.1957 -34.1956 -34.1955 -34.1955
   -34.1396 -34.1396 -34.1209 -34.1209 -34.0996 -34.0996 -28.3585 -28.3584
   -28.3582 -28.3581 -28.3504 -28.3503 -28.3502 -28.3501 -27.1182 -27.1181
   -27.1179 -27.1178 -27.1117 -27.1116 -27.1114 -27.1113 -27.1072 -27.1071
   -27.1070 -27.1069  -9.4596  -9.4595  -9.1526  -9.1526  -8.7906  -8.7906
    -7.2627  -7.2627  -6.9393  -6.9393  -2.9050  -2.9050  -2.0942  -2.0940
    -1.8076  -1.8073  -1.6069  -1.6067  -0.8772  -0.8768  -0.6466  -0.6462
     0.3480   0.3483   0.7917   0.7918   1.2769   1.2770

     occupation numbers 
     1.0000   1.0000   1.0000   1.0000   1.0000   1.0000   1.0000   1.0000
     1.0000   1.0000   1.0000   1.0000   1.0000   1.0000   1.0000   1.0000
     1.0000   1.0000   1.0000   1.0000   1.0000   1.0000   1.0000   1.0000
     1.0000   1.0000   1.0000   1.0000   1.0000   1.0000   1.0000   1.0000
     1.0000   1.0000   1.0000   1.0000   1.0000   1.0000   1.0000   1.0000
     1.0000   1.0000   1.0000   1.0000   1.0000   1.0000   1.0000   1.0000
     1.0000   1.0000   1.0000   1.0000   1.0000   1.0000   1.0000   1.0000
     1.0000   1.0000   1.0000   1.0000   1.0000   1.0000   1.0000   1.0000
     1.0000   1.0000   1.0000   1.0000   1.0000   1.0000   1.0000   1.0000
     1.0000   1.0000   1.0000   1.0000   1.0000   1.0000

          k = 0.4762-0.0715 0.0000 ( 24946 PWs)   bands (ev):

   -35.7008 -35.7008 -35.7007 -35.7006 -35.6646 -35.6646 -35.6645 -35.6645
   -35.6006 -35.6006 -35.5703 -35.5703 -34.2427 -34.2426 -34.2426 -34.2425
   -34.2129 -34.2128 -34.2127 -34.2127 -34.1957 -34.1957 -34.1955 -34.1955
   -34.1396 -34.1396 -34.1209 -34.1209 -34.0996 -34.0996 -28.3586 -28.3585
   -28.3582 -28.3581 -28.3503 -28.3503 -28.3502 -28.3501 -27.1182 -27.1181
   -27.1179 -27.1178 -27.1118 -27.1117 -27.1114 -27.1113 -27.1072 -27.1071
   -27.1070 -27.1069  -9.5085  -9.5084  -9.1799  -9.1799  -8.7630  -8.7629
    -7.1891  -7.1891  -6.9872  -6.9871  -2.7480  -2.7480  -2.3275  -2.3275
    -1.7539  -1.7537  -1.5615  -1.5613  -1.1024  -1.1021  -0.6025  -0.6023
     0.4559   0.4562   0.9110   0.9112   1.2571   1.2571

     occupation numbers 
     1.0000   1.0000   1.0000   1.0000   1.0000   1.0000   1.0000   1.0000
     1.0000   1.0000   1.0000   1.0000   1.0000   1.0000   1.0000   1.0000
     1.0000   1.0000   1.0000   1.0000   1.0000   1.0000   1.0000   1.0000
     1.0000   1.0000   1.0000   1.0000   1.0000   1.0000   1.0000   1.0000
     1.0000   1.0000   1.0000   1.0000   1.0000   1.0000   1.0000   1.0000
     1.0000   1.0000   1.0000   1.0000   1.0000   1.0000   1.0000   1.0000
     1.0000   1.0000   1.0000   1.0000   1.0000   1.0000   1.0000   1.0000
     1.0000   1.0000   1.0000   1.0000   1.0000   1.0000   1.0000   1.0000
     1.0000   1.0000   1.0000   1.0000   1.0000   1.0000   1.0000   1.0000
     1.0000   1.0000   1.0000   1.0000   1.0000   1.0000

          k = 0.4762-0.0137 0.0000 ( 24963 PWs)   bands (ev):

   -35.7008 -35.7008 -35.7007 -35.7006 -35.6647 -35.6646 -35.6645 -35.6645
   -35.6006 -35.6006 -35.5703 -35.5703 -34.2427 -34.2426 -34.2426 -34.2425
   -34.2128 -34.2128 -34.2127 -34.2127 -34.1957 -34.1957 -34.1956 -34.1955
   -34.1396 -34.1396 -34.1209 -34.1209 -34.0996 -34.0996 -28.3586 -28.3585
   -28.3583 -28.3582 -28.3503 -28.3502 -28.3501 -28.3501 -27.1183 -27.1182
   -27.1180 -27.1179 -27.1118 -27.1117 -27.1113 -27.1112 -27.1072 -27.1071
   -27.1070 -27.1069  -9.5308  -9.5308  -9.1974  -9.1974  -8.7623  -8.7623
    -7.1641  -7.1641  -7.0087  -7.0086  -2.6045  -2.6044  -2.4954  -2.4954
    -1.7329  -1.7327  -1.4493  -1.4491  -1.2584  -1.2583  -0.5834  -0.5833
     0.5220   0.5222   1.0241   1.0244   1.1878   1.1879

     occupation numbers 
     1.0000   1.0000   1.0000   1.0000   1.0000   1.0000   1.0000   1.0000
     1.0000   1.0000   1.0000   1.0000   1.0000   1.0000   1.0000   1.0000
     1.0000   1.0000   1.0000   1.0000   1.0000   1.0000   1.0000   1.0000
     1.0000   1.0000   1.0000   1.0000   1.0000   1.0000   1.0000   1.0000
     1.0000   1.0000   1.0000   1.0000   1.0000   1.0000   1.0000   1.0000
     1.0000   1.0000   1.0000   1.0000   1.0000   1.0000   1.0000   1.0000
     1.0000   1.0000   1.0000   1.0000   1.0000   1.0000   1.0000   1.0000
     1.0000   1.0000   1.0000   1.0000   1.0000   1.0000   1.0000   1.0000
     1.0000   1.0000   1.0000   1.0000   1.0000   1.0000   1.0000   1.0000
     1.0000   1.0000   1.0000   1.0000   1.0000   1.0000

          k = 0.4762 0.0440 0.0000 ( 24957 PWs)   bands (ev):

   -35.7008 -35.7008 -35.7007 -35.7006 -35.6647 -35.6646 -35.6645 -35.6645
   -35.6006 -35.6006 -35.5703 -35.5703 -34.2427 -34.2427 -34.2426 -34.2425
   -34.2128 -34.2128 -34.2127 -34.2127 -34.1957 -34.1957 -34.1956 -34.1956
   -34.1396 -34.1396 -34.1209 -34.1209 -34.0997 -34.0997 -28.3587 -28.3586
   -28.3583 -28.3582 -28.3503 -28.3502 -28.3501 -28.3500 -27.1184 -27.1183
   -27.1181 -27.1180 -27.1117 -27.1116 -27.1113 -27.1112 -27.1071 -27.1071
   -27.1070 -27.1069  -9.5258  -9.5258  -9.2035  -9.2035  -8.7881  -8.7881
    -7.2209  -7.2209  -6.9714  -6.9714  -2.7552  -2.7552  -2.3038  -2.3038
    -1.7212  -1.7207  -1.5466  -1.5462  -1.0747  -1.0746  -0.5867  -0.5866
     0.4934   0.4936   0.9545   0.9546   1.3147   1.3148

     occupation numbers 
     1.0000   1.0000   1.0000   1.0000   1.0000   1.0000   1.0000   1.0000
     1.0000   1.0000   1.0000   1.0000   1.0000   1.0000   1.0000   1.0000
     1.0000   1.0000   1.0000   1.0000   1.0000   1.0000   1.0000   1.0000
     1.0000   1.0000   1.0000   1.0000   1.0000   1.0000   1.0000   1.0000
     1.0000   1.0000   1.0000   1.0000   1.0000   1.0000   1.0000   1.0000
     1.0000   1.0000   1.0000   1.0000   1.0000   1.0000   1.0000   1.0000
     1.0000   1.0000   1.0000   1.0000   1.0000   1.0000   1.0000   1.0000
     1.0000   1.0000   1.0000   1.0000   1.0000   1.0000   1.0000   1.0000
     1.0000   1.0000   1.0000   1.0000   1.0000   1.0000   1.0000   1.0000
     1.0000   1.0000   1.0000   1.0000   1.0000   1.0000

          k = 0.4762 0.1017 0.0000 ( 24961 PWs)   bands (ev):

   -35.7008 -35.7008 -35.7007 -35.7006 -35.6647 -35.6646 -35.6645 -35.6645
   -35.6006 -35.6006 -35.5704 -35.5704 -34.2427 -34.2427 -34.2426 -34.2425
   -34.2128 -34.2128 -34.2127 -34.2127 -34.1957 -34.1957 -34.1956 -34.1956
   -34.1396 -34.1396 -34.1209 -34.1209 -34.0997 -34.0997 -28.3587 -28.3586
   -28.3584 -28.3583 -28.3503 -28.3502 -28.3501 -28.3500 -27.1184 -27.1183
   -27.1182 -27.1181 -27.1117 -27.1116 -27.1113 -27.1112 -27.1071 -27.1071
   -27.1069 -27.1069  -9.4936  -9.4936  -9.1984  -9.1984  -8.8374  -8.8374
    -7.3034  -7.3034  -6.9282  -6.9282  -2.9062  -2.9062  -2.0836  -2.0836
    -1.7485  -1.7481  -1.5397  -1.5394  -0.8791  -0.8789  -0.5612  -0.5611
     0.4171   0.4173   0.8600   0.8602   1.4054   1.4054

     occupation numbers 
     1.0000   1.0000   1.0000   1.0000   1.0000   1.0000   1.0000   1.0000
     1.0000   1.0000   1.0000   1.0000   1.0000   1.0000   1.0000   1.0000
     1.0000   1.0000   1.0000   1.0000   1.0000   1.0000   1.0000   1.0000
     1.0000   1.0000   1.0000   1.0000   1.0000   1.0000   1.0000   1.0000
     1.0000   1.0000   1.0000   1.0000   1.0000   1.0000   1.0000   1.0000
     1.0000   1.0000   1.0000   1.0000   1.0000   1.0000   1.0000   1.0000
     1.0000   1.0000   1.0000   1.0000   1.0000   1.0000   1.0000   1.0000
     1.0000   1.0000   1.0000   1.0000   1.0000   1.0000   1.0000   1.0000
     1.0000   1.0000   1.0000   1.0000   1.0000   1.0000   1.0000   1.0000
     1.0000   1.0000   1.0000   1.0000   1.0000   1.0000

          k = 0.4762 0.1595 0.0000 ( 24986 PWs)   bands (ev):

   -35.7008 -35.7008 -35.7007 -35.7007 -35.6647 -35.6647 -35.6645 -35.6645
   -35.6006 -35.6006 -35.5704 -35.5704 -34.2427 -34.2427 -34.2426 -34.2425
   -34.2128 -34.2128 -34.2127 -34.2127 -34.1957 -34.1957 -34.1956 -34.1956
   -34.1396 -34.1396 -34.1209 -34.1209 -34.0997 -34.0997 -28.3587 -28.3586
   -28.3584 -28.3583 -28.3503 -28.3502 -28.3500 -28.3500 -27.1185 -27.1184
   -27.1183 -27.1182 -27.1116 -27.1115 -27.1112 -27.1112 -27.1071 -27.1071
   -27.1069 -27.1069  -9.4357  -9.4357  -9.1842  -9.1842  -8.9050  -8.9050
    -7.3822  -7.3822  -6.9013  -6.9013  -3.0244  -3.0244  -1.9673  -1.9673
    -1.6997  -1.6995  -1.4477  -1.4475  -0.8028  -0.8027  -0.4660  -0.4660
     0.3445   0.3448   0.8296   0.8297   1.3189   1.3190

     occupation numbers 
     1.0000   1.0000   1.0000   1.0000   1.0000   1.0000   1.0000   1.0000
     1.0000   1.0000   1.0000   1.0000   1.0000   1.0000   1.0000   1.0000
     1.0000   1.0000   1.0000   1.0000   1.0000   1.0000   1.0000   1.0000
     1.0000   1.0000   1.0000   1.0000   1.0000   1.0000   1.0000   1.0000
     1.0000   1.0000   1.0000   1.0000   1.0000   1.0000   1.0000   1.0000
     1.0000   1.0000   1.0000   1.0000   1.0000   1.0000   1.0000   1.0000
     1.0000   1.0000   1.0000   1.0000   1.0000   1.0000   1.0000   1.0000
     1.0000   1.0000   1.0000   1.0000   1.0000   1.0000   1.0000   1.0000
     1.0000   1.0000   1.0000   1.0000   1.0000   1.0000   1.0000   1.0000
     1.0000   1.0000   1.0000   1.0000   1.0000   1.0000

          k = 0.4762 0.2172 0.0000 ( 24978 PWs)   bands (ev):

   -35.7008 -35.7008 -35.7007 -35.7007 -35.6647 -35.6647 -35.6645 -35.6645
   -35.6006 -35.6006 -35.5704 -35.5704 -34.2427 -34.2427 -34.2426 -34.2426
   -34.2128 -34.2128 -34.2127 -34.2127 -34.1957 -34.1957 -34.1956 -34.1956
   -34.1396 -34.1396 -34.1209 -34.1209 -34.0997 -34.0997 -28.3586 -28.3586
   -28.3585 -28.3584 -28.3503 -28.3502 -28.3500 -28.3500 -27.1185 -27.1184
   -27.1184 -27.1183 -27.1116 -27.1115 -27.1112 -27.1112 -27.1071 -27.1071
   -27.1068 -27.1068  -9.3550  -9.3550  -9.1641  -9.1641  -8.9839  -8.9839
    -7.4456  -7.4456  -6.8943  -6.8943  -3.1063  -3.1063  -1.9237  -1.9236
    -1.6656  -1.6654  -1.3009  -1.3007  -0.8052  -0.8052  -0.3613  -0.3612
     0.2622   0.2625   0.8789   0.8791   1.1663   1.1664

     occupation numbers 
     1.0000   1.0000   1.0000   1.0000   1.0000   1.0000   1.0000   1.0000
     1.0000   1.0000   1.0000   1.0000   1.0000   1.0000   1.0000   1.0000
     1.0000   1.0000   1.0000   1.0000   1.0000   1.0000   1.0000   1.0000
     1.0000   1.0000   1.0000   1.0000   1.0000   1.0000   1.0000   1.0000
     1.0000   1.0000   1.0000   1.0000   1.0000   1.0000   1.0000   1.0000
     1.0000   1.0000   1.0000   1.0000   1.0000   1.0000   1.0000   1.0000
     1.0000   1.0000   1.0000   1.0000   1.0000   1.0000   1.0000   1.0000
     1.0000   1.0000   1.0000   1.0000   1.0000   1.0000   1.0000   1.0000
     1.0000   1.0000   1.0000   1.0000   1.0000   1.0000   1.0000   1.0000
     1.0000   1.0000   1.0000   1.0000   1.0000   1.0000

     highest occupied level (ev):     1.5811

!    total energy              =    -806.66685220 Ry
     estimated scf accuracy    <       0.00000004 Ry

     The total energy is the sum of the following terms:
     one-electron contribution =   -3368.29679165 Ry
     hartree contribution      =    1678.70360757 Ry
     xc contribution           =     -87.13012480 Ry
     ewald contribution        =     970.15133345 Ry
     Dispersion Correction     =      -0.09487676 Ry

     convergence has been achieved in  12 iterations

     Writing all to output data dir tmp/Sb2Te3-uatsx-c5-soc-5.0.save/ :
     XML data file, charge density, pseudopotentials, collected wavefunctions

     init_run     :     60.37s CPU     32.81s WALL (       1 calls)
     electrons    :   3302.53s CPU   1746.87s WALL (       1 calls)

     Called by init_run:
     wfcinit      :     59.10s CPU     31.54s WALL (       1 calls)
     wfcinit:wfcr :     56.17s CPU     29.30s WALL (     221 calls)
     potinit      :      0.26s CPU      0.23s WALL (       1 calls)
     hinit0       :      0.82s CPU      0.84s WALL (       1 calls)

     Called by electrons:
     c_bands      :   2974.04s CPU   1579.53s WALL (      13 calls)
     sum_band     :    326.60s CPU    165.88s WALL (      13 calls)
     v_of_rho     :      0.99s CPU      0.68s WALL (      13 calls)
     v_h          :      0.08s CPU      0.05s WALL (      13 calls)
     v_xc         :      0.90s CPU      0.63s WALL (      13 calls)
     mix_rho      :      0.50s CPU      0.32s WALL (      13 calls)
     energy_londo :      0.02s CPU      0.01s WALL (       1 calls)

     Called by c_bands:
     init_us_2    :     13.12s CPU      8.27s WALL (    5967 calls)
     cegterg      :   2874.02s CPU   1518.57s WALL (    2873 calls)

     Called by sum_band:
     sum_band:wei :      0.00s CPU      0.00s WALL (      13 calls)
     sum_band:loo :    326.30s CPU    165.71s WALL (      13 calls)
     sum_band:buf :      5.61s CPU      3.18s WALL (    2873 calls)
     sum_band:ini :      7.52s CPU      3.99s WALL (    2873 calls)

     Called by *egterg:
     cdiaghg      :    230.96s CPU    148.68s WALL (   18483 calls)
     cegterg:over :    149.08s CPU     79.80s WALL (   15831 calls)
     cegterg:upda :     72.65s CPU     34.80s WALL (   15831 calls)
     cegterg:last :    106.65s CPU     53.78s WALL (    7832 calls)
     h_psi        :   2246.43s CPU   1154.66s WALL (   18925 calls)
     g_psi        :      8.77s CPU      5.62s WALL (   15831 calls)

     Called by h_psi:
     h_psi:calbec :    135.33s CPU     70.35s WALL (   18925 calls)
     vloc_psi     :   2009.15s CPU   1023.48s WALL (   18925 calls)
     add_vuspsi   :     95.82s CPU     57.09s WALL (   18925 calls)

     General routines
     calbec       :    135.21s CPU     70.29s WALL (   18925 calls)
     fft          :      2.06s CPU      1.65s WALL (     301 calls)
     ffts         :      0.24s CPU      0.20s WALL (     104 calls)
     fftw         :   1771.63s CPU    889.69s WALL ( 3363444 calls)
     interpolate  :      0.43s CPU      0.30s WALL (      52 calls)

     Parallel routines

     PWSCF        :  56m25.68s CPU  31m31.80s WALL


   This run was terminated on:   3: 2:53  23Aug2025            

=------------------------------------------------------------------------------=
   JOB DONE.
=------------------------------------------------------------------------------=
