
     Program PWSCF v.7.4.1 starts on 14Aug2025 at 18:18:28 

     This program is part of the open-source Quantum ESPRESSO suite
     for quantum simulation of materials; please cite
         "P. Giannozzi et al., J. Phys.:Condens. Matter 21 395502 (2009);
         "P. Giannozzi et al., J. Phys.:Condens. Matter 29 465901 (2017);
         "P. Giannozzi et al., J. Chem. Phys. 152 154105 (2020);
          URL http://www.quantum-espresso.org", 
     in publications or presentations arising from this work. More details at
     http://www.quantum-espresso.org/quote

     Parallel version (MPI & OpenMP), running on      48 processor cores
     Number of MPI processes:                24
     Threads/MPI process:                     2

     MPI processes distributed on     2 nodes
     74438 MiB available memory on the printing compute node when the environment starts

     Waiting for input...
     Reading input from standard input

     Current dimensions of program PWSCF are:
     Max number of different atomic species (ntypx) = 10
     Max number of k-points (npk) =  40000
     Max angular momentum in pseudopotentials (lmaxx) =  4
Error reading attribute index: expected integer, found *
Error reading attribute index: expected integer, found *

     IMPORTANT: XC functional enforced from input :
     Exchange-correlation= PBE
                           (   1   4   3   4   0   0   0)
     Any further DFT definition will be discarded
     Please, verify this is what you really want

     Message from routine setup:
     no reason to have ecutrho>4*ecutwfc

     R & G space division:  proc/nbgrp/npool/nimage =      24
     Subspace diagonalization in iterative solution of the eigenvalue problem:
     a serial algorithm will be used


     Parallelization info
     --------------------
     sticks:   dense  smooth     PW     G-vecs:    dense   smooth      PW
     Min          99      40     12                19863     5026     838
     Max         100      41     13                19886     5041     847
     Sum        2397     963    293               477063   120743   20163

     Using Slab Decomposition



     bravais-lattice index     =            0
     lattice parameter (alat)  =       8.5529  a.u.
     unit-cell volume          =    2526.9262 (a.u.)^3
     number of atoms/cell      =            5
     number of atomic types    =            2
     number of electrons       =        78.00
     number of Kohn-Sham states=           78
     kinetic-energy cutoff     =      50.0000  Ry
     charge density cutoff     =     500.0000  Ry
     scf convergence threshold =      1.0E-07
     mixing beta               =       0.7000
     number of iterations used =            8  plain     mixing
     Exchange-correlation= PBE
                           (   1   4   3   4   0   0   0)
     Non magnetic calculation with spin-orbit


     celldm(1)=   8.552915  celldm(2)=   0.000000  celldm(3)=   0.000000
     celldm(4)=   0.000000  celldm(5)=   0.000000  celldm(6)=   0.000000

     crystal axes: (cart. coord. in units of alat)
               a(1) = (   1.000000   0.000000   0.000000 )  
               a(2) = (  -0.476190   0.824778   0.000000 )  
               a(3) = (   0.000000   0.000000   4.896807 )  

     reciprocal axes: (cart. coord. in units 2 pi/alat)
               b(1) = (  1.000000  0.577356 -0.000000 )  
               b(2) = (  0.000000  1.212447  0.000000 )  
               b(3) = (  0.000000 -0.000000  0.204215 )  


     PseudoPot. # 1 for Sb read from file:
     /zfs-home/202401017n1/pseudos/Sb_ONCV_PBE_FR-1.1.upf
     MD5 check sum: 7dc1726f2158e3c51e4807d42b9c5c65
     Pseudo is Norm-conserving, Zval = 15.0
     Generated using ONCVPSP code by D. R. Hamann
     Using radial grid of  602 points, 10 beta functions with: 
                l(1) =   0
                l(2) =   0
                l(3) =   1
                l(4) =   1
                l(5) =   1
                l(6) =   1
                l(7) =   2
                l(8) =   2
                l(9) =   2
               l(10) =   2

     PseudoPot. # 2 for Te read from file:
     /zfs-home/202401017n1/pseudos/Te_ONCV_PBE_FR-1.1.upf
     MD5 check sum: c6e17480449037a9a9d16e6377b5c7c4
     Pseudo is Norm-conserving, Zval = 16.0
     Generated using ONCVPSP code by D. R. Hamann
     Using radial grid of  602 points, 10 beta functions with: 
                l(1) =   0
                l(2) =   0
                l(3) =   1
                l(4) =   1
                l(5) =   1
                l(6) =   1
                l(7) =   2
                l(8) =   2
                l(9) =   2
               l(10) =   2

     atomic species   valence    mass     pseudopotential
     Sb               15.00   121.76000     Sb( 1.00)
     Te               16.00   127.60000     Te( 1.00)

     No symmetry found


                                    s                        frac. trans.

      isym =  1     identity                                     

 cryst.   s( 1) = (     1          0          0      )
                  (     0          1          0      )
                  (     0          0          1      )

 cart.    s( 1) = (  1.0000000  0.0000000  0.0000000 )
                  (  0.0000000  1.0000000  0.0000000 )
                  (  0.0000000  0.0000000  1.0000000 )


   Cartesian axes

     site n.     atom                  positions (alat units)
         1        Sb     tau(   1) = (   0.5941563   0.4140600   2.8819763  )
         2        Te     tau(   2) = (   0.5757813   0.3831770   1.6487259  )
         3        Sb     tau(   3) = (   0.0713597   0.1150985   2.0147862  )
         4        Te     tau(   4) = (   0.0896521   0.1461334   3.2480478  )
         5        Te     tau(   5) = (   0.0946223   0.6770376   2.4483865  )

   Crystallographic axes

     site n.     atom                  positions (cryst. coord.)
         1        Sb     tau(   1) = (  0.8332162  0.5020259  0.5885420  )
         2        Te     tau(   2) = (  0.7970108  0.4645820  0.3366941  )
         3        Sb     tau(   3) = (  0.1378125  0.1395508  0.4114490  )
         4        Te     tau(   4) = (  0.1740231  0.1771791  0.6632992  )
         5        Te     tau(   5) = (  0.4855140  0.8208724  0.4999966  )

     number of k points=   221
                       cart. coord. in units 2pi/alat
        k(    1) = (   0.0000000   0.0000000   0.0000000), wk =   0.0022676
        k(    2) = (   0.0000000   0.0577356   0.0000000), wk =   0.0045351
        k(    3) = (   0.0000000   0.1154712   0.0000000), wk =   0.0045351
        k(    4) = (   0.0000000   0.1732068   0.0000000), wk =   0.0045351
        k(    5) = (   0.0000000   0.2309423   0.0000000), wk =   0.0045351
        k(    6) = (   0.0000000   0.2886779   0.0000000), wk =   0.0045351
        k(    7) = (   0.0000000   0.3464135   0.0000000), wk =   0.0045351
        k(    8) = (   0.0000000   0.4041491   0.0000000), wk =   0.0045351
        k(    9) = (   0.0000000   0.4618847   0.0000000), wk =   0.0045351
        k(   10) = (   0.0000000   0.5196203   0.0000000), wk =   0.0045351
        k(   11) = (   0.0000000   0.5773559   0.0000000), wk =   0.0045351
        k(   12) = (   0.0476190   0.0274931   0.0000000), wk =   0.0045351
        k(   13) = (   0.0476190   0.0852287   0.0000000), wk =   0.0045351
        k(   14) = (   0.0476190   0.1429643   0.0000000), wk =   0.0045351
        k(   15) = (   0.0476190   0.2006999   0.0000000), wk =   0.0045351
        k(   16) = (   0.0476190   0.2584355   0.0000000), wk =   0.0045351
        k(   17) = (   0.0476190   0.3161711   0.0000000), wk =   0.0045351
        k(   18) = (   0.0476190   0.3739066   0.0000000), wk =   0.0045351
        k(   19) = (   0.0476190   0.4316422   0.0000000), wk =   0.0045351
        k(   20) = (   0.0476190   0.4893778   0.0000000), wk =   0.0045351
        k(   21) = (   0.0476190   0.5471134   0.0000000), wk =   0.0045351
        k(   22) = (   0.0476190   0.6048490   0.0000000), wk =   0.0045351
        k(   23) = (   0.0476190  -0.5498627   0.0000000), wk =   0.0045351
        k(   24) = (   0.0476190  -0.4921271   0.0000000), wk =   0.0045351
        k(   25) = (   0.0476190  -0.4343915   0.0000000), wk =   0.0045351
        k(   26) = (   0.0476190  -0.3766560   0.0000000), wk =   0.0045351
        k(   27) = (   0.0476190  -0.3189204   0.0000000), wk =   0.0045351
        k(   28) = (   0.0476190  -0.2611848   0.0000000), wk =   0.0045351
        k(   29) = (   0.0476190  -0.2034492   0.0000000), wk =   0.0045351
        k(   30) = (   0.0476190  -0.1457136   0.0000000), wk =   0.0045351
        k(   31) = (   0.0476190  -0.0879780   0.0000000), wk =   0.0045351
        k(   32) = (   0.0476190  -0.0302424   0.0000000), wk =   0.0045351
        k(   33) = (   0.0952381   0.0549863   0.0000000), wk =   0.0045351
        k(   34) = (   0.0952381   0.1127219   0.0000000), wk =   0.0045351
        k(   35) = (   0.0952381   0.1704574   0.0000000), wk =   0.0045351
        k(   36) = (   0.0952381   0.2281930   0.0000000), wk =   0.0045351
        k(   37) = (   0.0952381   0.2859286   0.0000000), wk =   0.0045351
        k(   38) = (   0.0952381   0.3436642   0.0000000), wk =   0.0045351
        k(   39) = (   0.0952381   0.4013998   0.0000000), wk =   0.0045351
        k(   40) = (   0.0952381   0.4591354   0.0000000), wk =   0.0045351
        k(   41) = (   0.0952381   0.5168710   0.0000000), wk =   0.0045351
        k(   42) = (   0.0952381   0.5746065   0.0000000), wk =   0.0045351
        k(   43) = (   0.0952381   0.6323421   0.0000000), wk =   0.0045351
        k(   44) = (   0.0952381  -0.5223696   0.0000000), wk =   0.0045351
        k(   45) = (   0.0952381  -0.4646340   0.0000000), wk =   0.0045351
        k(   46) = (   0.0952381  -0.4068984   0.0000000), wk =   0.0045351
        k(   47) = (   0.0952381  -0.3491628   0.0000000), wk =   0.0045351
        k(   48) = (   0.0952381  -0.2914272   0.0000000), wk =   0.0045351
        k(   49) = (   0.0952381  -0.2336917   0.0000000), wk =   0.0045351
        k(   50) = (   0.0952381  -0.1759561   0.0000000), wk =   0.0045351
        k(   51) = (   0.0952381  -0.1182205   0.0000000), wk =   0.0045351
        k(   52) = (   0.0952381  -0.0604849   0.0000000), wk =   0.0045351
        k(   53) = (   0.0952381  -0.0027493   0.0000000), wk =   0.0045351
        k(   54) = (   0.1428571   0.0824794   0.0000000), wk =   0.0045351
        k(   55) = (   0.1428571   0.1402150   0.0000000), wk =   0.0045351
        k(   56) = (   0.1428571   0.1979506   0.0000000), wk =   0.0045351
        k(   57) = (   0.1428571   0.2556862   0.0000000), wk =   0.0045351
        k(   58) = (   0.1428571   0.3134217   0.0000000), wk =   0.0045351
        k(   59) = (   0.1428571   0.3711573   0.0000000), wk =   0.0045351
        k(   60) = (   0.1428571   0.4288929   0.0000000), wk =   0.0045351
        k(   61) = (   0.1428571   0.4866285   0.0000000), wk =   0.0045351
        k(   62) = (   0.1428571   0.5443641   0.0000000), wk =   0.0045351
        k(   63) = (   0.1428571   0.6020997   0.0000000), wk =   0.0045351
        k(   64) = (   0.1428571   0.6598353   0.0000000), wk =   0.0045351
        k(   65) = (   0.1428571  -0.4948764   0.0000000), wk =   0.0045351
        k(   66) = (   0.1428571  -0.4371409   0.0000000), wk =   0.0045351
        k(   67) = (   0.1428571  -0.3794053   0.0000000), wk =   0.0045351
        k(   68) = (   0.1428571  -0.3216697   0.0000000), wk =   0.0045351
        k(   69) = (   0.1428571  -0.2639341   0.0000000), wk =   0.0045351
        k(   70) = (   0.1428571  -0.2061985   0.0000000), wk =   0.0045351
        k(   71) = (   0.1428571  -0.1484629   0.0000000), wk =   0.0045351
        k(   72) = (   0.1428571  -0.0907273   0.0000000), wk =   0.0045351
        k(   73) = (   0.1428571  -0.0329918   0.0000000), wk =   0.0045351
        k(   74) = (   0.1428571   0.0247438   0.0000000), wk =   0.0045351
        k(   75) = (   0.1904762   0.1099725   0.0000000), wk =   0.0045351
        k(   76) = (   0.1904762   0.1677081   0.0000000), wk =   0.0045351
        k(   77) = (   0.1904762   0.2254437   0.0000000), wk =   0.0045351
        k(   78) = (   0.1904762   0.2831793   0.0000000), wk =   0.0045351
        k(   79) = (   0.1904762   0.3409149   0.0000000), wk =   0.0045351
        k(   80) = (   0.1904762   0.3986505   0.0000000), wk =   0.0045351
        k(   81) = (   0.1904762   0.4563861   0.0000000), wk =   0.0045351
        k(   82) = (   0.1904762   0.5141216   0.0000000), wk =   0.0045351
        k(   83) = (   0.1904762   0.5718572   0.0000000), wk =   0.0045351
        k(   84) = (   0.1904762   0.6295928   0.0000000), wk =   0.0045351
        k(   85) = (   0.1904762   0.6873284   0.0000000), wk =   0.0045351
        k(   86) = (   0.1904762  -0.4673833   0.0000000), wk =   0.0045351
        k(   87) = (   0.1904762  -0.4096477   0.0000000), wk =   0.0045351
        k(   88) = (   0.1904762  -0.3519121   0.0000000), wk =   0.0045351
        k(   89) = (   0.1904762  -0.2941766   0.0000000), wk =   0.0045351
        k(   90) = (   0.1904762  -0.2364410   0.0000000), wk =   0.0045351
        k(   91) = (   0.1904762  -0.1787054   0.0000000), wk =   0.0045351
        k(   92) = (   0.1904762  -0.1209698   0.0000000), wk =   0.0045351
        k(   93) = (   0.1904762  -0.0632342   0.0000000), wk =   0.0045351
        k(   94) = (   0.1904762  -0.0054986   0.0000000), wk =   0.0045351
        k(   95) = (   0.1904762   0.0522370   0.0000000), wk =   0.0045351
        k(   96) = (   0.2380952   0.1374657   0.0000000), wk =   0.0045351
        k(   97) = (   0.2380952   0.1952013   0.0000000), wk =   0.0045351
        k(   98) = (   0.2380952   0.2529369   0.0000000), wk =   0.0045351
        k(   99) = (   0.2380952   0.3106724   0.0000000), wk =   0.0045351
        k(  100) = (   0.2380952   0.3684080   0.0000000), wk =   0.0045351
        k(  101) = (   0.2380952   0.4261436   0.0000000), wk =   0.0045351
        k(  102) = (   0.2380952   0.4838792   0.0000000), wk =   0.0045351
        k(  103) = (   0.2380952   0.5416148   0.0000000), wk =   0.0045351
        k(  104) = (   0.2380952   0.5993504   0.0000000), wk =   0.0045351
        k(  105) = (   0.2380952   0.6570859   0.0000000), wk =   0.0045351
        k(  106) = (   0.2380952   0.7148215   0.0000000), wk =   0.0045351
        k(  107) = (   0.2380952  -0.4398902   0.0000000), wk =   0.0045351
        k(  108) = (   0.2380952  -0.3821546   0.0000000), wk =   0.0045351
        k(  109) = (   0.2380952  -0.3244190   0.0000000), wk =   0.0045351
        k(  110) = (   0.2380952  -0.2666834   0.0000000), wk =   0.0045351
        k(  111) = (   0.2380952  -0.2089478   0.0000000), wk =   0.0045351
        k(  112) = (   0.2380952  -0.1512122   0.0000000), wk =   0.0045351
        k(  113) = (   0.2380952  -0.0934767   0.0000000), wk =   0.0045351
        k(  114) = (   0.2380952  -0.0357411   0.0000000), wk =   0.0045351
        k(  115) = (   0.2380952   0.0219945   0.0000000), wk =   0.0045351
        k(  116) = (   0.2380952   0.0797301   0.0000000), wk =   0.0045351
        k(  117) = (   0.2857143   0.1649588   0.0000000), wk =   0.0045351
        k(  118) = (   0.2857143   0.2226944   0.0000000), wk =   0.0045351
        k(  119) = (   0.2857143   0.2804300   0.0000000), wk =   0.0045351
        k(  120) = (   0.2857143   0.3381656   0.0000000), wk =   0.0045351
        k(  121) = (   0.2857143   0.3959012   0.0000000), wk =   0.0045351
        k(  122) = (   0.2857143   0.4536367   0.0000000), wk =   0.0045351
        k(  123) = (   0.2857143   0.5113723   0.0000000), wk =   0.0045351
        k(  124) = (   0.2857143   0.5691079   0.0000000), wk =   0.0045351
        k(  125) = (   0.2857143   0.6268435   0.0000000), wk =   0.0045351
        k(  126) = (   0.2857143   0.6845791   0.0000000), wk =   0.0045351
        k(  127) = (   0.2857143   0.7423147   0.0000000), wk =   0.0045351
        k(  128) = (   0.2857143  -0.4123970   0.0000000), wk =   0.0045351
        k(  129) = (   0.2857143  -0.3546615   0.0000000), wk =   0.0045351
        k(  130) = (   0.2857143  -0.2969259   0.0000000), wk =   0.0045351
        k(  131) = (   0.2857143  -0.2391903   0.0000000), wk =   0.0045351
        k(  132) = (   0.2857143  -0.1814547   0.0000000), wk =   0.0045351
        k(  133) = (   0.2857143  -0.1237191   0.0000000), wk =   0.0045351
        k(  134) = (   0.2857143  -0.0659835   0.0000000), wk =   0.0045351
        k(  135) = (   0.2857143  -0.0082479   0.0000000), wk =   0.0045351
        k(  136) = (   0.2857143   0.0494876   0.0000000), wk =   0.0045351
        k(  137) = (   0.2857143   0.1072232   0.0000000), wk =   0.0045351
        k(  138) = (   0.3333333   0.1924520   0.0000000), wk =   0.0045351
        k(  139) = (   0.3333333   0.2501875   0.0000000), wk =   0.0045351
        k(  140) = (   0.3333333   0.3079231   0.0000000), wk =   0.0045351
        k(  141) = (   0.3333333   0.3656587   0.0000000), wk =   0.0045351
        k(  142) = (   0.3333333   0.4233943   0.0000000), wk =   0.0045351
        k(  143) = (   0.3333333   0.4811299   0.0000000), wk =   0.0045351
        k(  144) = (   0.3333333   0.5388655   0.0000000), wk =   0.0045351
        k(  145) = (   0.3333333   0.5966010   0.0000000), wk =   0.0045351
        k(  146) = (   0.3333333   0.6543366   0.0000000), wk =   0.0045351
        k(  147) = (   0.3333333   0.7120722   0.0000000), wk =   0.0045351
        k(  148) = (   0.3333333   0.7698078   0.0000000), wk =   0.0045351
        k(  149) = (   0.3333333  -0.3849039   0.0000000), wk =   0.0045351
        k(  150) = (   0.3333333  -0.3271683   0.0000000), wk =   0.0045351
        k(  151) = (   0.3333333  -0.2694327   0.0000000), wk =   0.0045351
        k(  152) = (   0.3333333  -0.2116971   0.0000000), wk =   0.0045351
        k(  153) = (   0.3333333  -0.1539616   0.0000000), wk =   0.0045351
        k(  154) = (   0.3333333  -0.0962260   0.0000000), wk =   0.0045351
        k(  155) = (   0.3333333  -0.0384904   0.0000000), wk =   0.0045351
        k(  156) = (   0.3333333   0.0192452   0.0000000), wk =   0.0045351
        k(  157) = (   0.3333333   0.0769808   0.0000000), wk =   0.0045351
        k(  158) = (   0.3333333   0.1347164   0.0000000), wk =   0.0045351
        k(  159) = (   0.3809524   0.2199451   0.0000000), wk =   0.0045351
        k(  160) = (   0.3809524   0.2776807   0.0000000), wk =   0.0045351
        k(  161) = (   0.3809524   0.3354163   0.0000000), wk =   0.0045351
        k(  162) = (   0.3809524   0.3931518   0.0000000), wk =   0.0045351
        k(  163) = (   0.3809524   0.4508874   0.0000000), wk =   0.0045351
        k(  164) = (   0.3809524   0.5086230   0.0000000), wk =   0.0045351
        k(  165) = (   0.3809524   0.5663586   0.0000000), wk =   0.0045351
        k(  166) = (   0.3809524   0.6240942   0.0000000), wk =   0.0045351
        k(  167) = (   0.3809524   0.6818298   0.0000000), wk =   0.0045351
        k(  168) = (   0.3809524   0.7395654   0.0000000), wk =   0.0045351
        k(  169) = (   0.3809524   0.7973009   0.0000000), wk =   0.0045351
        k(  170) = (   0.3809524  -0.3574108   0.0000000), wk =   0.0045351
        k(  171) = (   0.3809524  -0.2996752   0.0000000), wk =   0.0045351
        k(  172) = (   0.3809524  -0.2419396   0.0000000), wk =   0.0045351
        k(  173) = (   0.3809524  -0.1842040   0.0000000), wk =   0.0045351
        k(  174) = (   0.3809524  -0.1264684   0.0000000), wk =   0.0045351
        k(  175) = (   0.3809524  -0.0687328   0.0000000), wk =   0.0045351
        k(  176) = (   0.3809524  -0.0109973   0.0000000), wk =   0.0045351
        k(  177) = (   0.3809524   0.0467383   0.0000000), wk =   0.0045351
        k(  178) = (   0.3809524   0.1044739   0.0000000), wk =   0.0045351
        k(  179) = (   0.3809524   0.1622095   0.0000000), wk =   0.0045351
        k(  180) = (   0.4285714   0.2474382   0.0000000), wk =   0.0045351
        k(  181) = (   0.4285714   0.3051738   0.0000000), wk =   0.0045351
        k(  182) = (   0.4285714   0.3629094   0.0000000), wk =   0.0045351
        k(  183) = (   0.4285714   0.4206450   0.0000000), wk =   0.0045351
        k(  184) = (   0.4285714   0.4783806   0.0000000), wk =   0.0045351
        k(  185) = (   0.4285714   0.5361161   0.0000000), wk =   0.0045351
        k(  186) = (   0.4285714   0.5938517   0.0000000), wk =   0.0045351
        k(  187) = (   0.4285714   0.6515873   0.0000000), wk =   0.0045351
        k(  188) = (   0.4285714   0.7093229   0.0000000), wk =   0.0045351
        k(  189) = (   0.4285714   0.7670585   0.0000000), wk =   0.0045351
        k(  190) = (   0.4285714   0.8247941   0.0000000), wk =   0.0045351
        k(  191) = (   0.4285714  -0.3299176   0.0000000), wk =   0.0045351
        k(  192) = (   0.4285714  -0.2721820   0.0000000), wk =   0.0045351
        k(  193) = (   0.4285714  -0.2144465   0.0000000), wk =   0.0045351
        k(  194) = (   0.4285714  -0.1567109   0.0000000), wk =   0.0045351
        k(  195) = (   0.4285714  -0.0989753   0.0000000), wk =   0.0045351
        k(  196) = (   0.4285714  -0.0412397   0.0000000), wk =   0.0045351
        k(  197) = (   0.4285714   0.0164959   0.0000000), wk =   0.0045351
        k(  198) = (   0.4285714   0.0742315   0.0000000), wk =   0.0045351
        k(  199) = (   0.4285714   0.1319671   0.0000000), wk =   0.0045351
        k(  200) = (   0.4285714   0.1897026   0.0000000), wk =   0.0045351
        k(  201) = (   0.4761905   0.2749314   0.0000000), wk =   0.0045351
        k(  202) = (   0.4761905   0.3326669   0.0000000), wk =   0.0045351
        k(  203) = (   0.4761905   0.3904025   0.0000000), wk =   0.0045351
        k(  204) = (   0.4761905   0.4481381   0.0000000), wk =   0.0045351
        k(  205) = (   0.4761905   0.5058737   0.0000000), wk =   0.0045351
        k(  206) = (   0.4761905   0.5636093   0.0000000), wk =   0.0045351
        k(  207) = (   0.4761905   0.6213449   0.0000000), wk =   0.0045351
        k(  208) = (   0.4761905   0.6790805   0.0000000), wk =   0.0045351
        k(  209) = (   0.4761905   0.7368160   0.0000000), wk =   0.0045351
        k(  210) = (   0.4761905   0.7945516   0.0000000), wk =   0.0045351
        k(  211) = (   0.4761905   0.8522872   0.0000000), wk =   0.0045351
        k(  212) = (   0.4761905  -0.3024245   0.0000000), wk =   0.0045351
        k(  213) = (   0.4761905  -0.2446889   0.0000000), wk =   0.0045351
        k(  214) = (   0.4761905  -0.1869533   0.0000000), wk =   0.0045351
        k(  215) = (   0.4761905  -0.1292177   0.0000000), wk =   0.0045351
        k(  216) = (   0.4761905  -0.0714822   0.0000000), wk =   0.0045351
        k(  217) = (   0.4761905  -0.0137466   0.0000000), wk =   0.0045351
        k(  218) = (   0.4761905   0.0439890   0.0000000), wk =   0.0045351
        k(  219) = (   0.4761905   0.1017246   0.0000000), wk =   0.0045351
        k(  220) = (   0.4761905   0.1594602   0.0000000), wk =   0.0045351
        k(  221) = (   0.4761905   0.2171958   0.0000000), wk =   0.0045351

                       cryst. coord.
        k(    1) = (   0.0000000   0.0000000   0.0000000), wk =   0.0022676
        k(    2) = (   0.0000000   0.0476190   0.0000000), wk =   0.0045351
        k(    3) = (   0.0000000   0.0952381   0.0000000), wk =   0.0045351
        k(    4) = (   0.0000000   0.1428571   0.0000000), wk =   0.0045351
        k(    5) = (   0.0000000   0.1904762   0.0000000), wk =   0.0045351
        k(    6) = (   0.0000000   0.2380952   0.0000000), wk =   0.0045351
        k(    7) = (   0.0000000   0.2857143   0.0000000), wk =   0.0045351
        k(    8) = (   0.0000000   0.3333333   0.0000000), wk =   0.0045351
        k(    9) = (   0.0000000   0.3809524   0.0000000), wk =   0.0045351
        k(   10) = (   0.0000000   0.4285714   0.0000000), wk =   0.0045351
        k(   11) = (   0.0000000   0.4761905   0.0000000), wk =   0.0045351
        k(   12) = (   0.0476190   0.0000000   0.0000000), wk =   0.0045351
        k(   13) = (   0.0476190   0.0476190   0.0000000), wk =   0.0045351
        k(   14) = (   0.0476190   0.0952381   0.0000000), wk =   0.0045351
        k(   15) = (   0.0476190   0.1428571   0.0000000), wk =   0.0045351
        k(   16) = (   0.0476190   0.1904762   0.0000000), wk =   0.0045351
        k(   17) = (   0.0476190   0.2380952   0.0000000), wk =   0.0045351
        k(   18) = (   0.0476190   0.2857143   0.0000000), wk =   0.0045351
        k(   19) = (   0.0476190   0.3333333   0.0000000), wk =   0.0045351
        k(   20) = (   0.0476190   0.3809524   0.0000000), wk =   0.0045351
        k(   21) = (   0.0476190   0.4285714   0.0000000), wk =   0.0045351
        k(   22) = (   0.0476190   0.4761905   0.0000000), wk =   0.0045351
        k(   23) = (   0.0476190  -0.4761905   0.0000000), wk =   0.0045351
        k(   24) = (   0.0476190  -0.4285714   0.0000000), wk =   0.0045351
        k(   25) = (   0.0476190  -0.3809524   0.0000000), wk =   0.0045351
        k(   26) = (   0.0476190  -0.3333333   0.0000000), wk =   0.0045351
        k(   27) = (   0.0476190  -0.2857143   0.0000000), wk =   0.0045351
        k(   28) = (   0.0476190  -0.2380952   0.0000000), wk =   0.0045351
        k(   29) = (   0.0476190  -0.1904762   0.0000000), wk =   0.0045351
        k(   30) = (   0.0476190  -0.1428571   0.0000000), wk =   0.0045351
        k(   31) = (   0.0476190  -0.0952381   0.0000000), wk =   0.0045351
        k(   32) = (   0.0476190  -0.0476190   0.0000000), wk =   0.0045351
        k(   33) = (   0.0952381   0.0000000   0.0000000), wk =   0.0045351
        k(   34) = (   0.0952381   0.0476190   0.0000000), wk =   0.0045351
        k(   35) = (   0.0952381   0.0952381   0.0000000), wk =   0.0045351
        k(   36) = (   0.0952381   0.1428571   0.0000000), wk =   0.0045351
        k(   37) = (   0.0952381   0.1904762   0.0000000), wk =   0.0045351
        k(   38) = (   0.0952381   0.2380952   0.0000000), wk =   0.0045351
        k(   39) = (   0.0952381   0.2857143   0.0000000), wk =   0.0045351
        k(   40) = (   0.0952381   0.3333333   0.0000000), wk =   0.0045351
        k(   41) = (   0.0952381   0.3809524   0.0000000), wk =   0.0045351
        k(   42) = (   0.0952381   0.4285714   0.0000000), wk =   0.0045351
        k(   43) = (   0.0952381   0.4761905   0.0000000), wk =   0.0045351
        k(   44) = (   0.0952381  -0.4761905   0.0000000), wk =   0.0045351
        k(   45) = (   0.0952381  -0.4285714   0.0000000), wk =   0.0045351
        k(   46) = (   0.0952381  -0.3809524   0.0000000), wk =   0.0045351
        k(   47) = (   0.0952381  -0.3333333   0.0000000), wk =   0.0045351
        k(   48) = (   0.0952381  -0.2857143   0.0000000), wk =   0.0045351
        k(   49) = (   0.0952381  -0.2380952   0.0000000), wk =   0.0045351
        k(   50) = (   0.0952381  -0.1904762   0.0000000), wk =   0.0045351
        k(   51) = (   0.0952381  -0.1428571   0.0000000), wk =   0.0045351
        k(   52) = (   0.0952381  -0.0952381   0.0000000), wk =   0.0045351
        k(   53) = (   0.0952381  -0.0476190   0.0000000), wk =   0.0045351
        k(   54) = (   0.1428571   0.0000000   0.0000000), wk =   0.0045351
        k(   55) = (   0.1428571   0.0476190   0.0000000), wk =   0.0045351
        k(   56) = (   0.1428571   0.0952381   0.0000000), wk =   0.0045351
        k(   57) = (   0.1428571   0.1428571   0.0000000), wk =   0.0045351
        k(   58) = (   0.1428571   0.1904762   0.0000000), wk =   0.0045351
        k(   59) = (   0.1428571   0.2380952   0.0000000), wk =   0.0045351
        k(   60) = (   0.1428571   0.2857143   0.0000000), wk =   0.0045351
        k(   61) = (   0.1428571   0.3333333   0.0000000), wk =   0.0045351
        k(   62) = (   0.1428571   0.3809524   0.0000000), wk =   0.0045351
        k(   63) = (   0.1428571   0.4285714   0.0000000), wk =   0.0045351
        k(   64) = (   0.1428571   0.4761905   0.0000000), wk =   0.0045351
        k(   65) = (   0.1428571  -0.4761905   0.0000000), wk =   0.0045351
        k(   66) = (   0.1428571  -0.4285714   0.0000000), wk =   0.0045351
        k(   67) = (   0.1428571  -0.3809524   0.0000000), wk =   0.0045351
        k(   68) = (   0.1428571  -0.3333333   0.0000000), wk =   0.0045351
        k(   69) = (   0.1428571  -0.2857143   0.0000000), wk =   0.0045351
        k(   70) = (   0.1428571  -0.2380952   0.0000000), wk =   0.0045351
        k(   71) = (   0.1428571  -0.1904762   0.0000000), wk =   0.0045351
        k(   72) = (   0.1428571  -0.1428571   0.0000000), wk =   0.0045351
        k(   73) = (   0.1428571  -0.0952381   0.0000000), wk =   0.0045351
        k(   74) = (   0.1428571  -0.0476190   0.0000000), wk =   0.0045351
        k(   75) = (   0.1904762   0.0000000   0.0000000), wk =   0.0045351
        k(   76) = (   0.1904762   0.0476190   0.0000000), wk =   0.0045351
        k(   77) = (   0.1904762   0.0952381   0.0000000), wk =   0.0045351
        k(   78) = (   0.1904762   0.1428571   0.0000000), wk =   0.0045351
        k(   79) = (   0.1904762   0.1904762   0.0000000), wk =   0.0045351
        k(   80) = (   0.1904762   0.2380952   0.0000000), wk =   0.0045351
        k(   81) = (   0.1904762   0.2857143   0.0000000), wk =   0.0045351
        k(   82) = (   0.1904762   0.3333333   0.0000000), wk =   0.0045351
        k(   83) = (   0.1904762   0.3809524   0.0000000), wk =   0.0045351
        k(   84) = (   0.1904762   0.4285714   0.0000000), wk =   0.0045351
        k(   85) = (   0.1904762   0.4761905   0.0000000), wk =   0.0045351
        k(   86) = (   0.1904762  -0.4761905   0.0000000), wk =   0.0045351
        k(   87) = (   0.1904762  -0.4285714   0.0000000), wk =   0.0045351
        k(   88) = (   0.1904762  -0.3809524   0.0000000), wk =   0.0045351
        k(   89) = (   0.1904762  -0.3333333   0.0000000), wk =   0.0045351
        k(   90) = (   0.1904762  -0.2857143   0.0000000), wk =   0.0045351
        k(   91) = (   0.1904762  -0.2380952   0.0000000), wk =   0.0045351
        k(   92) = (   0.1904762  -0.1904762   0.0000000), wk =   0.0045351
        k(   93) = (   0.1904762  -0.1428571   0.0000000), wk =   0.0045351
        k(   94) = (   0.1904762  -0.0952381   0.0000000), wk =   0.0045351
        k(   95) = (   0.1904762  -0.0476190   0.0000000), wk =   0.0045351
        k(   96) = (   0.2380952   0.0000000   0.0000000), wk =   0.0045351
        k(   97) = (   0.2380952   0.0476190   0.0000000), wk =   0.0045351
        k(   98) = (   0.2380952   0.0952381   0.0000000), wk =   0.0045351
        k(   99) = (   0.2380952   0.1428571   0.0000000), wk =   0.0045351
        k(  100) = (   0.2380952   0.1904762   0.0000000), wk =   0.0045351
        k(  101) = (   0.2380952   0.2380952   0.0000000), wk =   0.0045351
        k(  102) = (   0.2380952   0.2857143   0.0000000), wk =   0.0045351
        k(  103) = (   0.2380952   0.3333333   0.0000000), wk =   0.0045351
        k(  104) = (   0.2380952   0.3809524   0.0000000), wk =   0.0045351
        k(  105) = (   0.2380952   0.4285714   0.0000000), wk =   0.0045351
        k(  106) = (   0.2380952   0.4761905   0.0000000), wk =   0.0045351
        k(  107) = (   0.2380952  -0.4761905   0.0000000), wk =   0.0045351
        k(  108) = (   0.2380952  -0.4285714   0.0000000), wk =   0.0045351
        k(  109) = (   0.2380952  -0.3809524   0.0000000), wk =   0.0045351
        k(  110) = (   0.2380952  -0.3333333   0.0000000), wk =   0.0045351
        k(  111) = (   0.2380952  -0.2857143   0.0000000), wk =   0.0045351
        k(  112) = (   0.2380952  -0.2380952   0.0000000), wk =   0.0045351
        k(  113) = (   0.2380952  -0.1904762   0.0000000), wk =   0.0045351
        k(  114) = (   0.2380952  -0.1428571   0.0000000), wk =   0.0045351
        k(  115) = (   0.2380952  -0.0952381   0.0000000), wk =   0.0045351
        k(  116) = (   0.2380952  -0.0476190   0.0000000), wk =   0.0045351
        k(  117) = (   0.2857143   0.0000000   0.0000000), wk =   0.0045351
        k(  118) = (   0.2857143   0.0476190   0.0000000), wk =   0.0045351
        k(  119) = (   0.2857143   0.0952381   0.0000000), wk =   0.0045351
        k(  120) = (   0.2857143   0.1428571   0.0000000), wk =   0.0045351
        k(  121) = (   0.2857143   0.1904762   0.0000000), wk =   0.0045351
        k(  122) = (   0.2857143   0.2380952   0.0000000), wk =   0.0045351
        k(  123) = (   0.2857143   0.2857143   0.0000000), wk =   0.0045351
        k(  124) = (   0.2857143   0.3333333   0.0000000), wk =   0.0045351
        k(  125) = (   0.2857143   0.3809524   0.0000000), wk =   0.0045351
        k(  126) = (   0.2857143   0.4285714   0.0000000), wk =   0.0045351
        k(  127) = (   0.2857143   0.4761905   0.0000000), wk =   0.0045351
        k(  128) = (   0.2857143  -0.4761905   0.0000000), wk =   0.0045351
        k(  129) = (   0.2857143  -0.4285714   0.0000000), wk =   0.0045351
        k(  130) = (   0.2857143  -0.3809524   0.0000000), wk =   0.0045351
        k(  131) = (   0.2857143  -0.3333333   0.0000000), wk =   0.0045351
        k(  132) = (   0.2857143  -0.2857143   0.0000000), wk =   0.0045351
        k(  133) = (   0.2857143  -0.2380952   0.0000000), wk =   0.0045351
        k(  134) = (   0.2857143  -0.1904762   0.0000000), wk =   0.0045351
        k(  135) = (   0.2857143  -0.1428571   0.0000000), wk =   0.0045351
        k(  136) = (   0.2857143  -0.0952381   0.0000000), wk =   0.0045351
        k(  137) = (   0.2857143  -0.0476190   0.0000000), wk =   0.0045351
        k(  138) = (   0.3333333   0.0000000   0.0000000), wk =   0.0045351
        k(  139) = (   0.3333333   0.0476190   0.0000000), wk =   0.0045351
        k(  140) = (   0.3333333   0.0952381   0.0000000), wk =   0.0045351
        k(  141) = (   0.3333333   0.1428571   0.0000000), wk =   0.0045351
        k(  142) = (   0.3333333   0.1904762   0.0000000), wk =   0.0045351
        k(  143) = (   0.3333333   0.2380952   0.0000000), wk =   0.0045351
        k(  144) = (   0.3333333   0.2857143   0.0000000), wk =   0.0045351
        k(  145) = (   0.3333333   0.3333333   0.0000000), wk =   0.0045351
        k(  146) = (   0.3333333   0.3809524   0.0000000), wk =   0.0045351
        k(  147) = (   0.3333333   0.4285714   0.0000000), wk =   0.0045351
        k(  148) = (   0.3333333   0.4761905   0.0000000), wk =   0.0045351
        k(  149) = (   0.3333333  -0.4761905   0.0000000), wk =   0.0045351
        k(  150) = (   0.3333333  -0.4285714   0.0000000), wk =   0.0045351
        k(  151) = (   0.3333333  -0.3809524   0.0000000), wk =   0.0045351
        k(  152) = (   0.3333333  -0.3333333   0.0000000), wk =   0.0045351
        k(  153) = (   0.3333333  -0.2857143   0.0000000), wk =   0.0045351
        k(  154) = (   0.3333333  -0.2380952   0.0000000), wk =   0.0045351
        k(  155) = (   0.3333333  -0.1904762   0.0000000), wk =   0.0045351
        k(  156) = (   0.3333333  -0.1428571   0.0000000), wk =   0.0045351
        k(  157) = (   0.3333333  -0.0952381   0.0000000), wk =   0.0045351
        k(  158) = (   0.3333333  -0.0476190   0.0000000), wk =   0.0045351
        k(  159) = (   0.3809524   0.0000000   0.0000000), wk =   0.0045351
        k(  160) = (   0.3809524   0.0476190   0.0000000), wk =   0.0045351
        k(  161) = (   0.3809524   0.0952381   0.0000000), wk =   0.0045351
        k(  162) = (   0.3809524   0.1428571   0.0000000), wk =   0.0045351
        k(  163) = (   0.3809524   0.1904762   0.0000000), wk =   0.0045351
        k(  164) = (   0.3809524   0.2380952   0.0000000), wk =   0.0045351
        k(  165) = (   0.3809524   0.2857143   0.0000000), wk =   0.0045351
        k(  166) = (   0.3809524   0.3333333   0.0000000), wk =   0.0045351
        k(  167) = (   0.3809524   0.3809524   0.0000000), wk =   0.0045351
        k(  168) = (   0.3809524   0.4285714   0.0000000), wk =   0.0045351
        k(  169) = (   0.3809524   0.4761905   0.0000000), wk =   0.0045351
        k(  170) = (   0.3809524  -0.4761905   0.0000000), wk =   0.0045351
        k(  171) = (   0.3809524  -0.4285714   0.0000000), wk =   0.0045351
        k(  172) = (   0.3809524  -0.3809524   0.0000000), wk =   0.0045351
        k(  173) = (   0.3809524  -0.3333333   0.0000000), wk =   0.0045351
        k(  174) = (   0.3809524  -0.2857143   0.0000000), wk =   0.0045351
        k(  175) = (   0.3809524  -0.2380952   0.0000000), wk =   0.0045351
        k(  176) = (   0.3809524  -0.1904762   0.0000000), wk =   0.0045351
        k(  177) = (   0.3809524  -0.1428571   0.0000000), wk =   0.0045351
        k(  178) = (   0.3809524  -0.0952381   0.0000000), wk =   0.0045351
        k(  179) = (   0.3809524  -0.0476190   0.0000000), wk =   0.0045351
        k(  180) = (   0.4285714   0.0000000   0.0000000), wk =   0.0045351
        k(  181) = (   0.4285714   0.0476190   0.0000000), wk =   0.0045351
        k(  182) = (   0.4285714   0.0952381   0.0000000), wk =   0.0045351
        k(  183) = (   0.4285714   0.1428571   0.0000000), wk =   0.0045351
        k(  184) = (   0.4285714   0.1904762   0.0000000), wk =   0.0045351
        k(  185) = (   0.4285714   0.2380952   0.0000000), wk =   0.0045351
        k(  186) = (   0.4285714   0.2857143   0.0000000), wk =   0.0045351
        k(  187) = (   0.4285714   0.3333333   0.0000000), wk =   0.0045351
        k(  188) = (   0.4285714   0.3809524   0.0000000), wk =   0.0045351
        k(  189) = (   0.4285714   0.4285714   0.0000000), wk =   0.0045351
        k(  190) = (   0.4285714   0.4761905   0.0000000), wk =   0.0045351
        k(  191) = (   0.4285714  -0.4761905   0.0000000), wk =   0.0045351
        k(  192) = (   0.4285714  -0.4285714   0.0000000), wk =   0.0045351
        k(  193) = (   0.4285714  -0.3809524   0.0000000), wk =   0.0045351
        k(  194) = (   0.4285714  -0.3333333   0.0000000), wk =   0.0045351
        k(  195) = (   0.4285714  -0.2857143   0.0000000), wk =   0.0045351
        k(  196) = (   0.4285714  -0.2380952   0.0000000), wk =   0.0045351
        k(  197) = (   0.4285714  -0.1904762   0.0000000), wk =   0.0045351
        k(  198) = (   0.4285714  -0.1428571   0.0000000), wk =   0.0045351
        k(  199) = (   0.4285714  -0.0952381   0.0000000), wk =   0.0045351
        k(  200) = (   0.4285714  -0.0476190   0.0000000), wk =   0.0045351
        k(  201) = (   0.4761905   0.0000000   0.0000000), wk =   0.0045351
        k(  202) = (   0.4761905   0.0476190   0.0000000), wk =   0.0045351
        k(  203) = (   0.4761905   0.0952381   0.0000000), wk =   0.0045351
        k(  204) = (   0.4761905   0.1428571   0.0000000), wk =   0.0045351
        k(  205) = (   0.4761905   0.1904762   0.0000000), wk =   0.0045351
        k(  206) = (   0.4761905   0.2380952   0.0000000), wk =   0.0045351
        k(  207) = (   0.4761905   0.2857143   0.0000000), wk =   0.0045351
        k(  208) = (   0.4761905   0.3333333   0.0000000), wk =   0.0045351
        k(  209) = (   0.4761905   0.3809524   0.0000000), wk =   0.0045351
        k(  210) = (   0.4761905   0.4285714   0.0000000), wk =   0.0045351
        k(  211) = (   0.4761905   0.4761905   0.0000000), wk =   0.0045351
        k(  212) = (   0.4761905  -0.4761905   0.0000000), wk =   0.0045351
        k(  213) = (   0.4761905  -0.4285714   0.0000000), wk =   0.0045351
        k(  214) = (   0.4761905  -0.3809524   0.0000000), wk =   0.0045351
        k(  215) = (   0.4761905  -0.3333333   0.0000000), wk =   0.0045351
        k(  216) = (   0.4761905  -0.2857143   0.0000000), wk =   0.0045351
        k(  217) = (   0.4761905  -0.2380952   0.0000000), wk =   0.0045351
        k(  218) = (   0.4761905  -0.1904762   0.0000000), wk =   0.0045351
        k(  219) = (   0.4761905  -0.1428571   0.0000000), wk =   0.0045351
        k(  220) = (   0.4761905  -0.0952381   0.0000000), wk =   0.0045351
        k(  221) = (   0.4761905  -0.0476190   0.0000000), wk =   0.0045351

     Dense  grid:   477063 G-vectors     FFT dimensions: (  64,  60, 300)

     Smooth grid:   120743 G-vectors     FFT dimensions: (  40,  40, 192)

     Dynamical RAM for                 wfc:       1.49 MB

     Dynamical RAM for     wfc (w. buffer):     331.86 MB

     Dynamical RAM for           str. fact:       0.61 MB

     Dynamical RAM for           local pot:       0.00 MB

     Dynamical RAM for          nlocal pot:       1.63 MB

     Dynamical RAM for                qrad:       9.40 MB

     Dynamical RAM for          rho,v,vnew:       8.21 MB

     Dynamical RAM for               rhoin:       2.74 MB

     Dynamical RAM for            rho*nmix:      19.42 MB

     Dynamical RAM for           G-vectors:       1.18 MB

     Dynamical RAM for          h,s,v(r/c):       1.11 MB

     Dynamical RAM for          <psi|beta>:       0.40 MB

     Dynamical RAM for                 psi:       2.99 MB

     Dynamical RAM for                hpsi:       2.99 MB

     Dynamical RAM for      wfcinit/wfcrot:       2.38 MB

     Estimated static dynamical RAM per process >     359.58 MB

     Estimated max dynamical RAM per process >     386.49 MB

     Estimated total dynamical RAM >       9.06 GB

     Initial potential from superposition of free atoms

     starting charge      77.7613, renormalised to      78.0000

     negative rho (up, down):  4.043E-04 0.000E+00
     Starting wfcs are random

     total cpu time spent up to now is       20.4 secs

     Self-consistent Calculation

     iteration #  1     ecut=    50.00 Ry     beta= 0.70
     Davidson diagonalization with overlap

---- Real-time Memory Report at c_bands before calling an iterative solver
           554 MiB given to the printing process from OS
             0 MiB allocation reported by mallinfo(arena+hblkhd)
         69948 MiB available memory on the node where the printing process lives
------------------
     ethr =  1.00E-02,  avg # of iterations = 12.5

     Threshold (ethr) on eigenvalues was too large:
     Diagonalizing with lowered threshold

     Davidson diagonalization with overlap

---- Real-time Memory Report at c_bands before calling an iterative solver
           568 MiB given to the printing process from OS
             0 MiB allocation reported by mallinfo(arena+hblkhd)
         69843 MiB available memory on the node where the printing process lives
------------------
     ethr =  1.24E-04,  avg # of iterations =  6.1

     negative rho (up, down):  1.762E-05 0.000E+00

     total cpu time spent up to now is      331.6 secs

     total energy              =    -806.53046854 Ry
     estimated scf accuracy    <       0.08559927 Ry

     iteration #  2     ecut=    50.00 Ry     beta= 0.70
     Davidson diagonalization with overlap

---- Real-time Memory Report at c_bands before calling an iterative solver
           569 MiB given to the printing process from OS
             0 MiB allocation reported by mallinfo(arena+hblkhd)
         69843 MiB available memory on the node where the printing process lives
------------------
     ethr =  1.10E-04,  avg # of iterations =  5.6

     negative rho (up, down):  2.953E-05 0.000E+00

     total cpu time spent up to now is      415.8 secs

     total energy              =    -806.48149416 Ry
     estimated scf accuracy    <       0.48017017 Ry

     iteration #  3     ecut=    50.00 Ry     beta= 0.70
     Davidson diagonalization with overlap

---- Real-time Memory Report at c_bands before calling an iterative solver
           573 MiB given to the printing process from OS
             0 MiB allocation reported by mallinfo(arena+hblkhd)
         69826 MiB available memory on the node where the printing process lives
------------------
     ethr =  1.10E-04,  avg # of iterations =  5.5

     negative rho (up, down):  2.487E-05 0.000E+00

     total cpu time spent up to now is      493.4 secs

     total energy              =    -806.54349214 Ry
     estimated scf accuracy    <       0.22764687 Ry

     iteration #  4     ecut=    50.00 Ry     beta= 0.70
     Davidson diagonalization with overlap

---- Real-time Memory Report at c_bands before calling an iterative solver
           574 MiB given to the printing process from OS
             0 MiB allocation reported by mallinfo(arena+hblkhd)
         69819 MiB available memory on the node where the printing process lives
------------------
     ethr =  1.10E-04,  avg # of iterations =  3.5

     negative rho (up, down):  2.604E-06 0.000E+00

     total cpu time spent up to now is      556.6 secs

     total energy              =    -806.56770434 Ry
     estimated scf accuracy    <       0.00339184 Ry

     iteration #  5     ecut=    50.00 Ry     beta= 0.70
     Davidson diagonalization with overlap

---- Real-time Memory Report at c_bands before calling an iterative solver
           575 MiB given to the printing process from OS
             0 MiB allocation reported by mallinfo(arena+hblkhd)
         69812 MiB available memory on the node where the printing process lives
------------------
     ethr =  4.35E-06,  avg # of iterations =  5.6

     negative rho (up, down):  2.499E-06 0.000E+00

     total cpu time spent up to now is      632.3 secs

     total energy              =    -806.56857176 Ry
     estimated scf accuracy    <       0.00651862 Ry

     iteration #  6     ecut=    50.00 Ry     beta= 0.70
     Davidson diagonalization with overlap

---- Real-time Memory Report at c_bands before calling an iterative solver
           575 MiB given to the printing process from OS
             0 MiB allocation reported by mallinfo(arena+hblkhd)
         69803 MiB available memory on the node where the printing process lives
------------------
     ethr =  4.35E-06,  avg # of iterations =  5.1

     total cpu time spent up to now is      695.8 secs

     total energy              =    -806.56856699 Ry
     estimated scf accuracy    <       0.00459761 Ry

     iteration #  7     ecut=    50.00 Ry     beta= 0.70
     Davidson diagonalization with overlap

---- Real-time Memory Report at c_bands before calling an iterative solver
           576 MiB given to the printing process from OS
             0 MiB allocation reported by mallinfo(arena+hblkhd)
         69790 MiB available memory on the node where the printing process lives
------------------
     ethr =  4.35E-06,  avg # of iterations =  3.6

     total cpu time spent up to now is      755.7 secs

     total energy              =    -806.56884267 Ry
     estimated scf accuracy    <       0.00028382 Ry

     iteration #  8     ecut=    50.00 Ry     beta= 0.70
     Davidson diagonalization with overlap

---- Real-time Memory Report at c_bands before calling an iterative solver
           577 MiB given to the printing process from OS
             0 MiB allocation reported by mallinfo(arena+hblkhd)
         69783 MiB available memory on the node where the printing process lives
------------------
     ethr =  3.64E-07,  avg # of iterations =  6.0

     total cpu time spent up to now is      826.6 secs

     total energy              =    -806.56889386 Ry
     estimated scf accuracy    <       0.00015164 Ry

     iteration #  9     ecut=    50.00 Ry     beta= 0.70
     Davidson diagonalization with overlap

---- Real-time Memory Report at c_bands before calling an iterative solver
           577 MiB given to the printing process from OS
             0 MiB allocation reported by mallinfo(arena+hblkhd)
         69776 MiB available memory on the node where the printing process lives
------------------
     ethr =  1.94E-07,  avg # of iterations =  2.0

     total cpu time spent up to now is      880.9 secs

     total energy              =    -806.56888972 Ry
     estimated scf accuracy    <       0.00005616 Ry

     iteration # 10     ecut=    50.00 Ry     beta= 0.70
     Davidson diagonalization with overlap

---- Real-time Memory Report at c_bands before calling an iterative solver
           578 MiB given to the printing process from OS
             0 MiB allocation reported by mallinfo(arena+hblkhd)
         69770 MiB available memory on the node where the printing process lives
------------------
     ethr =  7.20E-08,  avg # of iterations =  5.1

     total cpu time spent up to now is      946.3 secs

     total energy              =    -806.56889729 Ry
     estimated scf accuracy    <       0.00000313 Ry

     iteration # 11     ecut=    50.00 Ry     beta= 0.70
     Davidson diagonalization with overlap

---- Real-time Memory Report at c_bands before calling an iterative solver
           579 MiB given to the printing process from OS
             0 MiB allocation reported by mallinfo(arena+hblkhd)
         69762 MiB available memory on the node where the printing process lives
------------------
     ethr =  4.01E-09,  avg # of iterations =  4.4

     total cpu time spent up to now is     1009.2 secs

     total energy              =    -806.56889691 Ry
     estimated scf accuracy    <       0.00000482 Ry

     iteration # 12     ecut=    50.00 Ry     beta= 0.70
     Davidson diagonalization with overlap

---- Real-time Memory Report at c_bands before calling an iterative solver
           579 MiB given to the printing process from OS
             0 MiB allocation reported by mallinfo(arena+hblkhd)
         69759 MiB available memory on the node where the printing process lives
------------------
     ethr =  4.01E-09,  avg # of iterations =  4.2

     total cpu time spent up to now is     1070.2 secs

     total energy              =    -806.56889717 Ry
     estimated scf accuracy    <       0.00000021 Ry

     iteration # 13     ecut=    50.00 Ry     beta= 0.70
     Davidson diagonalization with overlap

---- Real-time Memory Report at c_bands before calling an iterative solver
           579 MiB given to the printing process from OS
             0 MiB allocation reported by mallinfo(arena+hblkhd)
         69757 MiB available memory on the node where the printing process lives
------------------
     ethr =  2.76E-10,  avg # of iterations =  6.0

     total cpu time spent up to now is     1144.3 secs

     total energy              =    -806.56889722 Ry
     estimated scf accuracy    <       0.00000027 Ry

     iteration # 14     ecut=    50.00 Ry     beta= 0.70
     Davidson diagonalization with overlap

---- Real-time Memory Report at c_bands before calling an iterative solver
           579 MiB given to the printing process from OS
             0 MiB allocation reported by mallinfo(arena+hblkhd)
         69756 MiB available memory on the node where the printing process lives
------------------
     ethr =  2.76E-10,  avg # of iterations =  2.0

     total cpu time spent up to now is     1198.0 secs

     total energy              =    -806.56889722 Ry
     estimated scf accuracy    <       0.00000011 Ry

     iteration # 15     ecut=    50.00 Ry     beta= 0.70
     Davidson diagonalization with overlap

---- Real-time Memory Report at c_bands before calling an iterative solver
           579 MiB given to the printing process from OS
             0 MiB allocation reported by mallinfo(arena+hblkhd)
         69757 MiB available memory on the node where the printing process lives
------------------
     ethr =  1.42E-10,  avg # of iterations =  5.4

     total cpu time spent up to now is     1261.6 secs

     End of self-consistent calculation

          k = 0.0000 0.0000 0.0000 ( 15117 PWs)   bands (ev):

   -35.7022 -35.7022 -35.7022 -35.7022 -35.6658 -35.6658 -35.6658 -35.6658
   -35.6016 -35.6016 -35.5715 -35.5715 -34.2443 -34.2443 -34.2443 -34.2443
   -34.2139 -34.2139 -34.2139 -34.2139 -34.1970 -34.1970 -34.1970 -34.1970
   -34.1407 -34.1407 -34.1218 -34.1218 -34.1010 -34.1010 -28.3606 -28.3606
   -28.3605 -28.3605 -28.3519 -28.3519 -28.3518 -28.3518 -27.1210 -27.1210
   -27.1208 -27.1208 -27.1130 -27.1130 -27.1129 -27.1129 -27.1088 -27.1088
   -27.1087 -27.1087 -10.7489 -10.7489 -10.2063 -10.2063  -9.1383  -9.1383
    -6.4120  -6.4120  -5.0952  -5.0952  -0.7288  -0.7288  -0.3271  -0.3271
    -0.0134  -0.0134   0.2172   0.2172   0.3355   0.3355   0.3901   0.3901
     0.7100   0.7100   0.9282   0.9282   1.1552   1.1552

     occupation numbers 
     1.0000   1.0000   1.0000   1.0000   1.0000   1.0000   1.0000   1.0000
     1.0000   1.0000   1.0000   1.0000   1.0000   1.0000   1.0000   1.0000
     1.0000   1.0000   1.0000   1.0000   1.0000   1.0000   1.0000   1.0000
     1.0000   1.0000   1.0000   1.0000   1.0000   1.0000   1.0000   1.0000
     1.0000   1.0000   1.0000   1.0000   1.0000   1.0000   1.0000   1.0000
     1.0000   1.0000   1.0000   1.0000   1.0000   1.0000   1.0000   1.0000
     1.0000   1.0000   1.0000   1.0000   1.0000   1.0000   1.0000   1.0000
     1.0000   1.0000   1.0000   1.0000   1.0000   1.0000   1.0000   1.0000
     1.0000   1.0000   1.0000   1.0000   1.0000   1.0000   1.0000   1.0000
     1.0000   1.0000   1.0000   1.0000   1.0000   1.0000

          k = 0.0000 0.0577 0.0000 ( 15126 PWs)   bands (ev):

   -35.7022 -35.7022 -35.7022 -35.7022 -35.6658 -35.6658 -35.6658 -35.6658
   -35.6016 -35.6016 -35.5715 -35.5715 -34.2443 -34.2443 -34.2443 -34.2443
   -34.2140 -34.2139 -34.2139 -34.2139 -34.1970 -34.1970 -34.1970 -34.1970
   -34.1407 -34.1407 -34.1218 -34.1218 -34.1010 -34.1010 -28.3606 -28.3606
   -28.3605 -28.3604 -28.3519 -28.3519 -28.3518 -28.3518 -27.1209 -27.1209
   -27.1208 -27.1208 -27.1131 -27.1130 -27.1129 -27.1128 -27.1088 -27.1088
   -27.1088 -27.1087 -10.7293 -10.7293 -10.1883 -10.1883  -9.1276  -9.1276
    -6.4155  -6.4155  -5.1280  -5.1280  -0.7588  -0.7587  -0.4787  -0.4786
    -0.0514  -0.0507   0.0549   0.0551   0.1926   0.1929   0.4208   0.4216
     0.7273   0.7276   0.9072   0.9073   1.2625   1.2627

     occupation numbers 
     1.0000   1.0000   1.0000   1.0000   1.0000   1.0000   1.0000   1.0000
     1.0000   1.0000   1.0000   1.0000   1.0000   1.0000   1.0000   1.0000
     1.0000   1.0000   1.0000   1.0000   1.0000   1.0000   1.0000   1.0000
     1.0000   1.0000   1.0000   1.0000   1.0000   1.0000   1.0000   1.0000
     1.0000   1.0000   1.0000   1.0000   1.0000   1.0000   1.0000   1.0000
     1.0000   1.0000   1.0000   1.0000   1.0000   1.0000   1.0000   1.0000
     1.0000   1.0000   1.0000   1.0000   1.0000   1.0000   1.0000   1.0000
     1.0000   1.0000   1.0000   1.0000   1.0000   1.0000   1.0000   1.0000
     1.0000   1.0000   1.0000   1.0000   1.0000   1.0000   1.0000   1.0000
     1.0000   1.0000   1.0000   1.0000   1.0000   1.0000

          k = 0.0000 0.1155 0.0000 ( 15114 PWs)   bands (ev):

   -35.7022 -35.7022 -35.7022 -35.7022 -35.6658 -35.6658 -35.6658 -35.6657
   -35.6016 -35.6016 -35.5714 -35.5714 -34.2443 -34.2443 -34.2443 -34.2442
   -34.2140 -34.2139 -34.2139 -34.2139 -34.1970 -34.1970 -34.1970 -34.1969
   -34.1407 -34.1407 -34.1218 -34.1218 -34.1010 -34.1010 -28.3606 -28.3606
   -28.3604 -28.3604 -28.3520 -28.3519 -28.3518 -28.3518 -27.1208 -27.1208
   -27.1207 -27.1207 -27.1130 -27.1130 -27.1128 -27.1128 -27.1089 -27.1088
   -27.1088 -27.1087 -10.6705 -10.6705 -10.1346 -10.1346  -9.0962  -9.0962
    -6.4280  -6.4280  -5.2259  -5.2259  -0.8882  -0.8881  -0.7647  -0.7646
    -0.3821  -0.3815  -0.0838  -0.0836   0.0176   0.0179   0.2875   0.2878
     0.6306   0.6309   1.0989   1.0990   1.3908   1.3910

     occupation numbers 
     1.0000   1.0000   1.0000   1.0000   1.0000   1.0000   1.0000   1.0000
     1.0000   1.0000   1.0000   1.0000   1.0000   1.0000   1.0000   1.0000
     1.0000   1.0000   1.0000   1.0000   1.0000   1.0000   1.0000   1.0000
     1.0000   1.0000   1.0000   1.0000   1.0000   1.0000   1.0000   1.0000
     1.0000   1.0000   1.0000   1.0000   1.0000   1.0000   1.0000   1.0000
     1.0000   1.0000   1.0000   1.0000   1.0000   1.0000   1.0000   1.0000
     1.0000   1.0000   1.0000   1.0000   1.0000   1.0000   1.0000   1.0000
     1.0000   1.0000   1.0000   1.0000   1.0000   1.0000   1.0000   1.0000
     1.0000   1.0000   1.0000   1.0000   1.0000   1.0000   1.0000   1.0000
     1.0000   1.0000   1.0000   1.0000   1.0000   1.0000

          k = 0.0000 0.1732 0.0000 ( 15094 PWs)   bands (ev):

   -35.7022 -35.7022 -35.7021 -35.7021 -35.6658 -35.6658 -35.6658 -35.6657
   -35.6016 -35.6016 -35.5714 -35.5714 -34.2442 -34.2442 -34.2442 -34.2442
   -34.2140 -34.2139 -34.2139 -34.2139 -34.1970 -34.1969 -34.1969 -34.1969
   -34.1407 -34.1407 -34.1218 -34.1218 -34.1009 -34.1009 -28.3605 -28.3605
   -28.3603 -28.3603 -28.3520 -28.3520 -28.3518 -28.3518 -27.1207 -27.1207
   -27.1205 -27.1205 -27.1130 -27.1130 -27.1128 -27.1128 -27.1090 -27.1089
   -27.1088 -27.1087 -10.5734 -10.5734 -10.0465 -10.0465  -9.0465  -9.0465
    -6.4549  -6.4549  -5.3866  -5.3865  -1.2623  -1.2622  -0.9419  -0.9418
    -0.7098  -0.7094  -0.3080  -0.3078  -0.2371  -0.2368   0.1884   0.1886
     0.6178   0.6181   1.0819   1.0821   1.3802   1.3805

     occupation numbers 
     1.0000   1.0000   1.0000   1.0000   1.0000   1.0000   1.0000   1.0000
     1.0000   1.0000   1.0000   1.0000   1.0000   1.0000   1.0000   1.0000
     1.0000   1.0000   1.0000   1.0000   1.0000   1.0000   1.0000   1.0000
     1.0000   1.0000   1.0000   1.0000   1.0000   1.0000   1.0000   1.0000
     1.0000   1.0000   1.0000   1.0000   1.0000   1.0000   1.0000   1.0000
     1.0000   1.0000   1.0000   1.0000   1.0000   1.0000   1.0000   1.0000
     1.0000   1.0000   1.0000   1.0000   1.0000   1.0000   1.0000   1.0000
     1.0000   1.0000   1.0000   1.0000   1.0000   1.0000   1.0000   1.0000
     1.0000   1.0000   1.0000   1.0000   1.0000   1.0000   1.0000   1.0000
     1.0000   1.0000   1.0000   1.0000   1.0000   1.0000

          k = 0.0000 0.2309 0.0000 ( 15102 PWs)   bands (ev):

   -35.7021 -35.7021 -35.7021 -35.7021 -35.6658 -35.6658 -35.6657 -35.6657
   -35.6016 -35.6016 -35.5713 -35.5713 -34.2441 -34.2441 -34.2441 -34.2441
   -34.2140 -34.2139 -34.2139 -34.2139 -34.1969 -34.1969 -34.1969 -34.1968
   -34.1406 -34.1406 -34.1218 -34.1218 -34.1008 -34.1008 -28.3604 -28.3603
   -28.3602 -28.3602 -28.3521 -28.3520 -28.3518 -28.3518 -27.1205 -27.1205
   -27.1203 -27.1203 -27.1130 -27.1130 -27.1128 -27.1127 -27.1091 -27.1090
   -27.1088 -27.1088 -10.4394 -10.4394  -9.9262  -9.9262  -8.9829  -8.9829
    -6.5052  -6.5052  -5.6030  -5.6030  -1.6908  -1.6906  -1.1340  -1.1338
    -0.9973  -0.9972  -0.5594  -0.5592  -0.4497  -0.4494   0.1383   0.1385
     0.5276   0.5280   0.8361   0.8364   1.4659   1.4661

     occupation numbers 
     1.0000   1.0000   1.0000   1.0000   1.0000   1.0000   1.0000   1.0000
     1.0000   1.0000   1.0000   1.0000   1.0000   1.0000   1.0000   1.0000
     1.0000   1.0000   1.0000   1.0000   1.0000   1.0000   1.0000   1.0000
     1.0000   1.0000   1.0000   1.0000   1.0000   1.0000   1.0000   1.0000
     1.0000   1.0000   1.0000   1.0000   1.0000   1.0000   1.0000   1.0000
     1.0000   1.0000   1.0000   1.0000   1.0000   1.0000   1.0000   1.0000
     1.0000   1.0000   1.0000   1.0000   1.0000   1.0000   1.0000   1.0000
     1.0000   1.0000   1.0000   1.0000   1.0000   1.0000   1.0000   1.0000
     1.0000   1.0000   1.0000   1.0000   1.0000   1.0000   1.0000   1.0000
     1.0000   1.0000   1.0000   1.0000   1.0000   1.0000

          k = 0.0000 0.2887 0.0000 ( 15100 PWs)   bands (ev):

   -35.7021 -35.7020 -35.7020 -35.7020 -35.6658 -35.6657 -35.6657 -35.6657
   -35.6016 -35.6016 -35.5713 -35.5713 -34.2440 -34.2440 -34.2440 -34.2440
   -34.2140 -34.2139 -34.2139 -34.2139 -34.1969 -34.1968 -34.1968 -34.1968
   -34.1406 -34.1406 -34.1218 -34.1218 -34.1007 -34.1007 -28.3603 -28.3602
   -28.3601 -28.3601 -28.3521 -28.3520 -28.3519 -28.3518 -27.1203 -27.1202
   -27.1201 -27.1201 -27.1130 -27.1129 -27.1127 -27.1127 -27.1092 -27.1091
   -27.1089 -27.1088 -10.2705 -10.2705  -9.7773  -9.7773  -8.9120  -8.9120
    -6.5895  -6.5895  -5.8614  -5.8614  -2.0919  -2.0918  -1.3821  -1.3817
    -1.2130  -1.2126  -0.7647  -0.7644  -0.6300  -0.6298   0.0915   0.0918
     0.2936   0.2939   0.7274   0.7276   1.4215   1.4218

     occupation numbers 
     1.0000   1.0000   1.0000   1.0000   1.0000   1.0000   1.0000   1.0000
     1.0000   1.0000   1.0000   1.0000   1.0000   1.0000   1.0000   1.0000
     1.0000   1.0000   1.0000   1.0000   1.0000   1.0000   1.0000   1.0000
     1.0000   1.0000   1.0000   1.0000   1.0000   1.0000   1.0000   1.0000
     1.0000   1.0000   1.0000   1.0000   1.0000   1.0000   1.0000   1.0000
     1.0000   1.0000   1.0000   1.0000   1.0000   1.0000   1.0000   1.0000
     1.0000   1.0000   1.0000   1.0000   1.0000   1.0000   1.0000   1.0000
     1.0000   1.0000   1.0000   1.0000   1.0000   1.0000   1.0000   1.0000
     1.0000   1.0000   1.0000   1.0000   1.0000   1.0000   1.0000   1.0000
     1.0000   1.0000   1.0000   1.0000   1.0000   1.0000

          k = 0.0000 0.3464 0.0000 ( 15093 PWs)   bands (ev):

   -35.7020 -35.7020 -35.7020 -35.7019 -35.6658 -35.6657 -35.6657 -35.6657
   -35.6015 -35.6015 -35.5712 -35.5712 -34.2439 -34.2439 -34.2439 -34.2439
   -34.2140 -34.2139 -34.2139 -34.2139 -34.1968 -34.1968 -34.1967 -34.1967
   -34.1406 -34.1406 -34.1217 -34.1217 -34.1005 -34.1005 -28.3601 -28.3601
   -28.3600 -28.3600 -28.3521 -28.3521 -28.3519 -28.3518 -27.1200 -27.1200
   -27.1199 -27.1199 -27.1130 -27.1129 -27.1127 -27.1127 -27.1092 -27.1092
   -27.1089 -27.1088 -10.0703 -10.0703  -9.6054  -9.6054  -8.8435  -8.8435
    -6.7181  -6.7181  -6.1392  -6.1392  -2.4402  -2.4401  -1.6179  -1.6176
    -1.3882  -1.3878  -0.9181  -0.9178  -0.7946  -0.7945  -0.0584  -0.0582
     0.1524   0.1527   0.6809   0.6810   1.2666   1.2668

     occupation numbers 
     1.0000   1.0000   1.0000   1.0000   1.0000   1.0000   1.0000   1.0000
     1.0000   1.0000   1.0000   1.0000   1.0000   1.0000   1.0000   1.0000
     1.0000   1.0000   1.0000   1.0000   1.0000   1.0000   1.0000   1.0000
     1.0000   1.0000   1.0000   1.0000   1.0000   1.0000   1.0000   1.0000
     1.0000   1.0000   1.0000   1.0000   1.0000   1.0000   1.0000   1.0000
     1.0000   1.0000   1.0000   1.0000   1.0000   1.0000   1.0000   1.0000
     1.0000   1.0000   1.0000   1.0000   1.0000   1.0000   1.0000   1.0000
     1.0000   1.0000   1.0000   1.0000   1.0000   1.0000   1.0000   1.0000
     1.0000   1.0000   1.0000   1.0000   1.0000   1.0000   1.0000   1.0000
     1.0000   1.0000   1.0000   1.0000   1.0000   1.0000

          k = 0.0000 0.4041 0.0000 ( 15102 PWs)   bands (ev):

   -35.7019 -35.7019 -35.7019 -35.7019 -35.6657 -35.6657 -35.6657 -35.6656
   -35.6015 -35.6015 -35.5711 -35.5711 -34.2438 -34.2438 -34.2438 -34.2438
   -34.2140 -34.2139 -34.2139 -34.2139 -34.1968 -34.1967 -34.1967 -34.1967
   -34.1406 -34.1406 -34.1217 -34.1217 -34.1004 -34.1004 -28.3600 -28.3600
   -28.3599 -28.3599 -28.3521 -28.3521 -28.3519 -28.3519 -27.1199 -27.1198
   -27.1198 -27.1198 -27.1129 -27.1129 -27.1127 -27.1127 -27.1092 -27.1092
   -27.1089 -27.1089  -9.8439  -9.8439  -9.4198  -9.4198  -8.7915  -8.7915
    -6.8941  -6.8941  -6.4075  -6.4074  -2.7249  -2.7249  -1.7949  -1.7947
    -1.5385  -1.5382  -1.0384  -1.0381  -0.9508  -0.9507  -0.2467  -0.2465
     0.1089   0.1092   0.6567   0.6568   1.0796   1.0799

     occupation numbers 
     1.0000   1.0000   1.0000   1.0000   1.0000   1.0000   1.0000   1.0000
     1.0000   1.0000   1.0000   1.0000   1.0000   1.0000   1.0000   1.0000
     1.0000   1.0000   1.0000   1.0000   1.0000   1.0000   1.0000   1.0000
     1.0000   1.0000   1.0000   1.0000   1.0000   1.0000   1.0000   1.0000
     1.0000   1.0000   1.0000   1.0000   1.0000   1.0000   1.0000   1.0000
     1.0000   1.0000   1.0000   1.0000   1.0000   1.0000   1.0000   1.0000
     1.0000   1.0000   1.0000   1.0000   1.0000   1.0000   1.0000   1.0000
     1.0000   1.0000   1.0000   1.0000   1.0000   1.0000   1.0000   1.0000
     1.0000   1.0000   1.0000   1.0000   1.0000   1.0000   1.0000   1.0000
     1.0000   1.0000   1.0000   1.0000   1.0000   1.0000

          k = 0.0000 0.4619 0.0000 ( 15082 PWs)   bands (ev):

   -35.7019 -35.7019 -35.7018 -35.7018 -35.6657 -35.6657 -35.6657 -35.6656
   -35.6015 -35.6015 -35.5711 -35.5711 -34.2437 -34.2437 -34.2437 -34.2437
   -34.2140 -34.2139 -34.2139 -34.2139 -34.1967 -34.1967 -34.1967 -34.1966
   -34.1406 -34.1406 -34.1217 -34.1217 -34.1003 -34.1003 -28.3599 -28.3599
   -28.3598 -28.3598 -28.3522 -28.3521 -28.3520 -28.3519 -27.1197 -27.1197
   -27.1196 -27.1196 -27.1129 -27.1129 -27.1127 -27.1127 -27.1092 -27.1092
   -27.1090 -27.1089  -9.5996  -9.5996  -9.2355  -9.2355  -8.7748  -8.7748
    -7.1002  -7.1002  -6.6388  -6.6388  -2.9423  -2.9422  -1.8993  -1.8991
    -1.6621  -1.6618  -1.1492  -1.1489  -1.0880  -1.0879  -0.3611  -0.3609
     0.0647   0.0649   0.6504   0.6505   0.9156   0.9157

     occupation numbers 
     1.0000   1.0000   1.0000   1.0000   1.0000   1.0000   1.0000   1.0000
     1.0000   1.0000   1.0000   1.0000   1.0000   1.0000   1.0000   1.0000
     1.0000   1.0000   1.0000   1.0000   1.0000   1.0000   1.0000   1.0000
     1.0000   1.0000   1.0000   1.0000   1.0000   1.0000   1.0000   1.0000
     1.0000   1.0000   1.0000   1.0000   1.0000   1.0000   1.0000   1.0000
     1.0000   1.0000   1.0000   1.0000   1.0000   1.0000   1.0000   1.0000
     1.0000   1.0000   1.0000   1.0000   1.0000   1.0000   1.0000   1.0000
     1.0000   1.0000   1.0000   1.0000   1.0000   1.0000   1.0000   1.0000
     1.0000   1.0000   1.0000   1.0000   1.0000   1.0000   1.0000   1.0000
     1.0000   1.0000   1.0000   1.0000   1.0000   1.0000

          k = 0.0000 0.5196 0.0000 ( 15085 PWs)   bands (ev):

   -35.7018 -35.7018 -35.7018 -35.7018 -35.6657 -35.6657 -35.6656 -35.6656
   -35.6015 -35.6015 -35.5710 -35.5710 -34.2437 -34.2437 -34.2436 -34.2436
   -34.2139 -34.2139 -34.2139 -34.2139 -34.1967 -34.1966 -34.1966 -34.1966
   -34.1406 -34.1406 -34.1217 -34.1217 -34.1003 -34.1003 -28.3599 -28.3598
   -28.3597 -28.3597 -28.3521 -28.3521 -28.3520 -28.3519 -27.1196 -27.1196
   -27.1195 -27.1195 -27.1129 -27.1128 -27.1127 -27.1127 -27.1092 -27.1092
   -27.1090 -27.1089  -9.3511  -9.3511  -9.0773  -9.0772  -8.8160  -8.8160
    -7.2908  -7.2908  -6.8129  -6.8129  -3.0900  -3.0900  -1.9345  -1.9344
    -1.7586  -1.7584  -1.2709  -1.2707  -1.1669  -1.1668  -0.4068  -0.4067
     0.0151   0.0153   0.6503   0.6504   0.8056   0.8057

     occupation numbers 
     1.0000   1.0000   1.0000   1.0000   1.0000   1.0000   1.0000   1.0000
     1.0000   1.0000   1.0000   1.0000   1.0000   1.0000   1.0000   1.0000
     1.0000   1.0000   1.0000   1.0000   1.0000   1.0000   1.0000   1.0000
     1.0000   1.0000   1.0000   1.0000   1.0000   1.0000   1.0000   1.0000
     1.0000   1.0000   1.0000   1.0000   1.0000   1.0000   1.0000   1.0000
     1.0000   1.0000   1.0000   1.0000   1.0000   1.0000   1.0000   1.0000
     1.0000   1.0000   1.0000   1.0000   1.0000   1.0000   1.0000   1.0000
     1.0000   1.0000   1.0000   1.0000   1.0000   1.0000   1.0000   1.0000
     1.0000   1.0000   1.0000   1.0000   1.0000   1.0000   1.0000   1.0000
     1.0000   1.0000   1.0000   1.0000   1.0000   1.0000

          k = 0.0000 0.5774 0.0000 ( 15104 PWs)   bands (ev):

   -35.7018 -35.7018 -35.7018 -35.7018 -35.6657 -35.6657 -35.6656 -35.6656
   -35.6015 -35.6015 -35.5710 -35.5710 -34.2436 -34.2436 -34.2436 -34.2436
   -34.2139 -34.2139 -34.2139 -34.2139 -34.1966 -34.1966 -34.1966 -34.1966
   -34.1406 -34.1406 -34.1217 -34.1217 -34.1002 -34.1002 -28.3598 -28.3598
   -28.3597 -28.3597 -28.3521 -28.3521 -28.3520 -28.3520 -27.1196 -27.1196
   -27.1195 -27.1195 -27.1129 -27.1128 -27.1127 -27.1127 -27.1092 -27.1092
   -27.1090 -27.1089  -9.1202  -9.1202  -8.9814  -8.9814  -8.9312  -8.9312
    -7.4076  -7.4076  -6.9092  -6.9092  -3.1651  -3.1651  -1.9219  -1.9218
    -1.8264  -1.8262  -1.3513  -1.3513  -1.2020  -1.2019  -0.4160  -0.4160
    -0.0207  -0.0207   0.6441   0.6441   0.7605   0.7606

     occupation numbers 
     1.0000   1.0000   1.0000   1.0000   1.0000   1.0000   1.0000   1.0000
     1.0000   1.0000   1.0000   1.0000   1.0000   1.0000   1.0000   1.0000
     1.0000   1.0000   1.0000   1.0000   1.0000   1.0000   1.0000   1.0000
     1.0000   1.0000   1.0000   1.0000   1.0000   1.0000   1.0000   1.0000
     1.0000   1.0000   1.0000   1.0000   1.0000   1.0000   1.0000   1.0000
     1.0000   1.0000   1.0000   1.0000   1.0000   1.0000   1.0000   1.0000
     1.0000   1.0000   1.0000   1.0000   1.0000   1.0000   1.0000   1.0000
     1.0000   1.0000   1.0000   1.0000   1.0000   1.0000   1.0000   1.0000
     1.0000   1.0000   1.0000   1.0000   1.0000   1.0000   1.0000   1.0000
     1.0000   1.0000   1.0000   1.0000   1.0000   1.0000

          k = 0.0476 0.0275 0.0000 ( 15111 PWs)   bands (ev):

   -35.7022 -35.7022 -35.7022 -35.7022 -35.6658 -35.6658 -35.6658 -35.6658
   -35.6016 -35.6016 -35.5715 -35.5715 -34.2443 -34.2443 -34.2443 -34.2443
   -34.2139 -34.2139 -34.2139 -34.2139 -34.1970 -34.1970 -34.1970 -34.1970
   -34.1407 -34.1407 -34.1218 -34.1218 -34.1010 -34.1010 -28.3606 -28.3606
   -28.3605 -28.3605 -28.3519 -28.3519 -28.3518 -28.3518 -27.1210 -27.1210
   -27.1208 -27.1208 -27.1131 -27.1130 -27.1129 -27.1128 -27.1088 -27.1088
   -27.1087 -27.1087 -10.7310 -10.7310 -10.1902 -10.1902  -9.1292  -9.1292
    -6.4178  -6.4178  -5.1338  -5.1338  -0.7673  -0.7673  -0.5476  -0.5475
    -0.0294  -0.0288   0.0205   0.0208   0.2840   0.2844   0.4761   0.4769
     0.7420   0.7426   0.9176   0.9181   1.2443   1.2446

     occupation numbers 
     1.0000   1.0000   1.0000   1.0000   1.0000   1.0000   1.0000   1.0000
     1.0000   1.0000   1.0000   1.0000   1.0000   1.0000   1.0000   1.0000
     1.0000   1.0000   1.0000   1.0000   1.0000   1.0000   1.0000   1.0000
     1.0000   1.0000   1.0000   1.0000   1.0000   1.0000   1.0000   1.0000
     1.0000   1.0000   1.0000   1.0000   1.0000   1.0000   1.0000   1.0000
     1.0000   1.0000   1.0000   1.0000   1.0000   1.0000   1.0000   1.0000
     1.0000   1.0000   1.0000   1.0000   1.0000   1.0000   1.0000   1.0000
     1.0000   1.0000   1.0000   1.0000   1.0000   1.0000   1.0000   1.0000
     1.0000   1.0000   1.0000   1.0000   1.0000   1.0000   1.0000   1.0000
     1.0000   1.0000   1.0000   1.0000   1.0000   1.0000

          k = 0.0476 0.0852 0.0000 ( 15117 PWs)   bands (ev):

   -35.7022 -35.7022 -35.7022 -35.7022 -35.6658 -35.6658 -35.6658 -35.6658
   -35.6016 -35.6016 -35.5715 -35.5715 -34.2443 -34.2443 -34.2443 -34.2443
   -34.2139 -34.2139 -34.2139 -34.2139 -34.1970 -34.1970 -34.1970 -34.1969
   -34.1407 -34.1407 -34.1218 -34.1218 -34.1010 -34.1010 -28.3606 -28.3606
   -28.3604 -28.3604 -28.3519 -28.3519 -28.3518 -28.3518 -27.1209 -27.1209
   -27.1207 -27.1207 -27.1131 -27.1130 -27.1129 -27.1128 -27.1089 -27.1088
   -27.1088 -27.1087 -10.6927 -10.6927 -10.1554 -10.1554  -9.1091  -9.1091
    -6.4271  -6.4271  -5.2023  -5.2023  -0.8530  -0.8529  -0.7612  -0.7611
    -0.2896  -0.2889  -0.0260  -0.0256   0.1855   0.1859   0.3418   0.3424
     0.7033   0.7034   1.0279   1.0281   1.3765   1.3768

     occupation numbers 
     1.0000   1.0000   1.0000   1.0000   1.0000   1.0000   1.0000   1.0000
     1.0000   1.0000   1.0000   1.0000   1.0000   1.0000   1.0000   1.0000
     1.0000   1.0000   1.0000   1.0000   1.0000   1.0000   1.0000   1.0000
     1.0000   1.0000   1.0000   1.0000   1.0000   1.0000   1.0000   1.0000
     1.0000   1.0000   1.0000   1.0000   1.0000   1.0000   1.0000   1.0000
     1.0000   1.0000   1.0000   1.0000   1.0000   1.0000   1.0000   1.0000
     1.0000   1.0000   1.0000   1.0000   1.0000   1.0000   1.0000   1.0000
     1.0000   1.0000   1.0000   1.0000   1.0000   1.0000   1.0000   1.0000
     1.0000   1.0000   1.0000   1.0000   1.0000   1.0000   1.0000   1.0000
     1.0000   1.0000   1.0000   1.0000   1.0000   1.0000

          k = 0.0476 0.1430 0.0000 ( 15102 PWs)   bands (ev):

   -35.7022 -35.7022 -35.7021 -35.7021 -35.6658 -35.6658 -35.6658 -35.6657
   -35.6016 -35.6016 -35.5714 -35.5714 -34.2442 -34.2442 -34.2442 -34.2442
   -34.2139 -34.2139 -34.2139 -34.2139 -34.1970 -34.1969 -34.1969 -34.1969
   -34.1407 -34.1407 -34.1218 -34.1218 -34.1009 -34.1009 -28.3605 -28.3605
   -28.3604 -28.3604 -28.3520 -28.3519 -28.3518 -28.3518 -27.1208 -27.1208
   -27.1206 -27.1206 -27.1131 -27.1130 -27.1128 -27.1128 -27.1089 -27.1089
   -27.1088 -27.1087 -10.6157 -10.6157 -10.0855 -10.0855  -9.0693  -9.0693
    -6.4479  -6.4479  -5.3338  -5.3338  -1.1271  -1.1269  -0.9161  -0.9160
    -0.6600  -0.6597  -0.2382  -0.2379   0.0536   0.0539   0.2113   0.2116
     0.6038   0.6040   1.1707   1.1709   1.3938   1.3941

     occupation numbers 
     1.0000   1.0000   1.0000   1.0000   1.0000   1.0000   1.0000   1.0000
     1.0000   1.0000   1.0000   1.0000   1.0000   1.0000   1.0000   1.0000
     1.0000   1.0000   1.0000   1.0000   1.0000   1.0000   1.0000   1.0000
     1.0000   1.0000   1.0000   1.0000   1.0000   1.0000   1.0000   1.0000
     1.0000   1.0000   1.0000   1.0000   1.0000   1.0000   1.0000   1.0000
     1.0000   1.0000   1.0000   1.0000   1.0000   1.0000   1.0000   1.0000
     1.0000   1.0000   1.0000   1.0000   1.0000   1.0000   1.0000   1.0000
     1.0000   1.0000   1.0000   1.0000   1.0000   1.0000   1.0000   1.0000
     1.0000   1.0000   1.0000   1.0000   1.0000   1.0000   1.0000   1.0000
     1.0000   1.0000   1.0000   1.0000   1.0000   1.0000

          k = 0.0476 0.2007 0.0000 ( 15091 PWs)   bands (ev):

   -35.7021 -35.7021 -35.7021 -35.7021 -35.6658 -35.6658 -35.6658 -35.6657
   -35.6016 -35.6016 -35.5714 -35.5714 -34.2442 -34.2441 -34.2441 -34.2441
   -34.2139 -34.2139 -34.2139 -34.2139 -34.1969 -34.1969 -34.1969 -34.1969
   -34.1406 -34.1406 -34.1218 -34.1218 -34.1008 -34.1008 -28.3605 -28.3604
   -28.3603 -28.3603 -28.3520 -28.3520 -28.3518 -28.3518 -27.1206 -27.1206
   -27.1205 -27.1204 -27.1131 -27.1130 -27.1128 -27.1127 -27.1090 -27.1090
   -27.1088 -27.1087 -10.5010 -10.5010  -9.9822  -9.9822  -9.0133  -9.0133
    -6.4868  -6.4868  -5.5235  -5.5234  -1.4945  -1.4943  -1.1318  -1.1317
    -0.9248  -0.9248  -0.4930  -0.4927  -0.1879  -0.1876   0.1016   0.1019
     0.5796   0.5797   1.0178   1.0180   1.4556   1.4558

     occupation numbers 
     1.0000   1.0000   1.0000   1.0000   1.0000   1.0000   1.0000   1.0000
     1.0000   1.0000   1.0000   1.0000   1.0000   1.0000   1.0000   1.0000
     1.0000   1.0000   1.0000   1.0000   1.0000   1.0000   1.0000   1.0000
     1.0000   1.0000   1.0000   1.0000   1.0000   1.0000   1.0000   1.0000
     1.0000   1.0000   1.0000   1.0000   1.0000   1.0000   1.0000   1.0000
     1.0000   1.0000   1.0000   1.0000   1.0000   1.0000   1.0000   1.0000
     1.0000   1.0000   1.0000   1.0000   1.0000   1.0000   1.0000   1.0000
     1.0000   1.0000   1.0000   1.0000   1.0000   1.0000   1.0000   1.0000
     1.0000   1.0000   1.0000   1.0000   1.0000   1.0000   1.0000   1.0000
     1.0000   1.0000   1.0000   1.0000   1.0000   1.0000

          k = 0.0476 0.2584 0.0000 ( 15086 PWs)   bands (ev):

   -35.7021 -35.7021 -35.7020 -35.7020 -35.6658 -35.6658 -35.6657 -35.6657
   -35.6016 -35.6016 -35.5713 -35.5713 -34.2441 -34.2440 -34.2440 -34.2440
   -34.2140 -34.2139 -34.2139 -34.2139 -34.1969 -34.1969 -34.1968 -34.1968
   -34.1406 -34.1406 -34.1217 -34.1217 -34.1007 -34.1007 -28.3603 -28.3603
   -28.3602 -28.3602 -28.3521 -28.3520 -28.3518 -28.3518 -27.1204 -27.1204
   -27.1203 -27.1202 -27.1130 -27.1130 -27.1128 -27.1127 -27.1091 -27.1090
   -27.1088 -27.1088 -10.3503 -10.3503  -9.8482  -9.8482  -8.9461  -8.9461
    -6.5532  -6.5532  -5.7616  -5.7616  -1.8876  -1.8874  -1.3947  -1.3946
    -1.0855  -1.0853  -0.7496  -0.7491  -0.4349  -0.4346   0.0159   0.0161
     0.5220   0.5220   0.7904   0.7906   1.4697   1.4699

     occupation numbers 
     1.0000   1.0000   1.0000   1.0000   1.0000   1.0000   1.0000   1.0000
     1.0000   1.0000   1.0000   1.0000   1.0000   1.0000   1.0000   1.0000
     1.0000   1.0000   1.0000   1.0000   1.0000   1.0000   1.0000   1.0000
     1.0000   1.0000   1.0000   1.0000   1.0000   1.0000   1.0000   1.0000
     1.0000   1.0000   1.0000   1.0000   1.0000   1.0000   1.0000   1.0000
     1.0000   1.0000   1.0000   1.0000   1.0000   1.0000   1.0000   1.0000
     1.0000   1.0000   1.0000   1.0000   1.0000   1.0000   1.0000   1.0000
     1.0000   1.0000   1.0000   1.0000   1.0000   1.0000   1.0000   1.0000
     1.0000   1.0000   1.0000   1.0000   1.0000   1.0000   1.0000   1.0000
     1.0000   1.0000   1.0000   1.0000   1.0000   1.0000

          k = 0.0476 0.3162 0.0000 ( 15083 PWs)   bands (ev):

   -35.7020 -35.7020 -35.7020 -35.7020 -35.6658 -35.6657 -35.6657 -35.6657
   -35.6015 -35.6015 -35.5712 -35.5712 -34.2440 -34.2439 -34.2439 -34.2439
   -34.2140 -34.2139 -34.2139 -34.2139 -34.1968 -34.1968 -34.1968 -34.1967
   -34.1406 -34.1406 -34.1217 -34.1217 -34.1006 -34.1006 -28.3602 -28.3602
   -28.3601 -28.3600 -28.3521 -28.3520 -28.3519 -28.3518 -27.1202 -27.1201
   -27.1201 -27.1200 -27.1130 -27.1130 -27.1127 -27.1127 -27.1092 -27.1091
   -27.1089 -27.1088 -10.1662 -10.1662  -9.6881  -9.6881  -8.8757  -8.8757
    -6.6575  -6.6574  -6.0309  -6.0309  -2.2576  -2.2575  -1.6100  -1.6099
    -1.2546  -1.2543  -0.9853  -0.9849  -0.6126  -0.6124  -0.0884  -0.0884
     0.3664   0.3666   0.6833   0.6835   1.3754   1.3756

     occupation numbers 
     1.0000   1.0000   1.0000   1.0000   1.0000   1.0000   1.0000   1.0000
     1.0000   1.0000   1.0000   1.0000   1.0000   1.0000   1.0000   1.0000
     1.0000   1.0000   1.0000   1.0000   1.0000   1.0000   1.0000   1.0000
     1.0000   1.0000   1.0000   1.0000   1.0000   1.0000   1.0000   1.0000
     1.0000   1.0000   1.0000   1.0000   1.0000   1.0000   1.0000   1.0000
     1.0000   1.0000   1.0000   1.0000   1.0000   1.0000   1.0000   1.0000
     1.0000   1.0000   1.0000   1.0000   1.0000   1.0000   1.0000   1.0000
     1.0000   1.0000   1.0000   1.0000   1.0000   1.0000   1.0000   1.0000
     1.0000   1.0000   1.0000   1.0000   1.0000   1.0000   1.0000   1.0000
     1.0000   1.0000   1.0000   1.0000   1.0000   1.0000

          k = 0.0476 0.3739 0.0000 ( 15086 PWs)   bands (ev):

   -35.7020 -35.7019 -35.7019 -35.7019 -35.6657 -35.6657 -35.6657 -35.6657
   -35.6015 -35.6015 -35.5712 -35.5712 -34.2439 -34.2438 -34.2438 -34.2438
   -34.2140 -34.2139 -34.2139 -34.2139 -34.1968 -34.1967 -34.1967 -34.1967
   -34.1406 -34.1406 -34.1217 -34.1217 -34.1005 -34.1005 -28.3601 -28.3601
   -28.3600 -28.3599 -28.3521 -28.3521 -28.3519 -28.3518 -27.1200 -27.1199
   -27.1199 -27.1198 -27.1130 -27.1129 -27.1127 -27.1127 -27.1092 -27.1091
   -27.1089 -27.1089  -9.9531  -9.9531  -9.5089  -9.5089  -8.8134  -8.8134
    -6.8074  -6.8074  -6.3061  -6.3061  -2.5753  -2.5752  -1.7665  -1.7664
    -1.4457  -1.4454  -1.1709  -1.1706  -0.7325  -0.7324  -0.2340  -0.2338
     0.2227   0.2230   0.6507   0.6508   1.2146   1.2148

     occupation numbers 
     1.0000   1.0000   1.0000   1.0000   1.0000   1.0000   1.0000   1.0000
     1.0000   1.0000   1.0000   1.0000   1.0000   1.0000   1.0000   1.0000
     1.0000   1.0000   1.0000   1.0000   1.0000   1.0000   1.0000   1.0000
     1.0000   1.0000   1.0000   1.0000   1.0000   1.0000   1.0000   1.0000
     1.0000   1.0000   1.0000   1.0000   1.0000   1.0000   1.0000   1.0000
     1.0000   1.0000   1.0000   1.0000   1.0000   1.0000   1.0000   1.0000
     1.0000   1.0000   1.0000   1.0000   1.0000   1.0000   1.0000   1.0000
     1.0000   1.0000   1.0000   1.0000   1.0000   1.0000   1.0000   1.0000
     1.0000   1.0000   1.0000   1.0000   1.0000   1.0000   1.0000   1.0000
     1.0000   1.0000   1.0000   1.0000   1.0000   1.0000

          k = 0.0476 0.4316 0.0000 ( 15086 PWs)   bands (ev):

   -35.7019 -35.7019 -35.7019 -35.7018 -35.6657 -35.6657 -35.6657 -35.6656
   -35.6015 -35.6015 -35.5711 -35.5711 -34.2438 -34.2437 -34.2437 -34.2437
   -34.2140 -34.2139 -34.2139 -34.2139 -34.1967 -34.1967 -34.1967 -34.1966
   -34.1406 -34.1406 -34.1217 -34.1217 -34.1004 -34.1004 -28.3600 -28.3600
   -28.3599 -28.3598 -28.3521 -28.3521 -28.3519 -28.3519 -27.1198 -27.1198
   -27.1197 -27.1197 -27.1130 -27.1129 -27.1127 -27.1127 -27.1092 -27.1092
   -27.1090 -27.1089  -9.7173  -9.7173  -9.3222  -9.3222  -8.7753  -8.7753
    -6.9992  -6.9992  -6.5574  -6.5574  -2.8282  -2.8281  -1.8684  -1.8684
[...]
   -27.1196 -27.1195 -27.1133 -27.1133 -27.1131 -27.1131 -27.1088 -27.1088
   -27.1086 -27.1086  -9.0810  -9.0810  -9.0635  -9.0635  -9.0273  -9.0272
    -7.4639  -7.4639  -6.9349  -6.9349  -3.1496  -3.1496  -1.8968  -1.8963
    -1.7659  -1.7653  -1.4432  -1.4431  -0.9973  -0.9970  -0.4226  -0.4222
     0.1514   0.1517   0.7164   0.7164   0.9834   0.9834

     occupation numbers 
     1.0000   1.0000   1.0000   1.0000   1.0000   1.0000   1.0000   1.0000
     1.0000   1.0000   1.0000   1.0000   1.0000   1.0000   1.0000   1.0000
     1.0000   1.0000   1.0000   1.0000   1.0000   1.0000   1.0000   1.0000
     1.0000   1.0000   1.0000   1.0000   1.0000   1.0000   1.0000   1.0000
     1.0000   1.0000   1.0000   1.0000   1.0000   1.0000   1.0000   1.0000
     1.0000   1.0000   1.0000   1.0000   1.0000   1.0000   1.0000   1.0000
     1.0000   1.0000   1.0000   1.0000   1.0000   1.0000   1.0000   1.0000
     1.0000   1.0000   1.0000   1.0000   1.0000   1.0000   1.0000   1.0000
     1.0000   1.0000   1.0000   1.0000   1.0000   1.0000   1.0000   1.0000
     1.0000   1.0000   1.0000   1.0000   1.0000   1.0000

          k = 0.4762-0.3024 0.0000 ( 15104 PWs)   bands (ev):

   -35.7019 -35.7019 -35.7018 -35.7018 -35.6657 -35.6657 -35.6657 -35.6656
   -35.6015 -35.6015 -35.5711 -35.5711 -34.2437 -34.2437 -34.2437 -34.2437
   -34.2139 -34.2139 -34.2139 -34.2139 -34.1967 -34.1967 -34.1966 -34.1966
   -34.1405 -34.1405 -34.1218 -34.1218 -34.1003 -34.1003 -28.3600 -28.3600
   -28.3599 -28.3599 -28.3521 -28.3521 -28.3519 -28.3519 -27.1197 -27.1197
   -27.1196 -27.1196 -27.1133 -27.1133 -27.1131 -27.1131 -27.1088 -27.1088
   -27.1086 -27.1086  -9.1802  -9.1802  -9.0513  -9.0513  -8.9929  -8.9929
    -7.4464  -7.4464  -6.9010  -6.9010  -3.1534  -3.1534  -1.8628  -1.8627
    -1.7573  -1.7571  -1.3405  -1.3405  -1.0337  -1.0337  -0.3472  -0.3471
     0.0850   0.0850   0.7336   0.7336   0.9653   0.9653

     occupation numbers 
     1.0000   1.0000   1.0000   1.0000   1.0000   1.0000   1.0000   1.0000
     1.0000   1.0000   1.0000   1.0000   1.0000   1.0000   1.0000   1.0000
     1.0000   1.0000   1.0000   1.0000   1.0000   1.0000   1.0000   1.0000
     1.0000   1.0000   1.0000   1.0000   1.0000   1.0000   1.0000   1.0000
     1.0000   1.0000   1.0000   1.0000   1.0000   1.0000   1.0000   1.0000
     1.0000   1.0000   1.0000   1.0000   1.0000   1.0000   1.0000   1.0000
     1.0000   1.0000   1.0000   1.0000   1.0000   1.0000   1.0000   1.0000
     1.0000   1.0000   1.0000   1.0000   1.0000   1.0000   1.0000   1.0000
     1.0000   1.0000   1.0000   1.0000   1.0000   1.0000   1.0000   1.0000
     1.0000   1.0000   1.0000   1.0000   1.0000   1.0000

          k = 0.4762-0.2447 0.0000 ( 15111 PWs)   bands (ev):

   -35.7019 -35.7019 -35.7018 -35.7018 -35.6657 -35.6657 -35.6657 -35.6656
   -35.6015 -35.6015 -35.5711 -35.5711 -34.2437 -34.2437 -34.2437 -34.2437
   -34.2140 -34.2139 -34.2139 -34.2139 -34.1967 -34.1967 -34.1967 -34.1966
   -34.1405 -34.1405 -34.1218 -34.1218 -34.1003 -34.1003 -28.3601 -28.3600
   -28.3599 -28.3598 -28.3521 -28.3520 -28.3519 -28.3519 -27.1197 -27.1197
   -27.1196 -27.1196 -27.1133 -27.1133 -27.1131 -27.1131 -27.1088 -27.1088
   -27.1086 -27.1086  -9.2895  -9.2895  -9.0814  -9.0814  -8.9108  -8.9108
    -7.4026  -7.4026  -6.8897  -6.8897  -3.1110  -3.1110  -1.9229  -1.9227
    -1.6968  -1.6966  -1.4369  -1.4367  -0.9598  -0.9595  -0.4243  -0.4240
     0.1655   0.1658   0.7287   0.7287   1.0046   1.0046

     occupation numbers 
     1.0000   1.0000   1.0000   1.0000   1.0000   1.0000   1.0000   1.0000
     1.0000   1.0000   1.0000   1.0000   1.0000   1.0000   1.0000   1.0000
     1.0000   1.0000   1.0000   1.0000   1.0000   1.0000   1.0000   1.0000
     1.0000   1.0000   1.0000   1.0000   1.0000   1.0000   1.0000   1.0000
     1.0000   1.0000   1.0000   1.0000   1.0000   1.0000   1.0000   1.0000
     1.0000   1.0000   1.0000   1.0000   1.0000   1.0000   1.0000   1.0000
     1.0000   1.0000   1.0000   1.0000   1.0000   1.0000   1.0000   1.0000
     1.0000   1.0000   1.0000   1.0000   1.0000   1.0000   1.0000   1.0000
     1.0000   1.0000   1.0000   1.0000   1.0000   1.0000   1.0000   1.0000
     1.0000   1.0000   1.0000   1.0000   1.0000   1.0000

          k = 0.4762-0.1870 0.0000 ( 15111 PWs)   bands (ev):

   -35.7019 -35.7019 -35.7019 -35.7018 -35.6657 -35.6657 -35.6657 -35.6657
   -35.6015 -35.6015 -35.5711 -35.5711 -34.2437 -34.2437 -34.2437 -34.2437
   -34.2140 -34.2139 -34.2139 -34.2139 -34.1967 -34.1967 -34.1967 -34.1967
   -34.1405 -34.1405 -34.1218 -34.1218 -34.1004 -34.1004 -28.3601 -28.3601
   -28.3599 -28.3598 -28.3521 -28.3520 -28.3519 -28.3518 -27.1198 -27.1197
   -27.1196 -27.1195 -27.1134 -27.1133 -27.1131 -27.1130 -27.1089 -27.1088
   -27.1086 -27.1086  -9.3836  -9.3835  -9.1162  -9.1162  -8.8396  -8.8396
    -7.3375  -7.3375  -6.9018  -6.9018  -3.0268  -3.0267  -1.9582  -1.9578
    -1.7669  -1.7664  -1.5600  -1.5598  -0.8500  -0.8500  -0.5677  -0.5676
     0.2615   0.2618   0.7219   0.7220   1.1520   1.1521

     occupation numbers 
     1.0000   1.0000   1.0000   1.0000   1.0000   1.0000   1.0000   1.0000
     1.0000   1.0000   1.0000   1.0000   1.0000   1.0000   1.0000   1.0000
     1.0000   1.0000   1.0000   1.0000   1.0000   1.0000   1.0000   1.0000
     1.0000   1.0000   1.0000   1.0000   1.0000   1.0000   1.0000   1.0000
     1.0000   1.0000   1.0000   1.0000   1.0000   1.0000   1.0000   1.0000
     1.0000   1.0000   1.0000   1.0000   1.0000   1.0000   1.0000   1.0000
     1.0000   1.0000   1.0000   1.0000   1.0000   1.0000   1.0000   1.0000
     1.0000   1.0000   1.0000   1.0000   1.0000   1.0000   1.0000   1.0000
     1.0000   1.0000   1.0000   1.0000   1.0000   1.0000   1.0000   1.0000
     1.0000   1.0000   1.0000   1.0000   1.0000   1.0000

          k = 0.4762-0.1292 0.0000 ( 15098 PWs)   bands (ev):

   -35.7019 -35.7019 -35.7019 -35.7018 -35.6657 -35.6657 -35.6657 -35.6657
   -35.6015 -35.6015 -35.5711 -35.5711 -34.2438 -34.2437 -34.2437 -34.2437
   -34.2140 -34.2139 -34.2139 -34.2138 -34.1967 -34.1967 -34.1967 -34.1967
   -34.1405 -34.1405 -34.1218 -34.1218 -34.1004 -34.1004 -28.3602 -28.3601
   -28.3599 -28.3598 -28.3520 -28.3520 -28.3519 -28.3518 -27.1198 -27.1198
   -27.1196 -27.1195 -27.1134 -27.1134 -27.1131 -27.1130 -27.1089 -27.1088
   -27.1087 -27.1086  -9.4568  -9.4568  -9.1498  -9.1498  -8.7875  -8.7875
    -7.2599  -7.2599  -6.9363  -6.9363  -2.9053  -2.9053  -2.0945  -2.0943
    -1.8080  -1.8077  -1.6071  -1.6069  -0.8775  -0.8771  -0.6469  -0.6465
     0.3477   0.3481   0.7914   0.7915   1.2772   1.2773

     occupation numbers 
     1.0000   1.0000   1.0000   1.0000   1.0000   1.0000   1.0000   1.0000
     1.0000   1.0000   1.0000   1.0000   1.0000   1.0000   1.0000   1.0000
     1.0000   1.0000   1.0000   1.0000   1.0000   1.0000   1.0000   1.0000
     1.0000   1.0000   1.0000   1.0000   1.0000   1.0000   1.0000   1.0000
     1.0000   1.0000   1.0000   1.0000   1.0000   1.0000   1.0000   1.0000
     1.0000   1.0000   1.0000   1.0000   1.0000   1.0000   1.0000   1.0000
     1.0000   1.0000   1.0000   1.0000   1.0000   1.0000   1.0000   1.0000
     1.0000   1.0000   1.0000   1.0000   1.0000   1.0000   1.0000   1.0000
     1.0000   1.0000   1.0000   1.0000   1.0000   1.0000   1.0000   1.0000
     1.0000   1.0000   1.0000   1.0000   1.0000   1.0000

          k = 0.4762-0.0715 0.0000 ( 15088 PWs)   bands (ev):

   -35.7019 -35.7019 -35.7019 -35.7018 -35.6657 -35.6657 -35.6657 -35.6657
   -35.6015 -35.6015 -35.5712 -35.5712 -34.2438 -34.2438 -34.2437 -34.2437
   -34.2140 -34.2139 -34.2139 -34.2138 -34.1968 -34.1967 -34.1967 -34.1967
   -34.1405 -34.1405 -34.1218 -34.1218 -34.1004 -34.1004 -28.3603 -28.3602
   -28.3599 -28.3598 -28.3520 -28.3520 -28.3519 -28.3518 -27.1199 -27.1198
   -27.1196 -27.1195 -27.1134 -27.1134 -27.1130 -27.1130 -27.1088 -27.1088
   -27.1087 -27.1087  -9.5057  -9.5057  -9.1771  -9.1771  -8.7598  -8.7598
    -7.1862  -7.1862  -6.9841  -6.9841  -2.7484  -2.7483  -2.3279  -2.3279
    -1.7542  -1.7540  -1.5618  -1.5617  -1.1027  -1.1024  -0.6028  -0.6027
     0.4556   0.4559   0.9109   0.9111   1.2572   1.2573

     occupation numbers 
     1.0000   1.0000   1.0000   1.0000   1.0000   1.0000   1.0000   1.0000
     1.0000   1.0000   1.0000   1.0000   1.0000   1.0000   1.0000   1.0000
     1.0000   1.0000   1.0000   1.0000   1.0000   1.0000   1.0000   1.0000
     1.0000   1.0000   1.0000   1.0000   1.0000   1.0000   1.0000   1.0000
     1.0000   1.0000   1.0000   1.0000   1.0000   1.0000   1.0000   1.0000
     1.0000   1.0000   1.0000   1.0000   1.0000   1.0000   1.0000   1.0000
     1.0000   1.0000   1.0000   1.0000   1.0000   1.0000   1.0000   1.0000
     1.0000   1.0000   1.0000   1.0000   1.0000   1.0000   1.0000   1.0000
     1.0000   1.0000   1.0000   1.0000   1.0000   1.0000   1.0000   1.0000
     1.0000   1.0000   1.0000   1.0000   1.0000   1.0000

          k = 0.4762-0.0137 0.0000 ( 15057 PWs)   bands (ev):

   -35.7019 -35.7019 -35.7019 -35.7018 -35.6657 -35.6657 -35.6657 -35.6657
   -35.6015 -35.6015 -35.5712 -35.5712 -34.2438 -34.2438 -34.2437 -34.2437
   -34.2139 -34.2139 -34.2139 -34.2138 -34.1968 -34.1967 -34.1967 -34.1967
   -34.1405 -34.1405 -34.1218 -34.1218 -34.1005 -34.1005 -28.3603 -28.3602
   -28.3600 -28.3599 -28.3520 -28.3520 -28.3518 -28.3518 -27.1200 -27.1199
   -27.1197 -27.1196 -27.1134 -27.1134 -27.1130 -27.1130 -27.1088 -27.1088
   -27.1087 -27.1087  -9.5281  -9.5281  -9.1946  -9.1946  -8.7591  -8.7590
    -7.1611  -7.1611  -7.0056  -7.0056  -2.6049  -2.6048  -2.4958  -2.4957
    -1.7331  -1.7330  -1.4497  -1.4495  -1.2587  -1.2586  -0.5837  -0.5837
     0.5217   0.5219   1.0243   1.0245   1.1877   1.1878

     occupation numbers 
     1.0000   1.0000   1.0000   1.0000   1.0000   1.0000   1.0000   1.0000
     1.0000   1.0000   1.0000   1.0000   1.0000   1.0000   1.0000   1.0000
     1.0000   1.0000   1.0000   1.0000   1.0000   1.0000   1.0000   1.0000
     1.0000   1.0000   1.0000   1.0000   1.0000   1.0000   1.0000   1.0000
     1.0000   1.0000   1.0000   1.0000   1.0000   1.0000   1.0000   1.0000
     1.0000   1.0000   1.0000   1.0000   1.0000   1.0000   1.0000   1.0000
     1.0000   1.0000   1.0000   1.0000   1.0000   1.0000   1.0000   1.0000
     1.0000   1.0000   1.0000   1.0000   1.0000   1.0000   1.0000   1.0000
     1.0000   1.0000   1.0000   1.0000   1.0000   1.0000   1.0000   1.0000
     1.0000   1.0000   1.0000   1.0000   1.0000   1.0000

          k = 0.4762 0.0440 0.0000 ( 15054 PWs)   bands (ev):

   -35.7019 -35.7019 -35.7019 -35.7018 -35.6657 -35.6657 -35.6657 -35.6657
   -35.6015 -35.6015 -35.5712 -35.5712 -34.2438 -34.2438 -34.2437 -34.2437
   -34.2139 -34.2139 -34.2139 -34.2138 -34.1968 -34.1968 -34.1967 -34.1967
   -34.1405 -34.1405 -34.1218 -34.1218 -34.1005 -34.1005 -28.3603 -28.3603
   -28.3600 -28.3599 -28.3520 -28.3519 -28.3518 -28.3518 -27.1200 -27.1200
   -27.1198 -27.1197 -27.1134 -27.1133 -27.1130 -27.1129 -27.1088 -27.1088
   -27.1087 -27.1087  -9.5230  -9.5230  -9.2007  -9.2007  -8.7849  -8.7849
    -7.2180  -7.2180  -6.9683  -6.9683  -2.7555  -2.7555  -2.3042  -2.3042
    -1.7215  -1.7211  -1.5469  -1.5464  -1.0750  -1.0749  -0.5871  -0.5870
     0.4931   0.4933   0.9543   0.9545   1.3149   1.3150

     occupation numbers 
     1.0000   1.0000   1.0000   1.0000   1.0000   1.0000   1.0000   1.0000
     1.0000   1.0000   1.0000   1.0000   1.0000   1.0000   1.0000   1.0000
     1.0000   1.0000   1.0000   1.0000   1.0000   1.0000   1.0000   1.0000
     1.0000   1.0000   1.0000   1.0000   1.0000   1.0000   1.0000   1.0000
     1.0000   1.0000   1.0000   1.0000   1.0000   1.0000   1.0000   1.0000
     1.0000   1.0000   1.0000   1.0000   1.0000   1.0000   1.0000   1.0000
     1.0000   1.0000   1.0000   1.0000   1.0000   1.0000   1.0000   1.0000
     1.0000   1.0000   1.0000   1.0000   1.0000   1.0000   1.0000   1.0000
     1.0000   1.0000   1.0000   1.0000   1.0000   1.0000   1.0000   1.0000
     1.0000   1.0000   1.0000   1.0000   1.0000   1.0000

          k = 0.4762 0.1017 0.0000 ( 15030 PWs)   bands (ev):

   -35.7019 -35.7019 -35.7019 -35.7018 -35.6657 -35.6657 -35.6657 -35.6657
   -35.6015 -35.6015 -35.5712 -35.5712 -34.2438 -34.2438 -34.2438 -34.2437
   -34.2139 -34.2139 -34.2138 -34.2138 -34.1968 -34.1968 -34.1968 -34.1967
   -34.1405 -34.1405 -34.1217 -34.1217 -34.1006 -34.1006 -28.3604 -28.3603
   -28.3601 -28.3600 -28.3520 -28.3519 -28.3518 -28.3517 -27.1201 -27.1200
   -27.1199 -27.1198 -27.1134 -27.1133 -27.1130 -27.1129 -27.1088 -27.1088
   -27.1086 -27.1086  -9.4908  -9.4907  -9.1955  -9.1955  -8.8342  -8.8342
    -7.3005  -7.3005  -6.9251  -6.9251  -2.9065  -2.9065  -2.0840  -2.0839
    -1.7489  -1.7485  -1.5400  -1.5396  -0.8794  -0.8792  -0.5615  -0.5615
     0.4168   0.4171   0.8597   0.8599   1.4057   1.4057

     occupation numbers 
     1.0000   1.0000   1.0000   1.0000   1.0000   1.0000   1.0000   1.0000
     1.0000   1.0000   1.0000   1.0000   1.0000   1.0000   1.0000   1.0000
     1.0000   1.0000   1.0000   1.0000   1.0000   1.0000   1.0000   1.0000
     1.0000   1.0000   1.0000   1.0000   1.0000   1.0000   1.0000   1.0000
     1.0000   1.0000   1.0000   1.0000   1.0000   1.0000   1.0000   1.0000
     1.0000   1.0000   1.0000   1.0000   1.0000   1.0000   1.0000   1.0000
     1.0000   1.0000   1.0000   1.0000   1.0000   1.0000   1.0000   1.0000
     1.0000   1.0000   1.0000   1.0000   1.0000   1.0000   1.0000   1.0000
     1.0000   1.0000   1.0000   1.0000   1.0000   1.0000   1.0000   1.0000
     1.0000   1.0000   1.0000   1.0000   1.0000   1.0000

          k = 0.4762 0.1595 0.0000 ( 15027 PWs)   bands (ev):

   -35.7019 -35.7019 -35.7019 -35.7019 -35.6658 -35.6657 -35.6657 -35.6657
   -35.6015 -35.6015 -35.5712 -35.5712 -34.2438 -34.2438 -34.2438 -34.2437
   -34.2139 -34.2139 -34.2138 -34.2138 -34.1968 -34.1968 -34.1968 -34.1968
   -34.1405 -34.1405 -34.1217 -34.1217 -34.1006 -34.1006 -28.3604 -28.3603
   -28.3601 -28.3601 -28.3520 -28.3519 -28.3517 -28.3517 -27.1202 -27.1201
   -27.1200 -27.1199 -27.1133 -27.1133 -27.1129 -27.1129 -27.1088 -27.1088
   -27.1086 -27.1086  -9.4328  -9.4328  -9.1812  -9.1812  -8.9018  -8.9018
    -7.3794  -7.3794  -6.8981  -6.8981  -3.0247  -3.0247  -1.9677  -1.9676
    -1.6999  -1.6997  -1.4480  -1.4478  -0.8032  -0.8031  -0.4662  -0.4661
     0.3442   0.3445   0.8292   0.8294   1.3193   1.3194

     occupation numbers 
     1.0000   1.0000   1.0000   1.0000   1.0000   1.0000   1.0000   1.0000
     1.0000   1.0000   1.0000   1.0000   1.0000   1.0000   1.0000   1.0000
     1.0000   1.0000   1.0000   1.0000   1.0000   1.0000   1.0000   1.0000
     1.0000   1.0000   1.0000   1.0000   1.0000   1.0000   1.0000   1.0000
     1.0000   1.0000   1.0000   1.0000   1.0000   1.0000   1.0000   1.0000
     1.0000   1.0000   1.0000   1.0000   1.0000   1.0000   1.0000   1.0000
     1.0000   1.0000   1.0000   1.0000   1.0000   1.0000   1.0000   1.0000
     1.0000   1.0000   1.0000   1.0000   1.0000   1.0000   1.0000   1.0000
     1.0000   1.0000   1.0000   1.0000   1.0000   1.0000   1.0000   1.0000
     1.0000   1.0000   1.0000   1.0000   1.0000   1.0000

          k = 0.4762 0.2172 0.0000 ( 15036 PWs)   bands (ev):

   -35.7019 -35.7019 -35.7019 -35.7019 -35.6657 -35.6657 -35.6657 -35.6657
   -35.6015 -35.6015 -35.5712 -35.5712 -34.2438 -34.2438 -34.2438 -34.2438
   -34.2139 -34.2139 -34.2138 -34.2138 -34.1968 -34.1968 -34.1968 -34.1968
   -34.1404 -34.1404 -34.1217 -34.1217 -34.1006 -34.1006 -28.3603 -28.3603
   -28.3602 -28.3601 -28.3520 -28.3519 -28.3517 -28.3517 -27.1202 -27.1201
   -27.1201 -27.1200 -27.1132 -27.1132 -27.1129 -27.1129 -27.1088 -27.1088
   -27.1086 -27.1085  -9.3522  -9.3521  -9.1612  -9.1612  -8.9808  -8.9808
    -7.4428  -7.4428  -6.8911  -6.8911  -3.1066  -3.1066  -1.9240  -1.9239
    -1.6658  -1.6656  -1.3013  -1.3011  -0.8057  -0.8056  -0.3614  -0.3613
     0.2619   0.2622   0.8786   0.8787   1.1666   1.1667

     occupation numbers 
     1.0000   1.0000   1.0000   1.0000   1.0000   1.0000   1.0000   1.0000
     1.0000   1.0000   1.0000   1.0000   1.0000   1.0000   1.0000   1.0000
     1.0000   1.0000   1.0000   1.0000   1.0000   1.0000   1.0000   1.0000
     1.0000   1.0000   1.0000   1.0000   1.0000   1.0000   1.0000   1.0000
     1.0000   1.0000   1.0000   1.0000   1.0000   1.0000   1.0000   1.0000
     1.0000   1.0000   1.0000   1.0000   1.0000   1.0000   1.0000   1.0000
     1.0000   1.0000   1.0000   1.0000   1.0000   1.0000   1.0000   1.0000
     1.0000   1.0000   1.0000   1.0000   1.0000   1.0000   1.0000   1.0000
     1.0000   1.0000   1.0000   1.0000   1.0000   1.0000   1.0000   1.0000
     1.0000   1.0000   1.0000   1.0000   1.0000   1.0000

     highest occupied level (ev):     1.5813

!    total energy              =    -806.56889722 Ry
     estimated scf accuracy    <          2.6E-09 Ry

     The total energy is the sum of the following terms:
     one-electron contribution =   -3368.27968284 Ry
     hartree contribution      =    1678.68930691 Ry
     xc contribution           =     -87.12985474 Ry
     ewald contribution        =     970.15133345 Ry

     convergence has been achieved in  15 iterations

     Writing all to output data dir tmp/Sb2Te3-uatsx-c2-soc-5.0.save/ :
     XML data file, charge density, pseudopotentials, collected wavefunctions

     init_run     :     37.50s CPU     20.38s WALL (       1 calls)
     electrons    :   2332.67s CPU   1241.31s WALL (       1 calls)

     Called by init_run:
     wfcinit      :     36.30s CPU     19.18s WALL (       1 calls)
     wfcinit:wfcr :     34.35s CPU     17.84s WALL (     221 calls)
     potinit      :      0.49s CPU      0.48s WALL (       1 calls)
     hinit0       :      0.60s CPU      0.62s WALL (       1 calls)

     Called by electrons:
     c_bands      :   2100.07s CPU   1123.07s WALL (      16 calls)
     sum_band     :    231.25s CPU    117.32s WALL (      16 calls)
     v_of_rho     :      0.70s CPU      0.48s WALL (      16 calls)
     v_h          :      0.06s CPU      0.03s WALL (      16 calls)
     v_xc         :      0.64s CPU      0.45s WALL (      16 calls)
     mix_rho      :      0.37s CPU      0.22s WALL (      16 calls)

     Called by c_bands:
     init_us_2    :     12.20s CPU      6.21s WALL (    7293 calls)
     cegterg      :   2023.51s CPU   1070.52s WALL (    3536 calls)

     Called by sum_band:
     sum_band:wei :      0.00s CPU      0.00s WALL (      16 calls)
     sum_band:loo :    231.04s CPU    117.21s WALL (      16 calls)
     sum_band:buf :      3.17s CPU      1.59s WALL (    3536 calls)
     sum_band:ini :      5.86s CPU      2.96s WALL (    3536 calls)

     Called by *egterg:
     cdiaghg      :    259.18s CPU    166.14s WALL (   21544 calls)
     cegterg:over :     87.41s CPU     46.74s WALL (   18229 calls)
     cegterg:upda :     51.13s CPU     23.71s WALL (   18229 calls)
     cegterg:last :     71.26s CPU     35.74s WALL (    9089 calls)
     h_psi        :   1522.11s CPU    778.73s WALL (   21986 calls)
     g_psi        :      6.12s CPU      3.91s WALL (   18229 calls)

     Called by h_psi:
     h_psi:calbec :     87.26s CPU     42.75s WALL (   21986 calls)
     vloc_psi     :   1341.90s CPU    682.44s WALL (   21986 calls)
     add_vuspsi   :     88.74s CPU     51.05s WALL (   21986 calls)

     General routines
     calbec       :     87.13s CPU     42.70s WALL (   21986 calls)
     fft          :      1.48s CPU      1.18s WALL (     373 calls)
     ffts         :      0.48s CPU      0.45s WALL (     128 calls)
     fftw         :   1150.26s CPU    580.63s WALL ( 3861064 calls)
     interpolate  :      0.62s CPU      0.52s WALL (      64 calls)

     Parallel routines

     PWSCF        :  39m43.89s CPU  22m28.99s WALL


   This run was terminated on:  18:40:57  14Aug2025            

=------------------------------------------------------------------------------=
   JOB DONE.
=------------------------------------------------------------------------------=
