
     Program PWSCF v.7.4.1 starts on 13Aug2025 at 16:36:59 

     This program is part of the open-source Quantum ESPRESSO suite
     for quantum simulation of materials; please cite
         "P. Giannozzi et al., J. Phys.:Condens. Matter 21 395502 (2009);
         "P. Giannozzi et al., J. Phys.:Condens. Matter 29 465901 (2017);
         "P. Giannozzi et al., J. Chem. Phys. 152 154105 (2020);
          URL http://www.quantum-espresso.org", 
     in publications or presentations arising from this work. More details at
     http://www.quantum-espresso.org/quote

     Parallel version (MPI & OpenMP), running on      48 processor cores
     Number of MPI processes:                24
     Threads/MPI process:                     2

     MPI processes distributed on     2 nodes
     99393 MiB available memory on the printing compute node when the environment starts

     Waiting for input...
     Reading input from standard input

     Current dimensions of program PWSCF are:
     Max number of different atomic species (ntypx) = 10
     Max number of k-points (npk) =  40000
     Max angular momentum in pseudopotentials (lmaxx) =  4

     IMPORTANT: XC functional enforced from input :
     Exchange-correlation= PBE
                           (   1   4   3   4   0   0   0)
     Any further DFT definition will be discarded
     Please, verify this is what you really want

     Message from routine setup:
     no reason to have ecutrho>4*ecutwfc

     R & G space division:  proc/nbgrp/npool/nimage =      24
     Subspace diagonalization in iterative solution of the eigenvalue problem:
     a serial algorithm will be used


     Parallelization info
     --------------------
     sticks:   dense  smooth     PW     G-vecs:    dense   smooth      PW
     Min          99      40     12                19863     5026     838
     Max         100      41     13                19886     5041     847
     Sum        2397     963    293               477063   120743   20163

     Using Slab Decomposition



     bravais-lattice index     =            0
     lattice parameter (alat)  =       8.5529  a.u.
     unit-cell volume          =    2526.9262 (a.u.)^3
     number of atoms/cell      =            5
     number of atomic types    =            2
     number of electrons       =        78.00
     number of Kohn-Sham states=           39
     kinetic-energy cutoff     =      50.0000  Ry
     charge density cutoff     =     500.0000  Ry
     scf convergence threshold =      1.0E-07
     mixing beta               =       0.7000
     number of iterations used =            8  plain     mixing
     Exchange-correlation= PBE
                           (   1   4   3   4   0   0   0)

     celldm(1)=   8.552915  celldm(2)=   0.000000  celldm(3)=   0.000000
     celldm(4)=   0.000000  celldm(5)=   0.000000  celldm(6)=   0.000000

     crystal axes: (cart. coord. in units of alat)
               a(1) = (   1.000000   0.000000   0.000000 )  
               a(2) = (  -0.476190   0.824778   0.000000 )  
               a(3) = (   0.000000   0.000000   4.896807 )  

     reciprocal axes: (cart. coord. in units 2 pi/alat)
               b(1) = (  1.000000  0.577356 -0.000000 )  
               b(2) = (  0.000000  1.212447  0.000000 )  
               b(3) = (  0.000000 -0.000000  0.204215 )  


     PseudoPot. # 1 for Sb read from file:
     /zfs-home/202401017n1/pseudos/Sb_ONCV_PBE-1.2.upf
     MD5 check sum: 0417cd6c0fe8ce4611e2b23135f1abd9
     Pseudo is Norm-conserving, Zval = 15.0
     Generated using ONCVPSP code by D. R. Hamann
     Using radial grid of  602 points,  6 beta functions with: 
                l(1) =   0
                l(2) =   0
                l(3) =   1
                l(4) =   1
                l(5) =   2
                l(6) =   2

     PseudoPot. # 2 for Te read from file:
     /zfs-home/202401017n1/pseudos/Te_ONCV_PBE-1.2.upf
     MD5 check sum: dd4de4dac1e38587f63aaf3700bb29d3
     Pseudo is Norm-conserving, Zval = 16.0
     Generated using ONCVPSP code by D. R. Hamann
     Using radial grid of  602 points,  6 beta functions with: 
                l(1) =   0
                l(2) =   0
                l(3) =   1
                l(4) =   1
                l(5) =   2
                l(6) =   2

     atomic species   valence    mass     pseudopotential
     Sb               15.00   121.76000     Sb( 1.00)
     Te               16.00   127.60000     Te( 1.00)

     No symmetry found


                                    s                        frac. trans.

      isym =  1     identity                                     

 cryst.   s( 1) = (     1          0          0      )
                  (     0          1          0      )
                  (     0          0          1      )

 cart.    s( 1) = (  1.0000000  0.0000000  0.0000000 )
                  (  0.0000000  1.0000000  0.0000000 )
                  (  0.0000000  0.0000000  1.0000000 )


   Cartesian axes

     site n.     atom                  positions (alat units)
         1        Sb     tau(   1) = (   0.5941563   0.4140600   2.8819763  )
         2        Te     tau(   2) = (   0.5757813   0.3831770   1.6487259  )
         3        Sb     tau(   3) = (   0.0713597   0.1150985   2.0147862  )
         4        Te     tau(   4) = (   0.0896521   0.1461334   3.2480478  )
         5        Te     tau(   5) = (   0.0946223   0.6770376   2.4483865  )

   Crystallographic axes

     site n.     atom                  positions (cryst. coord.)
         1        Sb     tau(   1) = (  0.8332162  0.5020259  0.5885420  )
         2        Te     tau(   2) = (  0.7970108  0.4645820  0.3366941  )
         3        Sb     tau(   3) = (  0.1378125  0.1395508  0.4114490  )
         4        Te     tau(   4) = (  0.1740231  0.1771791  0.6632992  )
         5        Te     tau(   5) = (  0.4855140  0.8208724  0.4999966  )

     number of k points=   221
                       cart. coord. in units 2pi/alat
        k(    1) = (   0.0000000   0.0000000   0.0000000), wk =   0.0045351
        k(    2) = (   0.0000000   0.0577356   0.0000000), wk =   0.0090703
        k(    3) = (   0.0000000   0.1154712   0.0000000), wk =   0.0090703
        k(    4) = (   0.0000000   0.1732068   0.0000000), wk =   0.0090703
        k(    5) = (   0.0000000   0.2309423   0.0000000), wk =   0.0090703
        k(    6) = (   0.0000000   0.2886779   0.0000000), wk =   0.0090703
        k(    7) = (   0.0000000   0.3464135   0.0000000), wk =   0.0090703
        k(    8) = (   0.0000000   0.4041491   0.0000000), wk =   0.0090703
        k(    9) = (   0.0000000   0.4618847   0.0000000), wk =   0.0090703
        k(   10) = (   0.0000000   0.5196203   0.0000000), wk =   0.0090703
        k(   11) = (   0.0000000   0.5773559   0.0000000), wk =   0.0090703
        k(   12) = (   0.0476190   0.0274931   0.0000000), wk =   0.0090703
        k(   13) = (   0.0476190   0.0852287   0.0000000), wk =   0.0090703
        k(   14) = (   0.0476190   0.1429643   0.0000000), wk =   0.0090703
        k(   15) = (   0.0476190   0.2006999   0.0000000), wk =   0.0090703
        k(   16) = (   0.0476190   0.2584355   0.0000000), wk =   0.0090703
        k(   17) = (   0.0476190   0.3161711   0.0000000), wk =   0.0090703
        k(   18) = (   0.0476190   0.3739066   0.0000000), wk =   0.0090703
        k(   19) = (   0.0476190   0.4316422   0.0000000), wk =   0.0090703
        k(   20) = (   0.0476190   0.4893778   0.0000000), wk =   0.0090703
        k(   21) = (   0.0476190   0.5471134   0.0000000), wk =   0.0090703
        k(   22) = (   0.0476190   0.6048490   0.0000000), wk =   0.0090703
        k(   23) = (   0.0476190  -0.5498627   0.0000000), wk =   0.0090703
        k(   24) = (   0.0476190  -0.4921271   0.0000000), wk =   0.0090703
        k(   25) = (   0.0476190  -0.4343915   0.0000000), wk =   0.0090703
        k(   26) = (   0.0476190  -0.3766560   0.0000000), wk =   0.0090703
        k(   27) = (   0.0476190  -0.3189204   0.0000000), wk =   0.0090703
        k(   28) = (   0.0476190  -0.2611848   0.0000000), wk =   0.0090703
        k(   29) = (   0.0476190  -0.2034492   0.0000000), wk =   0.0090703
        k(   30) = (   0.0476190  -0.1457136   0.0000000), wk =   0.0090703
        k(   31) = (   0.0476190  -0.0879780   0.0000000), wk =   0.0090703
        k(   32) = (   0.0476190  -0.0302424   0.0000000), wk =   0.0090703
        k(   33) = (   0.0952381   0.0549863   0.0000000), wk =   0.0090703
        k(   34) = (   0.0952381   0.1127219   0.0000000), wk =   0.0090703
        k(   35) = (   0.0952381   0.1704574   0.0000000), wk =   0.0090703
        k(   36) = (   0.0952381   0.2281930   0.0000000), wk =   0.0090703
        k(   37) = (   0.0952381   0.2859286   0.0000000), wk =   0.0090703
        k(   38) = (   0.0952381   0.3436642   0.0000000), wk =   0.0090703
        k(   39) = (   0.0952381   0.4013998   0.0000000), wk =   0.0090703
        k(   40) = (   0.0952381   0.4591354   0.0000000), wk =   0.0090703
        k(   41) = (   0.0952381   0.5168710   0.0000000), wk =   0.0090703
        k(   42) = (   0.0952381   0.5746065   0.0000000), wk =   0.0090703
        k(   43) = (   0.0952381   0.6323421   0.0000000), wk =   0.0090703
        k(   44) = (   0.0952381  -0.5223696   0.0000000), wk =   0.0090703
        k(   45) = (   0.0952381  -0.4646340   0.0000000), wk =   0.0090703
        k(   46) = (   0.0952381  -0.4068984   0.0000000), wk =   0.0090703
        k(   47) = (   0.0952381  -0.3491628   0.0000000), wk =   0.0090703
        k(   48) = (   0.0952381  -0.2914272   0.0000000), wk =   0.0090703
        k(   49) = (   0.0952381  -0.2336917   0.0000000), wk =   0.0090703
        k(   50) = (   0.0952381  -0.1759561   0.0000000), wk =   0.0090703
        k(   51) = (   0.0952381  -0.1182205   0.0000000), wk =   0.0090703
        k(   52) = (   0.0952381  -0.0604849   0.0000000), wk =   0.0090703
        k(   53) = (   0.0952381  -0.0027493   0.0000000), wk =   0.0090703
        k(   54) = (   0.1428571   0.0824794   0.0000000), wk =   0.0090703
        k(   55) = (   0.1428571   0.1402150   0.0000000), wk =   0.0090703
        k(   56) = (   0.1428571   0.1979506   0.0000000), wk =   0.0090703
        k(   57) = (   0.1428571   0.2556862   0.0000000), wk =   0.0090703
        k(   58) = (   0.1428571   0.3134217   0.0000000), wk =   0.0090703
        k(   59) = (   0.1428571   0.3711573   0.0000000), wk =   0.0090703
        k(   60) = (   0.1428571   0.4288929   0.0000000), wk =   0.0090703
        k(   61) = (   0.1428571   0.4866285   0.0000000), wk =   0.0090703
        k(   62) = (   0.1428571   0.5443641   0.0000000), wk =   0.0090703
        k(   63) = (   0.1428571   0.6020997   0.0000000), wk =   0.0090703
        k(   64) = (   0.1428571   0.6598353   0.0000000), wk =   0.0090703
        k(   65) = (   0.1428571  -0.4948764   0.0000000), wk =   0.0090703
        k(   66) = (   0.1428571  -0.4371409   0.0000000), wk =   0.0090703
        k(   67) = (   0.1428571  -0.3794053   0.0000000), wk =   0.0090703
        k(   68) = (   0.1428571  -0.3216697   0.0000000), wk =   0.0090703
        k(   69) = (   0.1428571  -0.2639341   0.0000000), wk =   0.0090703
        k(   70) = (   0.1428571  -0.2061985   0.0000000), wk =   0.0090703
        k(   71) = (   0.1428571  -0.1484629   0.0000000), wk =   0.0090703
        k(   72) = (   0.1428571  -0.0907273   0.0000000), wk =   0.0090703
        k(   73) = (   0.1428571  -0.0329918   0.0000000), wk =   0.0090703
        k(   74) = (   0.1428571   0.0247438   0.0000000), wk =   0.0090703
        k(   75) = (   0.1904762   0.1099725   0.0000000), wk =   0.0090703
        k(   76) = (   0.1904762   0.1677081   0.0000000), wk =   0.0090703
        k(   77) = (   0.1904762   0.2254437   0.0000000), wk =   0.0090703
        k(   78) = (   0.1904762   0.2831793   0.0000000), wk =   0.0090703
        k(   79) = (   0.1904762   0.3409149   0.0000000), wk =   0.0090703
        k(   80) = (   0.1904762   0.3986505   0.0000000), wk =   0.0090703
        k(   81) = (   0.1904762   0.4563861   0.0000000), wk =   0.0090703
        k(   82) = (   0.1904762   0.5141216   0.0000000), wk =   0.0090703
        k(   83) = (   0.1904762   0.5718572   0.0000000), wk =   0.0090703
        k(   84) = (   0.1904762   0.6295928   0.0000000), wk =   0.0090703
        k(   85) = (   0.1904762   0.6873284   0.0000000), wk =   0.0090703
        k(   86) = (   0.1904762  -0.4673833   0.0000000), wk =   0.0090703
        k(   87) = (   0.1904762  -0.4096477   0.0000000), wk =   0.0090703
        k(   88) = (   0.1904762  -0.3519121   0.0000000), wk =   0.0090703
        k(   89) = (   0.1904762  -0.2941766   0.0000000), wk =   0.0090703
        k(   90) = (   0.1904762  -0.2364410   0.0000000), wk =   0.0090703
        k(   91) = (   0.1904762  -0.1787054   0.0000000), wk =   0.0090703
        k(   92) = (   0.1904762  -0.1209698   0.0000000), wk =   0.0090703
        k(   93) = (   0.1904762  -0.0632342   0.0000000), wk =   0.0090703
        k(   94) = (   0.1904762  -0.0054986   0.0000000), wk =   0.0090703
        k(   95) = (   0.1904762   0.0522370   0.0000000), wk =   0.0090703
        k(   96) = (   0.2380952   0.1374657   0.0000000), wk =   0.0090703
        k(   97) = (   0.2380952   0.1952013   0.0000000), wk =   0.0090703
        k(   98) = (   0.2380952   0.2529369   0.0000000), wk =   0.0090703
        k(   99) = (   0.2380952   0.3106724   0.0000000), wk =   0.0090703
        k(  100) = (   0.2380952   0.3684080   0.0000000), wk =   0.0090703
        k(  101) = (   0.2380952   0.4261436   0.0000000), wk =   0.0090703
        k(  102) = (   0.2380952   0.4838792   0.0000000), wk =   0.0090703
        k(  103) = (   0.2380952   0.5416148   0.0000000), wk =   0.0090703
        k(  104) = (   0.2380952   0.5993504   0.0000000), wk =   0.0090703
        k(  105) = (   0.2380952   0.6570859   0.0000000), wk =   0.0090703
        k(  106) = (   0.2380952   0.7148215   0.0000000), wk =   0.0090703
        k(  107) = (   0.2380952  -0.4398902   0.0000000), wk =   0.0090703
        k(  108) = (   0.2380952  -0.3821546   0.0000000), wk =   0.0090703
        k(  109) = (   0.2380952  -0.3244190   0.0000000), wk =   0.0090703
        k(  110) = (   0.2380952  -0.2666834   0.0000000), wk =   0.0090703
        k(  111) = (   0.2380952  -0.2089478   0.0000000), wk =   0.0090703
        k(  112) = (   0.2380952  -0.1512122   0.0000000), wk =   0.0090703
        k(  113) = (   0.2380952  -0.0934767   0.0000000), wk =   0.0090703
        k(  114) = (   0.2380952  -0.0357411   0.0000000), wk =   0.0090703
        k(  115) = (   0.2380952   0.0219945   0.0000000), wk =   0.0090703
        k(  116) = (   0.2380952   0.0797301   0.0000000), wk =   0.0090703
        k(  117) = (   0.2857143   0.1649588   0.0000000), wk =   0.0090703
        k(  118) = (   0.2857143   0.2226944   0.0000000), wk =   0.0090703
        k(  119) = (   0.2857143   0.2804300   0.0000000), wk =   0.0090703
        k(  120) = (   0.2857143   0.3381656   0.0000000), wk =   0.0090703
        k(  121) = (   0.2857143   0.3959012   0.0000000), wk =   0.0090703
        k(  122) = (   0.2857143   0.4536367   0.0000000), wk =   0.0090703
        k(  123) = (   0.2857143   0.5113723   0.0000000), wk =   0.0090703
        k(  124) = (   0.2857143   0.5691079   0.0000000), wk =   0.0090703
        k(  125) = (   0.2857143   0.6268435   0.0000000), wk =   0.0090703
        k(  126) = (   0.2857143   0.6845791   0.0000000), wk =   0.0090703
        k(  127) = (   0.2857143   0.7423147   0.0000000), wk =   0.0090703
        k(  128) = (   0.2857143  -0.4123970   0.0000000), wk =   0.0090703
        k(  129) = (   0.2857143  -0.3546615   0.0000000), wk =   0.0090703
        k(  130) = (   0.2857143  -0.2969259   0.0000000), wk =   0.0090703
        k(  131) = (   0.2857143  -0.2391903   0.0000000), wk =   0.0090703
        k(  132) = (   0.2857143  -0.1814547   0.0000000), wk =   0.0090703
        k(  133) = (   0.2857143  -0.1237191   0.0000000), wk =   0.0090703
        k(  134) = (   0.2857143  -0.0659835   0.0000000), wk =   0.0090703
        k(  135) = (   0.2857143  -0.0082479   0.0000000), wk =   0.0090703
        k(  136) = (   0.2857143   0.0494876   0.0000000), wk =   0.0090703
        k(  137) = (   0.2857143   0.1072232   0.0000000), wk =   0.0090703
        k(  138) = (   0.3333333   0.1924520   0.0000000), wk =   0.0090703
        k(  139) = (   0.3333333   0.2501875   0.0000000), wk =   0.0090703
        k(  140) = (   0.3333333   0.3079231   0.0000000), wk =   0.0090703
        k(  141) = (   0.3333333   0.3656587   0.0000000), wk =   0.0090703
        k(  142) = (   0.3333333   0.4233943   0.0000000), wk =   0.0090703
        k(  143) = (   0.3333333   0.4811299   0.0000000), wk =   0.0090703
        k(  144) = (   0.3333333   0.5388655   0.0000000), wk =   0.0090703
        k(  145) = (   0.3333333   0.5966010   0.0000000), wk =   0.0090703
        k(  146) = (   0.3333333   0.6543366   0.0000000), wk =   0.0090703
        k(  147) = (   0.3333333   0.7120722   0.0000000), wk =   0.0090703
        k(  148) = (   0.3333333   0.7698078   0.0000000), wk =   0.0090703
        k(  149) = (   0.3333333  -0.3849039   0.0000000), wk =   0.0090703
        k(  150) = (   0.3333333  -0.3271683   0.0000000), wk =   0.0090703
        k(  151) = (   0.3333333  -0.2694327   0.0000000), wk =   0.0090703
        k(  152) = (   0.3333333  -0.2116971   0.0000000), wk =   0.0090703
        k(  153) = (   0.3333333  -0.1539616   0.0000000), wk =   0.0090703
        k(  154) = (   0.3333333  -0.0962260   0.0000000), wk =   0.0090703
        k(  155) = (   0.3333333  -0.0384904   0.0000000), wk =   0.0090703
        k(  156) = (   0.3333333   0.0192452   0.0000000), wk =   0.0090703
        k(  157) = (   0.3333333   0.0769808   0.0000000), wk =   0.0090703
        k(  158) = (   0.3333333   0.1347164   0.0000000), wk =   0.0090703
        k(  159) = (   0.3809524   0.2199451   0.0000000), wk =   0.0090703
        k(  160) = (   0.3809524   0.2776807   0.0000000), wk =   0.0090703
        k(  161) = (   0.3809524   0.3354163   0.0000000), wk =   0.0090703
        k(  162) = (   0.3809524   0.3931518   0.0000000), wk =   0.0090703
        k(  163) = (   0.3809524   0.4508874   0.0000000), wk =   0.0090703
        k(  164) = (   0.3809524   0.5086230   0.0000000), wk =   0.0090703
        k(  165) = (   0.3809524   0.5663586   0.0000000), wk =   0.0090703
        k(  166) = (   0.3809524   0.6240942   0.0000000), wk =   0.0090703
        k(  167) = (   0.3809524   0.6818298   0.0000000), wk =   0.0090703
        k(  168) = (   0.3809524   0.7395654   0.0000000), wk =   0.0090703
        k(  169) = (   0.3809524   0.7973009   0.0000000), wk =   0.0090703
        k(  170) = (   0.3809524  -0.3574108   0.0000000), wk =   0.0090703
        k(  171) = (   0.3809524  -0.2996752   0.0000000), wk =   0.0090703
        k(  172) = (   0.3809524  -0.2419396   0.0000000), wk =   0.0090703
        k(  173) = (   0.3809524  -0.1842040   0.0000000), wk =   0.0090703
        k(  174) = (   0.3809524  -0.1264684   0.0000000), wk =   0.0090703
        k(  175) = (   0.3809524  -0.0687328   0.0000000), wk =   0.0090703
        k(  176) = (   0.3809524  -0.0109973   0.0000000), wk =   0.0090703
        k(  177) = (   0.3809524   0.0467383   0.0000000), wk =   0.0090703
        k(  178) = (   0.3809524   0.1044739   0.0000000), wk =   0.0090703
        k(  179) = (   0.3809524   0.1622095   0.0000000), wk =   0.0090703
        k(  180) = (   0.4285714   0.2474382   0.0000000), wk =   0.0090703
        k(  181) = (   0.4285714   0.3051738   0.0000000), wk =   0.0090703
        k(  182) = (   0.4285714   0.3629094   0.0000000), wk =   0.0090703
        k(  183) = (   0.4285714   0.4206450   0.0000000), wk =   0.0090703
        k(  184) = (   0.4285714   0.4783806   0.0000000), wk =   0.0090703
        k(  185) = (   0.4285714   0.5361161   0.0000000), wk =   0.0090703
        k(  186) = (   0.4285714   0.5938517   0.0000000), wk =   0.0090703
        k(  187) = (   0.4285714   0.6515873   0.0000000), wk =   0.0090703
        k(  188) = (   0.4285714   0.7093229   0.0000000), wk =   0.0090703
        k(  189) = (   0.4285714   0.7670585   0.0000000), wk =   0.0090703
        k(  190) = (   0.4285714   0.8247941   0.0000000), wk =   0.0090703
        k(  191) = (   0.4285714  -0.3299176   0.0000000), wk =   0.0090703
        k(  192) = (   0.4285714  -0.2721820   0.0000000), wk =   0.0090703
        k(  193) = (   0.4285714  -0.2144465   0.0000000), wk =   0.0090703
        k(  194) = (   0.4285714  -0.1567109   0.0000000), wk =   0.0090703
        k(  195) = (   0.4285714  -0.0989753   0.0000000), wk =   0.0090703
        k(  196) = (   0.4285714  -0.0412397   0.0000000), wk =   0.0090703
        k(  197) = (   0.4285714   0.0164959   0.0000000), wk =   0.0090703
        k(  198) = (   0.4285714   0.0742315   0.0000000), wk =   0.0090703
        k(  199) = (   0.4285714   0.1319671   0.0000000), wk =   0.0090703
        k(  200) = (   0.4285714   0.1897026   0.0000000), wk =   0.0090703
        k(  201) = (   0.4761905   0.2749314   0.0000000), wk =   0.0090703
        k(  202) = (   0.4761905   0.3326669   0.0000000), wk =   0.0090703
        k(  203) = (   0.4761905   0.3904025   0.0000000), wk =   0.0090703
        k(  204) = (   0.4761905   0.4481381   0.0000000), wk =   0.0090703
        k(  205) = (   0.4761905   0.5058737   0.0000000), wk =   0.0090703
        k(  206) = (   0.4761905   0.5636093   0.0000000), wk =   0.0090703
        k(  207) = (   0.4761905   0.6213449   0.0000000), wk =   0.0090703
        k(  208) = (   0.4761905   0.6790805   0.0000000), wk =   0.0090703
        k(  209) = (   0.4761905   0.7368160   0.0000000), wk =   0.0090703
        k(  210) = (   0.4761905   0.7945516   0.0000000), wk =   0.0090703
        k(  211) = (   0.4761905   0.8522872   0.0000000), wk =   0.0090703
        k(  212) = (   0.4761905  -0.3024245   0.0000000), wk =   0.0090703
        k(  213) = (   0.4761905  -0.2446889   0.0000000), wk =   0.0090703
        k(  214) = (   0.4761905  -0.1869533   0.0000000), wk =   0.0090703
        k(  215) = (   0.4761905  -0.1292177   0.0000000), wk =   0.0090703
        k(  216) = (   0.4761905  -0.0714822   0.0000000), wk =   0.0090703
        k(  217) = (   0.4761905  -0.0137466   0.0000000), wk =   0.0090703
        k(  218) = (   0.4761905   0.0439890   0.0000000), wk =   0.0090703
        k(  219) = (   0.4761905   0.1017246   0.0000000), wk =   0.0090703
        k(  220) = (   0.4761905   0.1594602   0.0000000), wk =   0.0090703
        k(  221) = (   0.4761905   0.2171958   0.0000000), wk =   0.0090703

                       cryst. coord.
        k(    1) = (   0.0000000   0.0000000   0.0000000), wk =   0.0045351
        k(    2) = (   0.0000000   0.0476190   0.0000000), wk =   0.0090703
        k(    3) = (   0.0000000   0.0952381   0.0000000), wk =   0.0090703
        k(    4) = (   0.0000000   0.1428571   0.0000000), wk =   0.0090703
        k(    5) = (   0.0000000   0.1904762   0.0000000), wk =   0.0090703
        k(    6) = (   0.0000000   0.2380952   0.0000000), wk =   0.0090703
        k(    7) = (   0.0000000   0.2857143   0.0000000), wk =   0.0090703
        k(    8) = (   0.0000000   0.3333333   0.0000000), wk =   0.0090703
        k(    9) = (   0.0000000   0.3809524   0.0000000), wk =   0.0090703
        k(   10) = (   0.0000000   0.4285714   0.0000000), wk =   0.0090703
        k(   11) = (   0.0000000   0.4761905   0.0000000), wk =   0.0090703
        k(   12) = (   0.0476190   0.0000000   0.0000000), wk =   0.0090703
        k(   13) = (   0.0476190   0.0476190   0.0000000), wk =   0.0090703
        k(   14) = (   0.0476190   0.0952381   0.0000000), wk =   0.0090703
        k(   15) = (   0.0476190   0.1428571   0.0000000), wk =   0.0090703
        k(   16) = (   0.0476190   0.1904762   0.0000000), wk =   0.0090703
        k(   17) = (   0.0476190   0.2380952   0.0000000), wk =   0.0090703
        k(   18) = (   0.0476190   0.2857143   0.0000000), wk =   0.0090703
        k(   19) = (   0.0476190   0.3333333   0.0000000), wk =   0.0090703
        k(   20) = (   0.0476190   0.3809524   0.0000000), wk =   0.0090703
        k(   21) = (   0.0476190   0.4285714   0.0000000), wk =   0.0090703
        k(   22) = (   0.0476190   0.4761905   0.0000000), wk =   0.0090703
        k(   23) = (   0.0476190  -0.4761905   0.0000000), wk =   0.0090703
        k(   24) = (   0.0476190  -0.4285714   0.0000000), wk =   0.0090703
        k(   25) = (   0.0476190  -0.3809524   0.0000000), wk =   0.0090703
        k(   26) = (   0.0476190  -0.3333333   0.0000000), wk =   0.0090703
        k(   27) = (   0.0476190  -0.2857143   0.0000000), wk =   0.0090703
        k(   28) = (   0.0476190  -0.2380952   0.0000000), wk =   0.0090703
        k(   29) = (   0.0476190  -0.1904762   0.0000000), wk =   0.0090703
        k(   30) = (   0.0476190  -0.1428571   0.0000000), wk =   0.0090703
        k(   31) = (   0.0476190  -0.0952381   0.0000000), wk =   0.0090703
        k(   32) = (   0.0476190  -0.0476190   0.0000000), wk =   0.0090703
        k(   33) = (   0.0952381   0.0000000   0.0000000), wk =   0.0090703
        k(   34) = (   0.0952381   0.0476190   0.0000000), wk =   0.0090703
        k(   35) = (   0.0952381   0.0952381   0.0000000), wk =   0.0090703
        k(   36) = (   0.0952381   0.1428571   0.0000000), wk =   0.0090703
        k(   37) = (   0.0952381   0.1904762   0.0000000), wk =   0.0090703
        k(   38) = (   0.0952381   0.2380952   0.0000000), wk =   0.0090703
        k(   39) = (   0.0952381   0.2857143   0.0000000), wk =   0.0090703
        k(   40) = (   0.0952381   0.3333333   0.0000000), wk =   0.0090703
        k(   41) = (   0.0952381   0.3809524   0.0000000), wk =   0.0090703
        k(   42) = (   0.0952381   0.4285714   0.0000000), wk =   0.0090703
        k(   43) = (   0.0952381   0.4761905   0.0000000), wk =   0.0090703
        k(   44) = (   0.0952381  -0.4761905   0.0000000), wk =   0.0090703
        k(   45) = (   0.0952381  -0.4285714   0.0000000), wk =   0.0090703
        k(   46) = (   0.0952381  -0.3809524   0.0000000), wk =   0.0090703
        k(   47) = (   0.0952381  -0.3333333   0.0000000), wk =   0.0090703
        k(   48) = (   0.0952381  -0.2857143   0.0000000), wk =   0.0090703
        k(   49) = (   0.0952381  -0.2380952   0.0000000), wk =   0.0090703
        k(   50) = (   0.0952381  -0.1904762   0.0000000), wk =   0.0090703
        k(   51) = (   0.0952381  -0.1428571   0.0000000), wk =   0.0090703
        k(   52) = (   0.0952381  -0.0952381   0.0000000), wk =   0.0090703
        k(   53) = (   0.0952381  -0.0476190   0.0000000), wk =   0.0090703
        k(   54) = (   0.1428571   0.0000000   0.0000000), wk =   0.0090703
        k(   55) = (   0.1428571   0.0476190   0.0000000), wk =   0.0090703
        k(   56) = (   0.1428571   0.0952381   0.0000000), wk =   0.0090703
        k(   57) = (   0.1428571   0.1428571   0.0000000), wk =   0.0090703
        k(   58) = (   0.1428571   0.1904762   0.0000000), wk =   0.0090703
        k(   59) = (   0.1428571   0.2380952   0.0000000), wk =   0.0090703
        k(   60) = (   0.1428571   0.2857143   0.0000000), wk =   0.0090703
        k(   61) = (   0.1428571   0.3333333   0.0000000), wk =   0.0090703
        k(   62) = (   0.1428571   0.3809524   0.0000000), wk =   0.0090703
        k(   63) = (   0.1428571   0.4285714   0.0000000), wk =   0.0090703
        k(   64) = (   0.1428571   0.4761905   0.0000000), wk =   0.0090703
        k(   65) = (   0.1428571  -0.4761905   0.0000000), wk =   0.0090703
        k(   66) = (   0.1428571  -0.4285714   0.0000000), wk =   0.0090703
        k(   67) = (   0.1428571  -0.3809524   0.0000000), wk =   0.0090703
        k(   68) = (   0.1428571  -0.3333333   0.0000000), wk =   0.0090703
        k(   69) = (   0.1428571  -0.2857143   0.0000000), wk =   0.0090703
        k(   70) = (   0.1428571  -0.2380952   0.0000000), wk =   0.0090703
        k(   71) = (   0.1428571  -0.1904762   0.0000000), wk =   0.0090703
        k(   72) = (   0.1428571  -0.1428571   0.0000000), wk =   0.0090703
        k(   73) = (   0.1428571  -0.0952381   0.0000000), wk =   0.0090703
        k(   74) = (   0.1428571  -0.0476190   0.0000000), wk =   0.0090703
        k(   75) = (   0.1904762   0.0000000   0.0000000), wk =   0.0090703
        k(   76) = (   0.1904762   0.0476190   0.0000000), wk =   0.0090703
        k(   77) = (   0.1904762   0.0952381   0.0000000), wk =   0.0090703
        k(   78) = (   0.1904762   0.1428571   0.0000000), wk =   0.0090703
        k(   79) = (   0.1904762   0.1904762   0.0000000), wk =   0.0090703
        k(   80) = (   0.1904762   0.2380952   0.0000000), wk =   0.0090703
        k(   81) = (   0.1904762   0.2857143   0.0000000), wk =   0.0090703
        k(   82) = (   0.1904762   0.3333333   0.0000000), wk =   0.0090703
        k(   83) = (   0.1904762   0.3809524   0.0000000), wk =   0.0090703
        k(   84) = (   0.1904762   0.4285714   0.0000000), wk =   0.0090703
        k(   85) = (   0.1904762   0.4761905   0.0000000), wk =   0.0090703
        k(   86) = (   0.1904762  -0.4761905   0.0000000), wk =   0.0090703
        k(   87) = (   0.1904762  -0.4285714   0.0000000), wk =   0.0090703
        k(   88) = (   0.1904762  -0.3809524   0.0000000), wk =   0.0090703
        k(   89) = (   0.1904762  -0.3333333   0.0000000), wk =   0.0090703
        k(   90) = (   0.1904762  -0.2857143   0.0000000), wk =   0.0090703
        k(   91) = (   0.1904762  -0.2380952   0.0000000), wk =   0.0090703
        k(   92) = (   0.1904762  -0.1904762   0.0000000), wk =   0.0090703
        k(   93) = (   0.1904762  -0.1428571   0.0000000), wk =   0.0090703
        k(   94) = (   0.1904762  -0.0952381   0.0000000), wk =   0.0090703
        k(   95) = (   0.1904762  -0.0476190   0.0000000), wk =   0.0090703
        k(   96) = (   0.2380952   0.0000000   0.0000000), wk =   0.0090703
        k(   97) = (   0.2380952   0.0476190   0.0000000), wk =   0.0090703
        k(   98) = (   0.2380952   0.0952381   0.0000000), wk =   0.0090703
        k(   99) = (   0.2380952   0.1428571   0.0000000), wk =   0.0090703
        k(  100) = (   0.2380952   0.1904762   0.0000000), wk =   0.0090703
        k(  101) = (   0.2380952   0.2380952   0.0000000), wk =   0.0090703
        k(  102) = (   0.2380952   0.2857143   0.0000000), wk =   0.0090703
        k(  103) = (   0.2380952   0.3333333   0.0000000), wk =   0.0090703
        k(  104) = (   0.2380952   0.3809524   0.0000000), wk =   0.0090703
        k(  105) = (   0.2380952   0.4285714   0.0000000), wk =   0.0090703
        k(  106) = (   0.2380952   0.4761905   0.0000000), wk =   0.0090703
        k(  107) = (   0.2380952  -0.4761905   0.0000000), wk =   0.0090703
        k(  108) = (   0.2380952  -0.4285714   0.0000000), wk =   0.0090703
        k(  109) = (   0.2380952  -0.3809524   0.0000000), wk =   0.0090703
        k(  110) = (   0.2380952  -0.3333333   0.0000000), wk =   0.0090703
        k(  111) = (   0.2380952  -0.2857143   0.0000000), wk =   0.0090703
        k(  112) = (   0.2380952  -0.2380952   0.0000000), wk =   0.0090703
        k(  113) = (   0.2380952  -0.1904762   0.0000000), wk =   0.0090703
        k(  114) = (   0.2380952  -0.1428571   0.0000000), wk =   0.0090703
        k(  115) = (   0.2380952  -0.0952381   0.0000000), wk =   0.0090703
        k(  116) = (   0.2380952  -0.0476190   0.0000000), wk =   0.0090703
        k(  117) = (   0.2857143   0.0000000   0.0000000), wk =   0.0090703
        k(  118) = (   0.2857143   0.0476190   0.0000000), wk =   0.0090703
        k(  119) = (   0.2857143   0.0952381   0.0000000), wk =   0.0090703
        k(  120) = (   0.2857143   0.1428571   0.0000000), wk =   0.0090703
        k(  121) = (   0.2857143   0.1904762   0.0000000), wk =   0.0090703
        k(  122) = (   0.2857143   0.2380952   0.0000000), wk =   0.0090703
        k(  123) = (   0.2857143   0.2857143   0.0000000), wk =   0.0090703
        k(  124) = (   0.2857143   0.3333333   0.0000000), wk =   0.0090703
        k(  125) = (   0.2857143   0.3809524   0.0000000), wk =   0.0090703
        k(  126) = (   0.2857143   0.4285714   0.0000000), wk =   0.0090703
        k(  127) = (   0.2857143   0.4761905   0.0000000), wk =   0.0090703
        k(  128) = (   0.2857143  -0.4761905   0.0000000), wk =   0.0090703
        k(  129) = (   0.2857143  -0.4285714   0.0000000), wk =   0.0090703
        k(  130) = (   0.2857143  -0.3809524   0.0000000), wk =   0.0090703
        k(  131) = (   0.2857143  -0.3333333   0.0000000), wk =   0.0090703
        k(  132) = (   0.2857143  -0.2857143   0.0000000), wk =   0.0090703
        k(  133) = (   0.2857143  -0.2380952   0.0000000), wk =   0.0090703
        k(  134) = (   0.2857143  -0.1904762   0.0000000), wk =   0.0090703
        k(  135) = (   0.2857143  -0.1428571   0.0000000), wk =   0.0090703
        k(  136) = (   0.2857143  -0.0952381   0.0000000), wk =   0.0090703
        k(  137) = (   0.2857143  -0.0476190   0.0000000), wk =   0.0090703
        k(  138) = (   0.3333333   0.0000000   0.0000000), wk =   0.0090703
        k(  139) = (   0.3333333   0.0476190   0.0000000), wk =   0.0090703
        k(  140) = (   0.3333333   0.0952381   0.0000000), wk =   0.0090703
        k(  141) = (   0.3333333   0.1428571   0.0000000), wk =   0.0090703
        k(  142) = (   0.3333333   0.1904762   0.0000000), wk =   0.0090703
        k(  143) = (   0.3333333   0.2380952   0.0000000), wk =   0.0090703
        k(  144) = (   0.3333333   0.2857143   0.0000000), wk =   0.0090703
        k(  145) = (   0.3333333   0.3333333   0.0000000), wk =   0.0090703
        k(  146) = (   0.3333333   0.3809524   0.0000000), wk =   0.0090703
        k(  147) = (   0.3333333   0.4285714   0.0000000), wk =   0.0090703
        k(  148) = (   0.3333333   0.4761905   0.0000000), wk =   0.0090703
        k(  149) = (   0.3333333  -0.4761905   0.0000000), wk =   0.0090703
        k(  150) = (   0.3333333  -0.4285714   0.0000000), wk =   0.0090703
        k(  151) = (   0.3333333  -0.3809524   0.0000000), wk =   0.0090703
        k(  152) = (   0.3333333  -0.3333333   0.0000000), wk =   0.0090703
        k(  153) = (   0.3333333  -0.2857143   0.0000000), wk =   0.0090703
        k(  154) = (   0.3333333  -0.2380952   0.0000000), wk =   0.0090703
        k(  155) = (   0.3333333  -0.1904762   0.0000000), wk =   0.0090703
        k(  156) = (   0.3333333  -0.1428571   0.0000000), wk =   0.0090703
        k(  157) = (   0.3333333  -0.0952381   0.0000000), wk =   0.0090703
        k(  158) = (   0.3333333  -0.0476190   0.0000000), wk =   0.0090703
        k(  159) = (   0.3809524   0.0000000   0.0000000), wk =   0.0090703
        k(  160) = (   0.3809524   0.0476190   0.0000000), wk =   0.0090703
        k(  161) = (   0.3809524   0.0952381   0.0000000), wk =   0.0090703
        k(  162) = (   0.3809524   0.1428571   0.0000000), wk =   0.0090703
        k(  163) = (   0.3809524   0.1904762   0.0000000), wk =   0.0090703
        k(  164) = (   0.3809524   0.2380952   0.0000000), wk =   0.0090703
        k(  165) = (   0.3809524   0.2857143   0.0000000), wk =   0.0090703
        k(  166) = (   0.3809524   0.3333333   0.0000000), wk =   0.0090703
        k(  167) = (   0.3809524   0.3809524   0.0000000), wk =   0.0090703
        k(  168) = (   0.3809524   0.4285714   0.0000000), wk =   0.0090703
        k(  169) = (   0.3809524   0.4761905   0.0000000), wk =   0.0090703
        k(  170) = (   0.3809524  -0.4761905   0.0000000), wk =   0.0090703
        k(  171) = (   0.3809524  -0.4285714   0.0000000), wk =   0.0090703
        k(  172) = (   0.3809524  -0.3809524   0.0000000), wk =   0.0090703
        k(  173) = (   0.3809524  -0.3333333   0.0000000), wk =   0.0090703
        k(  174) = (   0.3809524  -0.2857143   0.0000000), wk =   0.0090703
        k(  175) = (   0.3809524  -0.2380952   0.0000000), wk =   0.0090703
        k(  176) = (   0.3809524  -0.1904762   0.0000000), wk =   0.0090703
        k(  177) = (   0.3809524  -0.1428571   0.0000000), wk =   0.0090703
        k(  178) = (   0.3809524  -0.0952381   0.0000000), wk =   0.0090703
        k(  179) = (   0.3809524  -0.0476190   0.0000000), wk =   0.0090703
        k(  180) = (   0.4285714   0.0000000   0.0000000), wk =   0.0090703
        k(  181) = (   0.4285714   0.0476190   0.0000000), wk =   0.0090703
        k(  182) = (   0.4285714   0.0952381   0.0000000), wk =   0.0090703
        k(  183) = (   0.4285714   0.1428571   0.0000000), wk =   0.0090703
        k(  184) = (   0.4285714   0.1904762   0.0000000), wk =   0.0090703
        k(  185) = (   0.4285714   0.2380952   0.0000000), wk =   0.0090703
        k(  186) = (   0.4285714   0.2857143   0.0000000), wk =   0.0090703
        k(  187) = (   0.4285714   0.3333333   0.0000000), wk =   0.0090703
        k(  188) = (   0.4285714   0.3809524   0.0000000), wk =   0.0090703
        k(  189) = (   0.4285714   0.4285714   0.0000000), wk =   0.0090703
        k(  190) = (   0.4285714   0.4761905   0.0000000), wk =   0.0090703
        k(  191) = (   0.4285714  -0.4761905   0.0000000), wk =   0.0090703
        k(  192) = (   0.4285714  -0.4285714   0.0000000), wk =   0.0090703
        k(  193) = (   0.4285714  -0.3809524   0.0000000), wk =   0.0090703
        k(  194) = (   0.4285714  -0.3333333   0.0000000), wk =   0.0090703
        k(  195) = (   0.4285714  -0.2857143   0.0000000), wk =   0.0090703
        k(  196) = (   0.4285714  -0.2380952   0.0000000), wk =   0.0090703
        k(  197) = (   0.4285714  -0.1904762   0.0000000), wk =   0.0090703
        k(  198) = (   0.4285714  -0.1428571   0.0000000), wk =   0.0090703
        k(  199) = (   0.4285714  -0.0952381   0.0000000), wk =   0.0090703
        k(  200) = (   0.4285714  -0.0476190   0.0000000), wk =   0.0090703
        k(  201) = (   0.4761905   0.0000000   0.0000000), wk =   0.0090703
        k(  202) = (   0.4761905   0.0476190   0.0000000), wk =   0.0090703
        k(  203) = (   0.4761905   0.0952381   0.0000000), wk =   0.0090703
        k(  204) = (   0.4761905   0.1428571   0.0000000), wk =   0.0090703
        k(  205) = (   0.4761905   0.1904762   0.0000000), wk =   0.0090703
        k(  206) = (   0.4761905   0.2380952   0.0000000), wk =   0.0090703
        k(  207) = (   0.4761905   0.2857143   0.0000000), wk =   0.0090703
        k(  208) = (   0.4761905   0.3333333   0.0000000), wk =   0.0090703
        k(  209) = (   0.4761905   0.3809524   0.0000000), wk =   0.0090703
        k(  210) = (   0.4761905   0.4285714   0.0000000), wk =   0.0090703
        k(  211) = (   0.4761905   0.4761905   0.0000000), wk =   0.0090703
        k(  212) = (   0.4761905  -0.4761905   0.0000000), wk =   0.0090703
        k(  213) = (   0.4761905  -0.4285714   0.0000000), wk =   0.0090703
        k(  214) = (   0.4761905  -0.3809524   0.0000000), wk =   0.0090703
        k(  215) = (   0.4761905  -0.3333333   0.0000000), wk =   0.0090703
        k(  216) = (   0.4761905  -0.2857143   0.0000000), wk =   0.0090703
        k(  217) = (   0.4761905  -0.2380952   0.0000000), wk =   0.0090703
        k(  218) = (   0.4761905  -0.1904762   0.0000000), wk =   0.0090703
        k(  219) = (   0.4761905  -0.1428571   0.0000000), wk =   0.0090703
        k(  220) = (   0.4761905  -0.0952381   0.0000000), wk =   0.0090703
        k(  221) = (   0.4761905  -0.0476190   0.0000000), wk =   0.0090703

     Dense  grid:   477063 G-vectors     FFT dimensions: (  64,  60, 300)

     Smooth grid:   120743 G-vectors     FFT dimensions: (  40,  40, 192)

     Dynamical RAM for                 wfc:       0.37 MB

     Dynamical RAM for     wfc (w. buffer):      82.97 MB

     Dynamical RAM for           str. fact:       0.61 MB

     Dynamical RAM for           local pot:       0.00 MB

     Dynamical RAM for          nlocal pot:       0.86 MB

     Dynamical RAM for                qrad:       3.59 MB

     Dynamical RAM for          rho,v,vnew:       2.05 MB

     Dynamical RAM for               rhoin:       0.68 MB

     Dynamical RAM for            rho*nmix:       4.85 MB

     Dynamical RAM for           G-vectors:       1.18 MB

     Dynamical RAM for          h,s,v(r/c):       0.28 MB

     Dynamical RAM for          <psi|beta>:       0.05 MB

     Dynamical RAM for                 psi:       0.75 MB

     Dynamical RAM for                hpsi:       0.75 MB

     Dynamical RAM for      wfcinit/wfcrot:       0.78 MB

     Estimated static dynamical RAM per process >      94.75 MB

     Estimated max dynamical RAM per process >     101.43 MB

     Estimated total dynamical RAM >       2.38 GB

     Initial potential from superposition of free atoms

     starting charge      77.7638, renormalised to      78.0000

     negative rho (up, down):  4.016E-04 0.000E+00
     Starting wfcs are random

     total cpu time spent up to now is        5.1 secs

     Self-consistent Calculation

     iteration #  1     ecut=    50.00 Ry     beta= 0.70
     Davidson diagonalization with overlap

---- Real-time Memory Report at c_bands before calling an iterative solver
           283 MiB given to the printing process from OS
             0 MiB allocation reported by mallinfo(arena+hblkhd)
         98176 MiB available memory on the node where the printing process lives
------------------
     ethr =  1.00E-02,  avg # of iterations = 11.1

     Threshold (ethr) on eigenvalues was too large:
     Diagonalizing with lowered threshold

     Davidson diagonalization with overlap

---- Real-time Memory Report at c_bands before calling an iterative solver
           285 MiB given to the printing process from OS
             0 MiB allocation reported by mallinfo(arena+hblkhd)
         98150 MiB available memory on the node where the printing process lives
------------------
     ethr =  1.33E-04,  avg # of iterations =  5.9

     negative rho (up, down):  1.662E-05 0.000E+00

     total cpu time spent up to now is       66.6 secs

     total energy              =    -806.47369431 Ry
     estimated scf accuracy    <       0.09145888 Ry

     iteration #  2     ecut=    50.00 Ry     beta= 0.70
     Davidson diagonalization with overlap

---- Real-time Memory Report at c_bands before calling an iterative solver
           291 MiB given to the printing process from OS
             0 MiB allocation reported by mallinfo(arena+hblkhd)
         98083 MiB available memory on the node where the printing process lives
------------------
     ethr =  1.17E-04,  avg # of iterations =  5.9

     negative rho (up, down):  2.889E-05 0.000E+00

     total cpu time spent up to now is       84.3 secs

     total energy              =    -806.41562376 Ry
     estimated scf accuracy    <       0.57350996 Ry

     iteration #  3     ecut=    50.00 Ry     beta= 0.70
     Davidson diagonalization with overlap

---- Real-time Memory Report at c_bands before calling an iterative solver
           291 MiB given to the printing process from OS
             0 MiB allocation reported by mallinfo(arena+hblkhd)
         98079 MiB available memory on the node where the printing process lives
------------------
     ethr =  1.17E-04,  avg # of iterations =  5.4

     negative rho (up, down):  2.414E-05 0.000E+00

     total cpu time spent up to now is      100.5 secs

     total energy              =    -806.48949921 Ry
     estimated scf accuracy    <       0.23426736 Ry

     iteration #  4     ecut=    50.00 Ry     beta= 0.70
     Davidson diagonalization with overlap

---- Real-time Memory Report at c_bands before calling an iterative solver
           292 MiB given to the printing process from OS
             0 MiB allocation reported by mallinfo(arena+hblkhd)
         98075 MiB available memory on the node where the printing process lives
------------------
     ethr =  1.17E-04,  avg # of iterations =  3.5

     negative rho (up, down):  2.973E-06 0.000E+00

     total cpu time spent up to now is      113.5 secs

     total energy              =    -806.51411095 Ry
     estimated scf accuracy    <       0.00421049 Ry

     iteration #  5     ecut=    50.00 Ry     beta= 0.70
     Davidson diagonalization with overlap

---- Real-time Memory Report at c_bands before calling an iterative solver
           292 MiB given to the printing process from OS
             0 MiB allocation reported by mallinfo(arena+hblkhd)
         98074 MiB available memory on the node where the printing process lives
------------------
     ethr =  5.40E-06,  avg # of iterations =  6.0

     negative rho (up, down):  2.718E-06 0.000E+00

     total cpu time spent up to now is      129.8 secs

     total energy              =    -806.51454795 Ry
     estimated scf accuracy    <       0.01838342 Ry

     iteration #  6     ecut=    50.00 Ry     beta= 0.70
     Davidson diagonalization with overlap

---- Real-time Memory Report at c_bands before calling an iterative solver
           292 MiB given to the printing process from OS
             0 MiB allocation reported by mallinfo(arena+hblkhd)
         98073 MiB available memory on the node where the printing process lives
------------------
     ethr =  5.40E-06,  avg # of iterations =  5.8

     negative rho (up, down):  1.846E-08 0.000E+00

     total cpu time spent up to now is      143.7 secs

     total energy              =    -806.51526581 Ry
     estimated scf accuracy    <       0.00362701 Ry

     iteration #  7     ecut=    50.00 Ry     beta= 0.70
     Davidson diagonalization with overlap

---- Real-time Memory Report at c_bands before calling an iterative solver
           292 MiB given to the printing process from OS
             0 MiB allocation reported by mallinfo(arena+hblkhd)
         98069 MiB available memory on the node where the printing process lives
------------------
     ethr =  4.65E-06,  avg # of iterations =  3.0

     total cpu time spent up to now is      155.7 secs

     total energy              =    -806.51551237 Ry
     estimated scf accuracy    <       0.00027188 Ry

     iteration #  8     ecut=    50.00 Ry     beta= 0.70
     Davidson diagonalization with overlap

---- Real-time Memory Report at c_bands before calling an iterative solver
           292 MiB given to the printing process from OS
             0 MiB allocation reported by mallinfo(arena+hblkhd)
         98068 MiB available memory on the node where the printing process lives
------------------
     ethr =  3.49E-07,  avg # of iterations =  5.6

     total cpu time spent up to now is      170.5 secs

     total energy              =    -806.51556879 Ry
     estimated scf accuracy    <       0.00014055 Ry

     iteration #  9     ecut=    50.00 Ry     beta= 0.70
     Davidson diagonalization with overlap

---- Real-time Memory Report at c_bands before calling an iterative solver
           293 MiB given to the printing process from OS
             0 MiB allocation reported by mallinfo(arena+hblkhd)
         98066 MiB available memory on the node where the printing process lives
------------------
     ethr =  1.80E-07,  avg # of iterations =  2.0

     total cpu time spent up to now is      181.5 secs

     total energy              =    -806.51556318 Ry
     estimated scf accuracy    <       0.00005742 Ry

     iteration # 10     ecut=    50.00 Ry     beta= 0.70
     Davidson diagonalization with overlap

---- Real-time Memory Report at c_bands before calling an iterative solver
           293 MiB given to the printing process from OS
             0 MiB allocation reported by mallinfo(arena+hblkhd)
         98065 MiB available memory on the node where the printing process lives
------------------
     ethr =  7.36E-08,  avg # of iterations =  4.2

     total cpu time spent up to now is      194.6 secs

     total energy              =    -806.51557046 Ry
     estimated scf accuracy    <       0.00000050 Ry

     iteration # 11     ecut=    50.00 Ry     beta= 0.70
     Davidson diagonalization with overlap

---- Real-time Memory Report at c_bands before calling an iterative solver
           293 MiB given to the printing process from OS
             0 MiB allocation reported by mallinfo(arena+hblkhd)
         98061 MiB available memory on the node where the printing process lives
------------------
     ethr =  6.41E-10,  avg # of iterations =  5.8

     total cpu time spent up to now is      211.4 secs

     total energy              =    -806.51557025 Ry
     estimated scf accuracy    <       0.00000448 Ry

     iteration # 12     ecut=    50.00 Ry     beta= 0.70
     Davidson diagonalization with overlap

---- Real-time Memory Report at c_bands before calling an iterative solver
           293 MiB given to the printing process from OS
             0 MiB allocation reported by mallinfo(arena+hblkhd)
         98062 MiB available memory on the node where the printing process lives
------------------
     ethr =  6.41E-10,  avg # of iterations =  5.5

     total cpu time spent up to now is      226.4 secs

     End of self-consistent calculation

          k = 0.0000 0.0000 0.0000 ( 15117 PWs)   bands (ev):

   -34.9035 -34.9034 -34.9029 -34.9029 -34.8675 -34.8673 -34.8594 -34.8594
   -34.8496 -34.8495 -34.8019 -34.7992 -34.7818 -34.7620 -34.7594 -27.6960
   -27.6955 -27.6943 -27.6938 -27.6888 -27.6883 -27.6840 -27.6835 -27.6805
   -27.6800 -10.7828 -10.2387  -9.1702  -6.4481  -5.1378  -0.3971  -0.1774
    -0.0428   0.1180   0.2407   0.5594   0.5739   0.7712   1.0040

     occupation numbers 
     1.0000   1.0000   1.0000   1.0000   1.0000   1.0000   1.0000   1.0000
     1.0000   1.0000   1.0000   1.0000   1.0000   1.0000   1.0000   1.0000
     1.0000   1.0000   1.0000   1.0000   1.0000   1.0000   1.0000   1.0000
     1.0000   1.0000   1.0000   1.0000   1.0000   1.0000   1.0000   1.0000
     1.0000   1.0000   1.0000   1.0000   1.0000   1.0000   1.0000

          k = 0.0000 0.0577 0.0000 ( 15126 PWs)   bands (ev):

   -34.9035 -34.9034 -34.9029 -34.9028 -34.8675 -34.8673 -34.8594 -34.8594
   -34.8496 -34.8495 -34.8019 -34.7992 -34.7818 -34.7620 -34.7594 -27.6961
   -27.6955 -27.6942 -27.6937 -27.6888 -27.6882 -27.6840 -27.6835 -27.6806
   -27.6801 -10.7632 -10.2207  -9.1595  -6.4518  -5.1706  -0.4606  -0.3270
    -0.0455  -0.0038   0.0682   0.4683   0.6376   0.7799   1.1806

     occupation numbers 
     1.0000   1.0000   1.0000   1.0000   1.0000   1.0000   1.0000   1.0000
     1.0000   1.0000   1.0000   1.0000   1.0000   1.0000   1.0000   1.0000
     1.0000   1.0000   1.0000   1.0000   1.0000   1.0000   1.0000   1.0000
     1.0000   1.0000   1.0000   1.0000   1.0000   1.0000   1.0000   1.0000
     1.0000   1.0000   1.0000   1.0000   1.0000   1.0000   1.0000

          k = 0.0000 0.1155 0.0000 ( 15114 PWs)   bands (ev):

   -34.9034 -34.9034 -34.9028 -34.9028 -34.8675 -34.8673 -34.8594 -34.8594
   -34.8495 -34.8494 -34.8019 -34.7992 -34.7818 -34.7620 -34.7594 -27.6961
   -27.6956 -27.6940 -27.6935 -27.6887 -27.6881 -27.6840 -27.6835 -27.6808
   -27.6802 -10.7044 -10.1670  -9.1283  -6.4648  -5.2684  -0.7543  -0.5627
    -0.2638  -0.1665  -0.0729   0.1612   0.6769   1.0028   1.3396

     occupation numbers 
     1.0000   1.0000   1.0000   1.0000   1.0000   1.0000   1.0000   1.0000
     1.0000   1.0000   1.0000   1.0000   1.0000   1.0000   1.0000   1.0000
     1.0000   1.0000   1.0000   1.0000   1.0000   1.0000   1.0000   1.0000
     1.0000   1.0000   1.0000   1.0000   1.0000   1.0000   1.0000   1.0000
     1.0000   1.0000   1.0000   1.0000   1.0000   1.0000   1.0000

          k = 0.0000 0.1732 0.0000 ( 15094 PWs)   bands (ev):

   -34.9034 -34.9034 -34.9027 -34.9026 -34.8675 -34.8673 -34.8594 -34.8594
   -34.8494 -34.8494 -34.8019 -34.7992 -34.7818 -34.7619 -34.7593 -27.6962
   -27.6957 -27.6936 -27.6931 -27.6885 -27.6880 -27.6840 -27.6834 -27.6811
   -27.6805 -10.6074 -10.0790  -9.0788  -6.4925  -5.4289  -1.2049  -0.7764
    -0.5587  -0.4028  -0.2695   0.0631   0.7043   0.9998   1.3193

     occupation numbers 
     1.0000   1.0000   1.0000   1.0000   1.0000   1.0000   1.0000   1.0000
     1.0000   1.0000   1.0000   1.0000   1.0000   1.0000   1.0000   1.0000
     1.0000   1.0000   1.0000   1.0000   1.0000   1.0000   1.0000   1.0000
     1.0000   1.0000   1.0000   1.0000   1.0000   1.0000   1.0000   1.0000
     1.0000   1.0000   1.0000   1.0000   1.0000   1.0000   1.0000

          k = 0.0000 0.2309 0.0000 ( 15102 PWs)   bands (ev):

   -34.9034 -34.9034 -34.9025 -34.9025 -34.8675 -34.8674 -34.8595 -34.8594
   -34.8494 -34.8493 -34.8018 -34.7992 -34.7819 -34.7618 -34.7592 -27.6963
   -27.6958 -27.6931 -27.6926 -27.6883 -27.6878 -27.6840 -27.6834 -27.6815
   -27.6809 -10.4734  -9.9587  -9.0156  -6.5436  -5.6451  -1.6574  -0.9990
    -0.9040  -0.6241  -0.4478   0.0640   0.6556   0.7032   1.4163

     occupation numbers 
     1.0000   1.0000   1.0000   1.0000   1.0000   1.0000   1.0000   1.0000
     1.0000   1.0000   1.0000   1.0000   1.0000   1.0000   1.0000   1.0000
     1.0000   1.0000   1.0000   1.0000   1.0000   1.0000   1.0000   1.0000
     1.0000   1.0000   1.0000   1.0000   1.0000   1.0000   1.0000   1.0000
     1.0000   1.0000   1.0000   1.0000   1.0000   1.0000   1.0000

          k = 0.0000 0.2887 0.0000 ( 15100 PWs)   bands (ev):

   -34.9034 -34.9034 -34.9023 -34.9023 -34.8675 -34.8674 -34.8595 -34.8595
   -34.8492 -34.8492 -34.8018 -34.7993 -34.7819 -34.7616 -34.7591 -27.6964
   -27.6959 -27.6926 -27.6921 -27.6881 -27.6875 -27.6840 -27.6833 -27.6819
   -27.6813 -10.3045  -9.8098  -8.9450  -6.6288  -5.9031  -2.0703  -1.2362
    -1.2061  -0.7851  -0.6170   0.0481   0.3574   0.6574   1.3741

     occupation numbers 
     1.0000   1.0000   1.0000   1.0000   1.0000   1.0000   1.0000   1.0000
     1.0000   1.0000   1.0000   1.0000   1.0000   1.0000   1.0000   1.0000
     1.0000   1.0000   1.0000   1.0000   1.0000   1.0000   1.0000   1.0000
     1.0000   1.0000   1.0000   1.0000   1.0000   1.0000   1.0000   1.0000
     1.0000   1.0000   1.0000   1.0000   1.0000   1.0000   1.0000

          k = 0.0000 0.3464 0.0000 ( 15093 PWs)   bands (ev):

   -34.9034 -34.9034 -34.9022 -34.9021 -34.8675 -34.8674 -34.8595 -34.8595
   -34.8491 -34.8491 -34.8017 -34.7993 -34.7820 -34.7615 -34.7590 -27.6965
   -27.6960 -27.6921 -27.6916 -27.6879 -27.6873 -27.6840 -27.6832 -27.6823
   -27.6817 -10.1043  -9.6379  -8.8770  -6.7579  -6.1808  -2.4253  -1.5016
    -1.3947  -0.9181  -0.7714  -0.1123   0.2629   0.5999   1.2028

     occupation numbers 
     1.0000   1.0000   1.0000   1.0000   1.0000   1.0000   1.0000   1.0000
     1.0000   1.0000   1.0000   1.0000   1.0000   1.0000   1.0000   1.0000
     1.0000   1.0000   1.0000   1.0000   1.0000   1.0000   1.0000   1.0000
     1.0000   1.0000   1.0000   1.0000   1.0000   1.0000   1.0000   1.0000
     1.0000   1.0000   1.0000   1.0000   1.0000   1.0000   1.0000

          k = 0.0000 0.4041 0.0000 ( 15102 PWs)   bands (ev):

   -34.9035 -34.9034 -34.9020 -34.9019 -34.8675 -34.8674 -34.8596 -34.8596
   -34.8490 -34.8490 -34.8017 -34.7993 -34.7820 -34.7614 -34.7588 -27.6967
   -27.6961 -27.6916 -27.6911 -27.6877 -27.6872 -27.6839 -27.6831 -27.6826
   -27.6820  -9.8779  -9.4523  -8.8254  -6.9340  -6.4491  -2.7140  -1.6924
    -1.5493  -1.0511  -0.9061  -0.3073   0.2918   0.5389   0.9888

     occupation numbers 
     1.0000   1.0000   1.0000   1.0000   1.0000   1.0000   1.0000   1.0000
     1.0000   1.0000   1.0000   1.0000   1.0000   1.0000   1.0000   1.0000
     1.0000   1.0000   1.0000   1.0000   1.0000   1.0000   1.0000   1.0000
     1.0000   1.0000   1.0000   1.0000   1.0000   1.0000   1.0000   1.0000
     1.0000   1.0000   1.0000   1.0000   1.0000   1.0000   1.0000

          k = 0.0000 0.4619 0.0000 ( 15082 PWs)   bands (ev):

   -34.9035 -34.9034 -34.9018 -34.9017 -34.8675 -34.8674 -34.8596 -34.8596
   -34.8490 -34.8489 -34.8016 -34.7993 -34.7821 -34.7614 -34.7587 -27.6968
   -27.6962 -27.6912 -27.6907 -27.6876 -27.6870 -27.6838 -27.6830 -27.6829
   -27.6824  -9.6337  -9.2679  -8.8089  -7.1398  -6.6807  -2.9337  -1.8015
    -1.6678  -1.2020  -1.0147  -0.4255   0.3365   0.4835   0.7925

     occupation numbers 
     1.0000   1.0000   1.0000   1.0000   1.0000   1.0000   1.0000   1.0000
     1.0000   1.0000   1.0000   1.0000   1.0000   1.0000   1.0000   1.0000
     1.0000   1.0000   1.0000   1.0000   1.0000   1.0000   1.0000   1.0000
     1.0000   1.0000   1.0000   1.0000   1.0000   1.0000   1.0000   1.0000
     1.0000   1.0000   1.0000   1.0000   1.0000   1.0000   1.0000

          k = 0.0000 0.5196 0.0000 ( 15085 PWs)   bands (ev):

   -34.9035 -34.9034 -34.9017 -34.9016 -34.8675 -34.8674 -34.8596 -34.8596
   -34.8489 -34.8488 -34.8016 -34.7993 -34.7821 -34.7613 -34.7586 -27.6968
   -27.6963 -27.6909 -27.6904 -27.6875 -27.6870 -27.6837 -27.6831 -27.6829
   -27.6826  -9.3853  -9.1096  -8.8502  -7.3303  -6.8551  -3.0828  -1.8365
    -1.7484  -1.3554  -1.0888  -0.4738   0.3696   0.4383   0.6531

     occupation numbers 
     1.0000   1.0000   1.0000   1.0000   1.0000   1.0000   1.0000   1.0000
     1.0000   1.0000   1.0000   1.0000   1.0000   1.0000   1.0000   1.0000
     1.0000   1.0000   1.0000   1.0000   1.0000   1.0000   1.0000   1.0000
     1.0000   1.0000   1.0000   1.0000   1.0000   1.0000   1.0000   1.0000
     1.0000   1.0000   1.0000   1.0000   1.0000   1.0000   1.0000

          k = 0.0000 0.5774 0.0000 ( 15104 PWs)   bands (ev):

   -34.9035 -34.9034 -34.9017 -34.9016 -34.8675 -34.8674 -34.8596 -34.8596
   -34.8489 -34.8488 -34.8016 -34.7993 -34.7821 -34.7613 -34.7586 -27.6969
   -27.6963 -27.6907 -27.6902 -27.6875 -27.6869 -27.6837 -27.6832 -27.6829
   -27.6827  -9.1547  -9.0137  -8.9650  -7.4470  -6.9515  -3.1584  -1.8249
    -1.7921  -1.4632  -1.1259  -0.4862   0.3812   0.4079   0.5911

     occupation numbers 
     1.0000   1.0000   1.0000   1.0000   1.0000   1.0000   1.0000   1.0000
     1.0000   1.0000   1.0000   1.0000   1.0000   1.0000   1.0000   1.0000
     1.0000   1.0000   1.0000   1.0000   1.0000   1.0000   1.0000   1.0000
     1.0000   1.0000   1.0000   1.0000   1.0000   1.0000   1.0000   1.0000
     1.0000   1.0000   1.0000   1.0000   1.0000   1.0000   1.0000

          k = 0.0476 0.0275 0.0000 ( 15111 PWs)   bands (ev):

   -34.9034 -34.9034 -34.9029 -34.9028 -34.8675 -34.8673 -34.8594 -34.8594
   -34.8496 -34.8495 -34.8019 -34.7992 -34.7818 -34.7620 -34.7594 -27.6960
   -27.6955 -27.6943 -27.6938 -27.6888 -27.6883 -27.6840 -27.6835 -27.6805
   -27.6800 -10.7650 -10.2226  -9.1611  -6.4541  -5.1763  -0.4705  -0.4530
    -0.0862   0.0819   0.2246   0.3903   0.7350   0.8195   1.1171

     occupation numbers 
     1.0000   1.0000   1.0000   1.0000   1.0000   1.0000   1.0000   1.0000
     1.0000   1.0000   1.0000   1.0000   1.0000   1.0000   1.0000   1.0000
     1.0000   1.0000   1.0000   1.0000   1.0000   1.0000   1.0000   1.0000
     1.0000   1.0000   1.0000   1.0000   1.0000   1.0000   1.0000   1.0000
     1.0000   1.0000   1.0000   1.0000   1.0000   1.0000   1.0000

          k = 0.0476 0.0852 0.0000 ( 15117 PWs)   bands (ev):

   -34.9034 -34.9034 -34.9029 -34.9028 -34.8675 -34.8673 -34.8594 -34.8594
   -34.8495 -34.8495 -34.8019 -34.7992 -34.7818 -34.7620 -34.7594 -27.6960
   -27.6955 -27.6942 -27.6937 -27.6888 -27.6882 -27.6840 -27.6835 -27.6806
   -27.6801 -10.7267 -10.1878  -9.1411  -6.4638  -5.2447  -0.7154  -0.5834
    -0.1973  -0.0399   0.0375   0.3045   0.6835   0.9593   1.3076

     occupation numbers 
     1.0000   1.0000   1.0000   1.0000   1.0000   1.0000   1.0000   1.0000
     1.0000   1.0000   1.0000   1.0000   1.0000   1.0000   1.0000   1.0000
     1.0000   1.0000   1.0000   1.0000   1.0000   1.0000   1.0000   1.0000
     1.0000   1.0000   1.0000   1.0000   1.0000   1.0000   1.0000   1.0000
     1.0000   1.0000   1.0000   1.0000   1.0000   1.0000   1.0000

          k = 0.0476 0.1430 0.0000 ( 15102 PWs)   bands (ev):

   -34.9034 -34.9034 -34.9028 -34.9027 -34.8675 -34.8674 -34.8594 -34.8594
   -34.8495 -34.8494 -34.8019 -34.7992 -34.7818 -34.7619 -34.7594 -27.6961
   -27.6956 -27.6939 -27.6934 -27.6886 -27.6881 -27.6841 -27.6835 -27.6809
   -27.6803 -10.6497 -10.1179  -9.1016  -6.4852  -5.3761  -1.0530  -0.7836
    -0.5203  -0.2923  -0.0115   0.1469   0.6075   1.1277   1.3447

     occupation numbers 
     1.0000   1.0000   1.0000   1.0000   1.0000   1.0000   1.0000   1.0000
     1.0000   1.0000   1.0000   1.0000   1.0000   1.0000   1.0000   1.0000
     1.0000   1.0000   1.0000   1.0000   1.0000   1.0000   1.0000   1.0000
     1.0000   1.0000   1.0000   1.0000   1.0000   1.0000   1.0000   1.0000
     1.0000   1.0000   1.0000   1.0000   1.0000   1.0000   1.0000

          k = 0.0476 0.2007 0.0000 ( 15091 PWs)   bands (ev):

   -34.9034 -34.9034 -34.9026 -34.9025 -34.8675 -34.8674 -34.8594 -34.8594
   -34.8494 -34.8493 -34.8018 -34.7992 -34.7819 -34.7618 -34.7593 -27.6962
   -27.6956 -27.6935 -27.6930 -27.6885 -27.6879 -27.6841 -27.6834 -27.6812
   -27.6805 -10.5350 -10.0147  -9.0458  -6.5248  -5.5655  -1.4482  -1.0658
    -0.7622  -0.5260  -0.2268   0.0495   0.5872   0.9858   1.4072

     occupation numbers 
     1.0000   1.0000   1.0000   1.0000   1.0000   1.0000   1.0000   1.0000
     1.0000   1.0000   1.0000   1.0000   1.0000   1.0000   1.0000   1.0000
     1.0000   1.0000   1.0000   1.0000   1.0000   1.0000   1.0000   1.0000
     1.0000   1.0000   1.0000   1.0000   1.0000   1.0000   1.0000   1.0000
     1.0000   1.0000   1.0000   1.0000   1.0000   1.0000   1.0000

          k = 0.0476 0.2584 0.0000 ( 15086 PWs)   bands (ev):

   -34.9034 -34.9034 -34.9024 -34.9024 -34.8675 -34.8674 -34.8595 -34.8594
   -34.8493 -34.8492 -34.8018 -34.7993 -34.7819 -34.7617 -34.7592 -27.6963
   -27.6958 -27.6930 -27.6925 -27.6883 -27.6877 -27.6841 -27.6834 -27.6816
   -27.6809 -10.3843  -9.8807  -8.9790  -6.5921  -5.8034  -1.8590  -1.3342
    -0.9650  -0.7479  -0.4860   0.0145   0.5243   0.7486   1.4289

     occupation numbers 
     1.0000   1.0000   1.0000   1.0000   1.0000   1.0000   1.0000   1.0000
     1.0000   1.0000   1.0000   1.0000   1.0000   1.0000   1.0000   1.0000
     1.0000   1.0000   1.0000   1.0000   1.0000   1.0000   1.0000   1.0000
     1.0000   1.0000   1.0000   1.0000   1.0000   1.0000   1.0000   1.0000
     1.0000   1.0000   1.0000   1.0000   1.0000   1.0000   1.0000

          k = 0.0476 0.3162 0.0000 ( 15083 PWs)   bands (ev):

   -34.9034 -34.9034 -34.9023 -34.9022 -34.8675 -34.8674 -34.8595 -34.8595
   -34.8492 -34.8491 -34.8017 -34.7993 -34.7820 -34.7615 -34.7591 -27.6964
   -27.6959 -27.6924 -27.6919 -27.6881 -27.6875 -27.6841 -27.6833 -27.6820
   -27.6813 -10.2002  -9.7206  -8.9090  -6.6971  -6.0725  -2.2388  -1.5446
    -1.1961  -0.9517  -0.6560  -0.0660   0.3868   0.6259   1.3277

     occupation numbers 
     1.0000   1.0000   1.0000   1.0000   1.0000   1.0000   1.0000   1.0000
     1.0000   1.0000   1.0000   1.0000   1.0000   1.0000   1.0000   1.0000
     1.0000   1.0000   1.0000   1.0000   1.0000   1.0000   1.0000   1.0000
     1.0000   1.0000   1.0000   1.0000   1.0000   1.0000   1.0000   1.0000
     1.0000   1.0000   1.0000   1.0000   1.0000   1.0000   1.0000

          k = 0.0476 0.3739 0.0000 ( 15086 PWs)   bands (ev):

   -34.9034 -34.9034 -34.9021 -34.9020 -34.8675 -34.8674 -34.8595 -34.8595
   -34.8491 -34.8490 -34.8017 -34.7993 -34.7820 -34.7614 -34.7590 -27.6965
   -27.6960 -27.6919 -27.6914 -27.6879 -27.6873 -27.6840 -27.6832 -27.6823
   -27.6817  -9.9871  -9.5415  -8.8471  -6.8473  -6.3475  -2.5621  -1.6902
    -1.4337  -1.1317  -0.7568  -0.2231   0.2964   0.5755   1.1480

     occupation numbers 
     1.0000   1.0000   1.0000   1.0000   1.0000   1.0000   1.0000   1.0000
     1.0000   1.0000   1.0000   1.0000   1.0000   1.0000   1.0000   1.0000
     1.0000   1.0000   1.0000   1.0000   1.0000   1.0000   1.0000   1.0000
     1.0000   1.0000   1.0000   1.0000   1.0000   1.0000   1.0000   1.0000
     1.0000   1.0000   1.0000   1.0000   1.0000   1.0000   1.0000

          k = 0.0476 0.4316 0.0000 ( 15086 PWs)   bands (ev):

   -34.9034 -34.9034 -34.9019 -34.9018 -34.8675 -34.8674 -34.8596 -34.8596
   -34.8490 -34.8489 -34.8016 -34.7993 -34.7821 -34.7614 -34.7588 -27.6966
   -27.6961 -27.6914 -27.6909 -27.6877 -27.6872 -27.6839 -27.6831 -27.6827
   -27.6821  -9.7514  -9.3547  -8.8093  -7.0391  -6.5990  -2.8183  -1.7718
    -1.6356  -1.2867  -0.8445  -0.3850   0.2743   0.5461   0.9495

     occupation numbers 
     1.0000   1.0000   1.0000   1.0000   1.0000   1.0000   1.0000   1.0000
     1.0000   1.0000   1.0000   1.0000   1.0000   1.0000   1.0000   1.0000
     1.0000   1.0000   1.0000   1.0000   1.0000   1.0000   1.0000   1.0000
     1.0000   1.0000   1.0000   1.0000   1.0000   1.0000   1.0000   1.0000
     1.0000   1.0000   1.0000   1.0000   1.0000   1.0000   1.0000

          k = 0.0476 0.4894 0.0000 ( 15075 PWs)   bands (ev):

   -34.9034 -34.9034 -34.9018 -34.9017 -34.8675 -34.8674 -34.8596 -34.8596
   -34.8489 -34.8489 -34.8016 -34.7993 -34.7821 -34.7613 -34.7587 -27.6967
   -27.6962 -27.6911 -27.6906 -27.6876 -27.6871 -27.6838 -27.6830 -27.6830
   -27.6824  -9.5038  -9.1794  -8.8163  -7.2428  -6.8027  -3.0038  -1.8189
    -1.7551  -1.4207  -0.9491  -0.4809   0.2878   0.5196   0.7772

     occupation numbers 
     1.0000   1.0000   1.0000   1.0000   1.0000   1.0000   1.0000   1.0000
     1.0000   1.0000   1.0000   1.0000   1.0000   1.0000   1.0000   1.0000
     1.0000   1.0000   1.0000   1.0000   1.0000   1.0000   1.0000   1.0000
     1.0000   1.0000   1.0000   1.0000   1.0000   1.0000   1.0000   1.0000
     1.0000   1.0000   1.0000   1.0000   1.0000   1.0000   1.0000

          k = 0.0476 0.5471 0.0000 ( 15097 PWs)   bands (ev):

   -34.9034 -34.9034 -34.9017 -34.9016 -34.8675 -34.8674 -34.8596 -34.8596
   -34.8489 -34.8488 -34.8016 -34.7993 -34.7821 -34.7613 -34.7587 -27.6968
   -27.6963 -27.6908 -27.6903 -27.6875 -27.6870 -27.6837 -27.6832 -27.6829
   -27.6826  -9.2615  -9.0461  -8.8899  -7.4039  -6.9395  -3.1169  -1.8900
    -1.7392  -1.5367  -1.0416  -0.5160   0.3249   0.4706   0.6728

     occupation numbers 
     1.0000   1.0000   1.0000   1.0000   1.0000   1.0000   1.0000   1.0000
     1.0000   1.0000   1.0000   1.0000   1.0000   1.0000   1.0000   1.0000
     1.0000   1.0000   1.0000   1.0000   1.0000   1.0000   1.0000   1.0000
     1.0000   1.0000   1.0000   1.0000   1.0000   1.0000   1.0000   1.0000
     1.0000   1.0000   1.0000   1.0000   1.0000   1.0000   1.0000

          k = 0.0476 0.6048 0.0000 ( 15087 PWs)   bands (ev):

   -34.9034 -34.9034 -34.9017 -34.9016 -34.8675 -34.8674 -34.8596 -34.8596
   -34.8489 -34.8488 -34.8016 -34.7993 -34.7821 -34.7613 -34.7586 -27.6968
   -27.6963 -27.6907 -27.6903 -27.6875 -27.6869 -27.6837 -27.6832 -27.6829
   -27.6827  -9.0625  -9.0262  -8.9927  -7.4670  -6.9883  -3.1560  -1.9124
    -1.7199  -1.5880  -1.0801  -0.5206   0.3744   0.4028   0.6486

     occupation numbers 
     1.0000   1.0000   1.0000   1.0000   1.0000   1.0000   1.0000   1.0000
     1.0000   1.0000   1.0000   1.0000   1.0000   1.0000   1.0000   1.0000
     1.0000   1.0000   1.0000   1.0000   1.0000   1.0000   1.0000   1.0000
     1.0000   1.0000   1.0000   1.0000   1.0000   1.0000   1.0000   1.0000
     1.0000   1.0000   1.0000   1.0000   1.0000   1.0000   1.0000

          k = 0.0476-0.5499 0.0000 ( 15090 PWs)   bands (ev):

   -34.9034 -34.9034 -34.9017 -34.9016 -34.8675 -34.8674 -34.8596 -34.8596
   -34.8489 -34.8488 -34.8016 -34.7993 -34.7821 -34.7613 -34.7586 -27.6968
   -27.6963 -27.6908 -27.6903 -27.6875 -27.6869 -27.6837 -27.6832 -27.6829
   -27.6827  -9.2514  -9.0408  -8.8942  -7.4070  -6.9381  -3.1202  -1.8749
    -1.7799  -1.5059  -1.0541  -0.5056   0.3542   0.4162   0.6877

     occupation numbers 
     1.0000   1.0000   1.0000   1.0000   1.0000   1.0000   1.0000   1.0000
     1.0000   1.0000   1.0000   1.0000   1.0000   1.0000   1.0000   1.0000
     1.0000   1.0000   1.0000   1.0000   1.0000   1.0000   1.0000   1.0000
     1.0000   1.0000   1.0000   1.0000   1.0000   1.0000   1.0000   1.0000
     1.0000   1.0000   1.0000   1.0000   1.0000   1.0000   1.0000

          k = 0.0476-0.4921 0.0000 ( 15094 PWs)   bands (ev):

   -34.9034 -34.9034 -34.9018 -34.9017 -34.8675 -34.8674 -34.8596 -34.8596
   -34.8489 -34.8489 -34.8016 -34.7993 -34.7821 -34.7614 -34.7586 -27.6968
   -27.6962 -27.6910 -27.6905 -27.6875 -27.6870 -27.6837 -27.6831 -27.6830
   -27.6825  -9.4927  -9.1707  -8.8166  -7.2473  -6.7990  -3.0101  -1.8227
    -1.7746  -1.3830  -0.9811  -0.4587   0.3359   0.4339   0.7918

     occupation numbers 
     1.0000   1.0000   1.0000   1.0000   1.0000   1.0000   1.0000   1.0000
     1.0000   1.0000   1.0000   1.0000   1.0000   1.0000   1.0000   1.0000
     1.0000   1.0000   1.0000   1.0000   1.0000   1.0000   1.0000   1.0000
     1.0000   1.0000   1.0000   1.0000   1.0000   1.0000   1.0000   1.0000
     1.0000   1.0000   1.0000   1.0000   1.0000   1.0000   1.0000

          k = 0.0476-0.4344 0.0000 ( 15102 PWs)   bands (ev):

   -34.9034 -34.9034 -34.9019 -34.9018 -34.8675 -34.8674 -34.8596 -34.8596
   -34.8490 -34.8489 -34.8017 -34.7993 -34.7821 -34.7614 -34.7587 -27.6967
   -27.6962 -27.6914 -27.6909 -27.6875 -27.6870 -27.6838 -27.6831 -27.6829
   -27.6823  -9.7404  -9.3444  -8.8061  -7.0426  -6.5923  -2.8275  -1.7996
    -1.6277  -1.2421  -0.8928  -0.3541   0.3203   0.4619   0.9446

     occupation numbers 
     1.0000   1.0000   1.0000   1.0000   1.0000   1.0000   1.0000   1.0000
     1.0000   1.0000   1.0000   1.0000   1.0000   1.0000   1.0000   1.0000
     1.0000   1.0000   1.0000   1.0000   1.0000   1.0000   1.0000   1.0000
     1.0000   1.0000   1.0000   1.0000   1.0000   1.0000   1.0000   1.0000
     1.0000   1.0000   1.0000   1.0000   1.0000   1.0000   1.0000

          k = 0.0476-0.3767 0.0000 ( 15127 PWs)   bands (ev):

   -34.9034 -34.9034 -34.9021 -34.9020 -34.8675 -34.8674 -34.8596 -34.8596
   -34.8491 -34.8490 -34.8017 -34.7993 -34.7820 -34.7615 -34.7588 -27.6966
   -27.6961 -27.6918 -27.6913 -27.6877 -27.6872 -27.6839 -27.6832 -27.6826
   -27.6820  -9.9768  -9.5310  -8.8418  -6.8479  -6.3379  -2.5744  -1.7058
    -1.4352  -1.0844  -0.8020  -0.1866   0.2999   0.5201   1.1213

     occupation numbers 
     1.0000   1.0000   1.0000   1.0000   1.0000   1.0000   1.0000   1.0000
     1.0000   1.0000   1.0000   1.0000   1.0000   1.0000   1.0000   1.0000
     1.0000   1.0000   1.0000   1.0000   1.0000   1.0000   1.0000   1.0000
     1.0000   1.0000   1.0000   1.0000   1.0000   1.0000   1.0000   1.0000
     1.0000   1.0000   1.0000   1.0000   1.0000   1.0000   1.0000

          k = 0.0476-0.3189 0.0000 ( 15106 PWs)   bands (ev):

   -34.9034 -34.9034 -34.9022 -34.9022 -34.8675 -34.8674 -34.8595 -34.8595
   -34.8492 -34.8491 -34.8018 -34.7993 -34.7820 -34.7616 -34.7589 -27.6965
   -27.6960 -27.6923 -27.6918 -27.6879 -27.6873 -27.6839 -27.6833 -27.6822
   -27.6816 -10.1910  -9.7108  -8.9026  -6.6940  -6.0601  -2.2538  -1.5385
    -1.2126  -0.9128  -0.6851  -0.0135   0.3236   0.5960   1.2896

     occupation numbers 
     1.0000   1.0000   1.0000   1.0000   1.0000   1.0000   1.0000   1.0000
     1.0000   1.0000   1.0000   1.0000   1.0000   1.0000   1.0000   1.0000
     1.0000   1.0000   1.0000   1.0000   1.0000   1.0000   1.0000   1.0000
     1.0000   1.0000   1.0000   1.0000   1.0000   1.0000   1.0000   1.0000
     1.0000   1.0000   1.0000   1.0000   1.0000   1.0000   1.0000

          k = 0.0476-0.2612 0.0000 ( 15110 PWs)   bands (ev):

   -34.9034 -34.9034 -34.9024 -34.9024 -34.8675 -34.8674 -34.8595 -34.8595
   -34.8493 -34.8492 -34.8018 -34.7993 -34.7819 -34.7618 -34.7590 -27.6964
   -27.6958 -27.6928 -27.6923 -27.6881 -27.6876 -27.6840 -27.6833 -27.6818
   -27.6812 -10.3764  -9.8722  -8.9727  -6.5865  -5.7888  -1.8733  -1.3058
    -0.9764  -0.7317  -0.5126   0.0533   0.4615   0.6960   1.3985

     occupation numbers 
     1.0000   1.0000   1.0000   1.0000   1.0000   1.0000   1.0000   1.0000
     1.0000   1.0000   1.0000   1.0000   1.0000   1.0000   1.0000   1.0000
     1.0000   1.0000   1.0000   1.0000   1.0000   1.0000   1.0000   1.0000
     1.0000   1.0000   1.0000   1.0000   1.0000   1.0000   1.0000   1.0000
     1.0000   1.0000   1.0000   1.0000   1.0000   1.0000   1.0000

          k = 0.0476-0.2034 0.0000 ( 15096 PWs)   bands (ev):

   -34.9034 -34.9033 -34.9026 -34.9025 -34.8675 -34.8674 -34.8595 -34.8594
   -34.8494 -34.8493 -34.8019 -34.7992 -34.7819 -34.7619 -34.7592 -27.6963
   -27.6957 -27.6933 -27.6928 -27.6883 -27.6878 -27.6840 -27.6834 -27.6814
   -27.6808 -10.5287 -10.0077  -9.0402  -6.5184  -5.5502  -1.4503  -1.0273
    -0.7267  -0.5438  -0.2902   0.0572   0.5550   0.9005   1.3969

     occupation numbers 
     1.0000   1.0000   1.0000   1.0000   1.0000   1.0000   1.0000   1.0000
     1.0000   1.0000   1.0000   1.0000   1.0000   1.0000   1.0000   1.0000
     1.0000   1.0000   1.0000   1.0000   1.0000   1.0000   1.0000   1.0000
     1.0000   1.0000   1.0000   1.0000   1.0000   1.0000   1.0000   1.0000
     1.0000   1.0000   1.0000   1.0000   1.0000   1.0000   1.0000

          k = 0.0476-0.1457 0.0000 ( 15102 PWs)   bands (ev):

   -34.9034 -34.9033 -34.9028 -34.9027 -34.8675 -34.8673 -34.8594 -34.8594
   -34.8495 -34.8494 -34.8019 -34.7992 -34.7818 -34.7619 -34.7593 -27.6962
   -27.6956 -27.6938 -27.6932 -27.6885 -27.6880 -27.6840 -27.6835 -27.6810
   -27.6804 -10.6451 -10.1128  -9.0972  -6.4794  -5.3623  -1.0221  -0.7354
    -0.4321  -0.3716  -0.1036   0.1275   0.5431   1.1211   1.3002

     occupation numbers 
     1.0000   1.0000   1.0000   1.0000   1.0000   1.0000   1.0000   1.0000
     1.0000   1.0000   1.0000   1.0000   1.0000   1.0000   1.0000   1.0000
     1.0000   1.0000   1.0000   1.0000   1.0000   1.0000   1.0000   1.0000
     1.0000   1.0000   1.0000   1.0000   1.0000   1.0000   1.0000   1.0000
     1.0000   1.0000   1.0000   1.0000   1.0000   1.0000   1.0000

          k = 0.0476-0.0880 0.0000 ( 15123 PWs)   bands (ev):

   -34.9034 -34.9033 -34.9029 -34.9028 -34.8675 -34.8673 -34.8594 -34.8594
   -34.8495 -34.8495 -34.8019 -34.7992 -34.7818 -34.7620 -34.7593 -27.6961
   -27.6956 -27.6941 -27.6936 -27.6887 -27.6882 -27.6840 -27.6835 -27.6807
   -27.6802 -10.7239 -10.1847  -9.1384  -6.4599  -5.2351  -0.6677  -0.4412
    -0.2763  -0.0849  -0.0360   0.3200   0.5376   0.9994   1.3015

     occupation numbers 
     1.0000   1.0000   1.0000   1.0000   1.0000   1.0000   1.0000   1.0000
     1.0000   1.0000   1.0000   1.0000   1.0000   1.0000   1.0000   1.0000
     1.0000   1.0000   1.0000   1.0000   1.0000   1.0000   1.0000   1.0000
     1.0000   1.0000   1.0000   1.0000   1.0000   1.0000   1.0000   1.0000
     1.0000   1.0000   1.0000   1.0000   1.0000   1.0000   1.0000

          k = 0.0476-0.0302 0.0000 ( 15117 PWs)   bands (ev):

   -34.9034 -34.9034 -34.9029 -34.9029 -34.8675 -34.8673 -34.8594 -34.8594
   -34.8496 -34.8495 -34.8019 -34.7992 -34.7818 -34.7620 -34.7594 -27.6960
   -27.6955 -27.6943 -27.6937 -27.6888 -27.6883 -27.6840 -27.6835 -27.6806
   -27.6800 -10.7640 -10.2215  -9.1602  -6.4527  -5.1729  -0.4775  -0.2968
    -0.2019   0.0778   0.1481   0.4434   0.6680   0.8076   1.1551

     occupation numbers 
     1.0000   1.0000   1.0000   1.0000   1.0000   1.0000   1.0000   1.0000
     1.0000   1.0000   1.0000   1.0000   1.0000   1.0000   1.0000   1.0000
     1.0000   1.0000   1.0000   1.0000   1.0000   1.0000   1.0000   1.0000
     1.0000   1.0000   1.0000   1.0000   1.0000   1.0000   1.0000   1.0000
     1.0000   1.0000   1.0000   1.0000   1.0000   1.0000   1.0000

          k = 0.0952 0.0550 0.0000 ( 15085 PWs)   bands (ev):

   -34.9034 -34.9033 -34.9029 -34.9028 -34.8675 -34.8673 -34.8594 -34.8594
   -34.8495 -34.8495 -34.8019 -34.7992 -34.7818 -34.7620 -34.7594 -27.6959
   -27.6954 -27.6943 -27.6938 -27.6888 -27.6882 -27.6841 -27.6836 -27.6806
   -27.6800 -10.7115 -10.1747  -9.1347  -6.4738  -5.2898  -0.9205  -0.6356
    -0.2105  -0.1183   0.1220   0.1799   0.8865   1.0086   1.2884

     occupation numbers 
     1.0000   1.0000   1.0000   1.0000   1.0000   1.0000   1.0000   1.0000
     1.0000   1.0000   1.0000   1.0000   1.0000   1.0000   1.0000   1.0000
     1.0000   1.0000   1.0000   1.0000   1.0000   1.0000   1.0000   1.0000
     1.0000   1.0000   1.0000   1.0000   1.0000   1.0000   1.0000   1.0000
     1.0000   1.0000   1.0000   1.0000   1.0000   1.0000   1.0000

          k = 0.0952 0.1127 0.0000 ( 15102 PWs)   bands (ev):

   -34.9034 -34.9033 -34.9028 -34.9027 -34.8675 -34.8674 -34.8594 -34.8594
   -34.8495 -34.8494 -34.8019 -34.7992 -34.7818 -34.7619 -34.7594 -27.6959
   -27.6954 -27.6941 -27.6936 -27.6887 -27.6882 -27.6841 -27.6835 -27.6807
   -27.6801 -10.6550 -10.1238  -9.1066  -6.4924  -5.3913  -1.1751  -0.7542
    -0.5196  -0.1810   0.0055   0.1636   0.7219   1.1880   1.2950

     occupation numbers 
     1.0000   1.0000   1.0000   1.0000   1.0000   1.0000   1.0000   1.0000
     1.0000   1.0000   1.0000   1.0000   1.0000   1.0000   1.0000   1.0000
     1.0000   1.0000   1.0000   1.0000   1.0000   1.0000   1.0000   1.0000
     1.0000   1.0000   1.0000   1.0000   1.0000   1.0000   1.0000   1.0000
     1.0000   1.0000   1.0000   1.0000   1.0000   1.0000   1.0000

          k = 0.0952 0.1705 0.0000 ( 15092 PWs)   bands (ev):

   -34.9034 -34.9033 -34.9027 -34.9026 -34.8675 -34.8674 -34.8594 -34.8594
   -34.8494 -34.8494 -34.8018 -34.7993 -34.7818 -34.7618 -34.7594 -27.6960
   -27.6955 -27.6938 -27.6933 -27.6886 -27.6880 -27.6842 -27.6835 -27.6809
   -27.6803 -10.5603 -10.0387  -9.0608  -6.5262  -5.5515  -1.4319  -1.0493
    -0.7977  -0.3914  -0.0917   0.1266   0.5153   1.1733   1.4279

     occupation numbers 
     1.0000   1.0000   1.0000   1.0000   1.0000   1.0000   1.0000   1.0000
     1.0000   1.0000   1.0000   1.0000   1.0000   1.0000   1.0000   1.0000
     1.0000   1.0000   1.0000   1.0000   1.0000   1.0000   1.0000   1.0000
     1.0000   1.0000   1.0000   1.0000   1.0000   1.0000   1.0000   1.0000
     1.0000   1.0000   1.0000   1.0000   1.0000   1.0000   1.0000

          k = 0.0952 0.2282 0.0000 ( 15098 PWs)   bands (ev):

   -34.9034 -34.9033 -34.9025 -34.9025 -34.8675 -34.8674 -34.8594 -34.8594
   -34.8494 -34.8493 -34.8018 -34.7993 -34.7819 -34.7617 -34.7593 -27.6961
   -27.6956 -27.6934 -27.6928 -27.6884 -27.6878 -27.6842 -27.6835 -27.6813
   -27.6806 -10.4289  -9.9217  -9.0013  -6.5819  -5.7635  -1.6939  -1.4571
    -0.9060  -0.6770  -0.2674  -0.0492   0.5006   1.0557   1.4327

     occupation numbers 
     1.0000   1.0000   1.0000   1.0000   1.0000   1.0000   1.0000   1.0000
     1.0000   1.0000   1.0000   1.0000   1.0000   1.0000   1.0000   1.0000
     1.0000   1.0000   1.0000   1.0000   1.0000   1.0000   1.0000   1.0000
     1.0000   1.0000   1.0000   1.0000   1.0000   1.0000   1.0000   1.0000
     1.0000   1.0000   1.0000   1.0000   1.0000   1.0000   1.0000

          k = 0.0952 0.2859 0.0000 ( 15073 PWs)   bands (ev):

   -34.9034 -34.9033 -34.9024 -34.9023 -34.8675 -34.8674 -34.8595 -34.8595
   -34.8493 -34.8492 -34.8017 -34.7993 -34.7819 -34.7615 -34.7592 -27.6962
   -27.6957 -27.6929 -27.6923 -27.6882 -27.6877 -27.6842 -27.6834 -27.6816
   -27.6809 -10.2627  -9.7762  -8.9342  -6.6679  -6.0151  -2.0262  -1.7156
    -1.0204  -0.9678  -0.5243  -0.1601   0.5282   0.8330   1.3745

     occupation numbers 
     1.0000   1.0000   1.0000   1.0000   1.0000   1.0000   1.0000   1.0000
     1.0000   1.0000   1.0000   1.0000   1.0000   1.0000   1.0000   1.0000
     1.0000   1.0000   1.0000   1.0000   1.0000   1.0000   1.0000   1.0000
     1.0000   1.0000   1.0000   1.0000   1.0000   1.0000   1.0000   1.0000
     1.0000   1.0000   1.0000   1.0000   1.0000   1.0000   1.0000

          k = 0.0952 0.3437 0.0000 ( 15064 PWs)   bands (ev):

   -34.9034 -34.9033 -34.9022 -34.9021 -34.8675 -34.8674 -34.8595 -34.8595
   -34.8492 -34.8491 -34.8017 -34.7993 -34.7820 -34.7614 -34.7591 -27.6963
   -27.6958 -27.6923 -27.6918 -27.6881 -27.6875 -27.6841 -27.6833 -27.6820
   -27.6813 -10.0653  -9.6078  -8.8684  -6.7919  -6.2873  -2.3723  -1.8452
[...]
     1.0000   1.0000   1.0000   1.0000   1.0000   1.0000   1.0000   1.0000
     1.0000   1.0000   1.0000   1.0000   1.0000   1.0000   1.0000   1.0000
     1.0000   1.0000   1.0000   1.0000   1.0000   1.0000   1.0000

          k = 0.4762 0.3327 0.0000 ( 15065 PWs)   bands (ev):

   -34.9031 -34.9030 -34.9022 -34.9022 -34.8676 -34.8675 -34.8594 -34.8594
   -34.8492 -34.8491 -34.8014 -34.7994 -34.7819 -34.7613 -34.7592 -27.6949
   -27.6945 -27.6939 -27.6935 -27.6884 -27.6877 -27.6849 -27.6841 -27.6807
   -27.6798  -9.1934  -9.1721  -9.1363  -7.5372  -6.9754  -3.1356  -1.7804
    -1.7446  -1.3694  -0.7643  -0.4170   0.4827   0.7285   1.0269

     occupation numbers 
     1.0000   1.0000   1.0000   1.0000   1.0000   1.0000   1.0000   1.0000
     1.0000   1.0000   1.0000   1.0000   1.0000   1.0000   1.0000   1.0000
     1.0000   1.0000   1.0000   1.0000   1.0000   1.0000   1.0000   1.0000
     1.0000   1.0000   1.0000   1.0000   1.0000   1.0000   1.0000   1.0000
     1.0000   1.0000   1.0000   1.0000   1.0000   1.0000   1.0000

          k = 0.4762 0.3904 0.0000 ( 15039 PWs)   bands (ev):

   -34.9031 -34.9030 -34.9023 -34.9022 -34.8676 -34.8675 -34.8594 -34.8594
   -34.8492 -34.8491 -34.8014 -34.7994 -34.7819 -34.7614 -34.7592 -27.6948
   -27.6944 -27.6939 -27.6935 -27.6885 -27.6877 -27.6849 -27.6841 -27.6808
   -27.6799  -9.2525  -9.1333  -9.0506  -7.5256  -7.0224  -3.0849  -1.8901
    -1.7689  -1.4621  -0.8777  -0.4665   0.4724   0.6915   1.2100

     occupation numbers 
     1.0000   1.0000   1.0000   1.0000   1.0000   1.0000   1.0000   1.0000
     1.0000   1.0000   1.0000   1.0000   1.0000   1.0000   1.0000   1.0000
     1.0000   1.0000   1.0000   1.0000   1.0000   1.0000   1.0000   1.0000
     1.0000   1.0000   1.0000   1.0000   1.0000   1.0000   1.0000   1.0000
     1.0000   1.0000   1.0000   1.0000   1.0000   1.0000   1.0000

          k = 0.4762 0.4481 0.0000 ( 15038 PWs)   bands (ev):

   -34.9030 -34.9029 -34.9023 -34.9022 -34.8676 -34.8675 -34.8595 -34.8594
   -34.8491 -34.8491 -34.8014 -34.7994 -34.7819 -34.7614 -34.7591 -27.6948
   -27.6943 -27.6938 -27.6933 -27.6885 -27.6878 -27.6848 -27.6840 -27.6810
   -27.6801  -9.3061  -9.1170  -8.9423  -7.4898  -7.0842  -2.9936  -2.0463
    -1.8571  -1.5130  -0.9225  -0.6460   0.4583   0.7773   1.3167

     occupation numbers 
     1.0000   1.0000   1.0000   1.0000   1.0000   1.0000   1.0000   1.0000
     1.0000   1.0000   1.0000   1.0000   1.0000   1.0000   1.0000   1.0000
     1.0000   1.0000   1.0000   1.0000   1.0000   1.0000   1.0000   1.0000
     1.0000   1.0000   1.0000   1.0000   1.0000   1.0000   1.0000   1.0000
     1.0000   1.0000   1.0000   1.0000   1.0000   1.0000   1.0000

          k = 0.4762 0.5059 0.0000 ( 15036 PWs)   bands (ev):

   -34.9029 -34.9028 -34.9024 -34.9023 -34.8676 -34.8675 -34.8595 -34.8595
   -34.8491 -34.8490 -34.8014 -34.7994 -34.7819 -34.7614 -34.7590 -27.6948
   -27.6943 -27.6935 -27.6930 -27.6885 -27.6878 -27.6847 -27.6840 -27.6811
   -27.6804  -9.3409  -9.1034  -8.8521  -7.4340  -7.1572  -2.8683  -2.2793
    -1.8735  -1.5382  -1.0411  -0.7493   0.4701   0.9006   1.2645

     occupation numbers 
     1.0000   1.0000   1.0000   1.0000   1.0000   1.0000   1.0000   1.0000
     1.0000   1.0000   1.0000   1.0000   1.0000   1.0000   1.0000   1.0000
     1.0000   1.0000   1.0000   1.0000   1.0000   1.0000   1.0000   1.0000
     1.0000   1.0000   1.0000   1.0000   1.0000   1.0000   1.0000   1.0000
     1.0000   1.0000   1.0000   1.0000   1.0000   1.0000   1.0000

          k = 0.4762 0.5636 0.0000 ( 15047 PWs)   bands (ev):

   -34.9029 -34.9028 -34.9024 -34.9023 -34.8676 -34.8675 -34.8595 -34.8595
   -34.8491 -34.8490 -34.8014 -34.7994 -34.7820 -34.7615 -34.7589 -27.6950
   -27.6944 -27.6932 -27.6927 -27.6884 -27.6878 -27.6847 -27.6840 -27.6813
   -27.6807  -9.3543  -9.0901  -8.7944  -7.3669  -7.2325  -2.7114  -2.5136
    -1.8569  -1.4924  -1.2870  -0.7062   0.4812   0.9745   1.1614

     occupation numbers 
     1.0000   1.0000   1.0000   1.0000   1.0000   1.0000   1.0000   1.0000
     1.0000   1.0000   1.0000   1.0000   1.0000   1.0000   1.0000   1.0000
     1.0000   1.0000   1.0000   1.0000   1.0000   1.0000   1.0000   1.0000
     1.0000   1.0000   1.0000   1.0000   1.0000   1.0000   1.0000   1.0000
     1.0000   1.0000   1.0000   1.0000   1.0000   1.0000   1.0000

          k = 0.4762 0.6213 0.0000 ( 15076 PWs)   bands (ev):

   -34.9029 -34.9028 -34.9023 -34.9023 -34.8676 -34.8674 -34.8595 -34.8595
   -34.8490 -34.8490 -34.8014 -34.7994 -34.7820 -34.7616 -34.7587 -27.6952
   -27.6946 -27.6929 -27.6924 -27.6883 -27.6877 -27.6846 -27.6840 -27.6814
   -27.6809  -9.3452  -9.0767  -8.7794  -7.3436  -7.2536  -2.7161  -2.5185
    -1.8698  -1.5069  -1.3010  -0.6989   0.4534   0.9558   1.1399

     occupation numbers 
     1.0000   1.0000   1.0000   1.0000   1.0000   1.0000   1.0000   1.0000
     1.0000   1.0000   1.0000   1.0000   1.0000   1.0000   1.0000   1.0000
     1.0000   1.0000   1.0000   1.0000   1.0000   1.0000   1.0000   1.0000
     1.0000   1.0000   1.0000   1.0000   1.0000   1.0000   1.0000   1.0000
     1.0000   1.0000   1.0000   1.0000   1.0000   1.0000   1.0000

          k = 0.4762 0.6791 0.0000 ( 15110 PWs)   bands (ev):

   -34.9030 -34.9029 -34.9023 -34.9022 -34.8676 -34.8674 -34.8596 -34.8595
   -34.8490 -34.8489 -34.8015 -34.7994 -34.7820 -34.7617 -34.7585 -27.6954
   -27.6949 -27.6927 -27.6922 -27.6881 -27.6876 -27.6845 -27.6839 -27.6815
   -27.6810  -9.3139  -9.0640  -8.8103  -7.4034  -7.1802  -2.8775  -2.2910
    -1.9224  -1.5760  -1.0592  -0.7642   0.4035   0.8603   1.1760

     occupation numbers 
     1.0000   1.0000   1.0000   1.0000   1.0000   1.0000   1.0000   1.0000
     1.0000   1.0000   1.0000   1.0000   1.0000   1.0000   1.0000   1.0000
     1.0000   1.0000   1.0000   1.0000   1.0000   1.0000   1.0000   1.0000
     1.0000   1.0000   1.0000   1.0000   1.0000   1.0000   1.0000   1.0000
     1.0000   1.0000   1.0000   1.0000   1.0000   1.0000   1.0000

          k = 0.4762 0.7368 0.0000 ( 15117 PWs)   bands (ev):

   -34.9030 -34.9029 -34.9022 -34.9021 -34.8676 -34.8674 -34.8596 -34.8596
   -34.8490 -34.8489 -34.8015 -34.7994 -34.7820 -34.7618 -34.7584 -27.6956
   -27.6951 -27.6926 -27.6921 -27.6879 -27.6874 -27.6844 -27.6839 -27.6816
   -27.6810  -9.2623  -9.0550  -8.8814  -7.4581  -7.1006  -3.0031  -2.0420
    -1.9496  -1.5732  -0.8973  -0.7616   0.3786   0.7131   1.1585

     occupation numbers 
     1.0000   1.0000   1.0000   1.0000   1.0000   1.0000   1.0000   1.0000
     1.0000   1.0000   1.0000   1.0000   1.0000   1.0000   1.0000   1.0000
     1.0000   1.0000   1.0000   1.0000   1.0000   1.0000   1.0000   1.0000
     1.0000   1.0000   1.0000   1.0000   1.0000   1.0000   1.0000   1.0000
     1.0000   1.0000   1.0000   1.0000   1.0000   1.0000   1.0000

          k = 0.4762 0.7946 0.0000 ( 15096 PWs)   bands (ev):

   -34.9031 -34.9030 -34.9021 -34.9021 -34.8676 -34.8674 -34.8596 -34.8596
   -34.8490 -34.8489 -34.8015 -34.7993 -34.7821 -34.7619 -34.7583 -27.6958
   -27.6953 -27.6925 -27.6921 -27.6878 -27.6873 -27.6844 -27.6838 -27.6816
   -27.6810  -9.1939  -9.0536  -8.9808  -7.4931  -7.0307  -3.0933  -1.9181
    -1.7967  -1.5656  -0.9675  -0.5471   0.3958   0.5778   1.0224

     occupation numbers 
     1.0000   1.0000   1.0000   1.0000   1.0000   1.0000   1.0000   1.0000
     1.0000   1.0000   1.0000   1.0000   1.0000   1.0000   1.0000   1.0000
     1.0000   1.0000   1.0000   1.0000   1.0000   1.0000   1.0000   1.0000
     1.0000   1.0000   1.0000   1.0000   1.0000   1.0000   1.0000   1.0000
     1.0000   1.0000   1.0000   1.0000   1.0000   1.0000   1.0000

          k = 0.4762 0.8523 0.0000 ( 15113 PWs)   bands (ev):

   -34.9031 -34.9030 -34.9021 -34.9020 -34.8676 -34.8674 -34.8596 -34.8596
   -34.8490 -34.8489 -34.8015 -34.7993 -34.7821 -34.7619 -34.7582 -27.6959
   -27.6954 -27.6925 -27.6920 -27.6877 -27.6872 -27.6844 -27.6838 -27.6817
   -27.6810  -9.1153  -9.0963  -9.0605  -7.5030  -6.9769  -3.1432  -1.8200
    -1.6895  -1.5390  -0.9645  -0.4474   0.4349   0.5196   0.8632

     occupation numbers 
     1.0000   1.0000   1.0000   1.0000   1.0000   1.0000   1.0000   1.0000
     1.0000   1.0000   1.0000   1.0000   1.0000   1.0000   1.0000   1.0000
     1.0000   1.0000   1.0000   1.0000   1.0000   1.0000   1.0000   1.0000
     1.0000   1.0000   1.0000   1.0000   1.0000   1.0000   1.0000   1.0000
     1.0000   1.0000   1.0000   1.0000   1.0000   1.0000   1.0000

          k = 0.4762-0.3024 0.0000 ( 15104 PWs)   bands (ev):

   -34.9031 -34.9030 -34.9021 -34.9020 -34.8676 -34.8674 -34.8596 -34.8596
   -34.8490 -34.8489 -34.8015 -34.7993 -34.7821 -34.7619 -34.7582 -27.6959
   -27.6954 -27.6925 -27.6921 -27.6877 -27.6872 -27.6844 -27.6838 -27.6816
   -27.6810  -9.2142  -9.0834  -9.0272  -7.4854  -6.9431  -3.1470  -1.7988
    -1.6368  -1.5064  -0.9373  -0.4355   0.4382   0.5325   0.8107

     occupation numbers 
     1.0000   1.0000   1.0000   1.0000   1.0000   1.0000   1.0000   1.0000
     1.0000   1.0000   1.0000   1.0000   1.0000   1.0000   1.0000   1.0000
     1.0000   1.0000   1.0000   1.0000   1.0000   1.0000   1.0000   1.0000
     1.0000   1.0000   1.0000   1.0000   1.0000   1.0000   1.0000   1.0000
     1.0000   1.0000   1.0000   1.0000   1.0000   1.0000   1.0000

          k = 0.4762-0.2447 0.0000 ( 15111 PWs)   bands (ev):

   -34.9031 -34.9030 -34.9021 -34.9021 -34.8676 -34.8674 -34.8596 -34.8596
   -34.8490 -34.8489 -34.8015 -34.7993 -34.7821 -34.7619 -34.7583 -27.6958
   -27.6954 -27.6926 -27.6921 -27.6878 -27.6872 -27.6844 -27.6839 -27.6816
   -27.6810  -9.3235  -9.1136  -8.9450  -7.4417  -6.9316  -3.1044  -1.8509
    -1.5979  -1.5456  -0.9282  -0.4506   0.3977   0.5882   0.8784

     occupation numbers 
     1.0000   1.0000   1.0000   1.0000   1.0000   1.0000   1.0000   1.0000
     1.0000   1.0000   1.0000   1.0000   1.0000   1.0000   1.0000   1.0000
     1.0000   1.0000   1.0000   1.0000   1.0000   1.0000   1.0000   1.0000
     1.0000   1.0000   1.0000   1.0000   1.0000   1.0000   1.0000   1.0000
     1.0000   1.0000   1.0000   1.0000   1.0000   1.0000   1.0000

          k = 0.4762-0.1870 0.0000 ( 15111 PWs)   bands (ev):

   -34.9031 -34.9030 -34.9022 -34.9021 -34.8676 -34.8674 -34.8596 -34.8596
   -34.8490 -34.8489 -34.8015 -34.7993 -34.7820 -34.7619 -34.7584 -27.6957
   -27.6952 -27.6926 -27.6922 -27.6879 -27.6874 -27.6845 -27.6839 -27.6815
   -27.6809  -9.4175  -9.1484  -8.8738  -7.3768  -6.9436  -3.0193  -1.8644
    -1.7846  -1.5478  -0.8730  -0.5330   0.3421   0.6686   1.0707

     occupation numbers 
     1.0000   1.0000   1.0000   1.0000   1.0000   1.0000   1.0000   1.0000
     1.0000   1.0000   1.0000   1.0000   1.0000   1.0000   1.0000   1.0000
     1.0000   1.0000   1.0000   1.0000   1.0000   1.0000   1.0000   1.0000
     1.0000   1.0000   1.0000   1.0000   1.0000   1.0000   1.0000   1.0000
     1.0000   1.0000   1.0000   1.0000   1.0000   1.0000   1.0000

          k = 0.4762-0.1292 0.0000 ( 15098 PWs)   bands (ev):

   -34.9030 -34.9029 -34.9023 -34.9022 -34.8676 -34.8674 -34.8595 -34.8595
   -34.8490 -34.8490 -34.8015 -34.7994 -34.7820 -34.7618 -34.7585 -27.6955
   -27.6950 -27.6928 -27.6923 -27.6881 -27.6875 -27.6845 -27.6840 -27.6814
   -27.6809  -9.4907  -9.1820  -8.8216  -7.2998  -6.9778  -2.8960  -2.0607
    -1.7704  -1.5931  -0.8586  -0.6605   0.3873   0.7727   1.2196

     occupation numbers 
     1.0000   1.0000   1.0000   1.0000   1.0000   1.0000   1.0000   1.0000
     1.0000   1.0000   1.0000   1.0000   1.0000   1.0000   1.0000   1.0000
     1.0000   1.0000   1.0000   1.0000   1.0000   1.0000   1.0000   1.0000
     1.0000   1.0000   1.0000   1.0000   1.0000   1.0000   1.0000   1.0000
     1.0000   1.0000   1.0000   1.0000   1.0000   1.0000   1.0000

          k = 0.4762-0.0715 0.0000 ( 15088 PWs)   bands (ev):

   -34.9029 -34.9028 -34.9024 -34.9023 -34.8676 -34.8674 -34.8595 -34.8595
   -34.8491 -34.8490 -34.8015 -34.7994 -34.7820 -34.7617 -34.7587 -27.6953
   -27.6947 -27.6930 -27.6925 -27.6883 -27.6877 -27.6846 -27.6840 -27.6813
   -27.6808  -9.5396  -9.2093  -8.7939  -7.2267  -7.0251  -2.7352  -2.3137
    -1.7031  -1.5386  -1.0791  -0.6431   0.5156   0.8838   1.2054

     occupation numbers 
     1.0000   1.0000   1.0000   1.0000   1.0000   1.0000   1.0000   1.0000
     1.0000   1.0000   1.0000   1.0000   1.0000   1.0000   1.0000   1.0000
     1.0000   1.0000   1.0000   1.0000   1.0000   1.0000   1.0000   1.0000
     1.0000   1.0000   1.0000   1.0000   1.0000   1.0000   1.0000   1.0000
     1.0000   1.0000   1.0000   1.0000   1.0000   1.0000   1.0000

          k = 0.4762-0.0137 0.0000 ( 15057 PWs)   bands (ev):

   -34.9029 -34.9028 -34.9025 -34.9024 -34.8676 -34.8674 -34.8595 -34.8595
   -34.8491 -34.8490 -34.8015 -34.7994 -34.7819 -34.7616 -34.7588 -27.6950
   -27.6945 -27.6933 -27.6928 -27.6884 -27.6878 -27.6847 -27.6840 -27.6811
   -27.6806  -9.5619  -9.2268  -8.7932  -7.2020  -7.0462  -2.5760  -2.4998
    -1.6886  -1.3746  -1.2821  -0.6242   0.5991   0.9814   1.1390

     occupation numbers 
     1.0000   1.0000   1.0000   1.0000   1.0000   1.0000   1.0000   1.0000
     1.0000   1.0000   1.0000   1.0000   1.0000   1.0000   1.0000   1.0000
     1.0000   1.0000   1.0000   1.0000   1.0000   1.0000   1.0000   1.0000
     1.0000   1.0000   1.0000   1.0000   1.0000   1.0000   1.0000   1.0000
     1.0000   1.0000   1.0000   1.0000   1.0000   1.0000   1.0000

          k = 0.4762 0.0440 0.0000 ( 15054 PWs)   bands (ev):

   -34.9029 -34.9028 -34.9024 -34.9024 -34.8676 -34.8675 -34.8595 -34.8594
   -34.8491 -34.8491 -34.8014 -34.7994 -34.7819 -34.7615 -34.7590 -27.6949
   -27.6943 -27.6936 -27.6931 -27.6885 -27.6878 -27.6848 -27.6841 -27.6810
   -27.6803  -9.5568  -9.2329  -8.8190  -7.2582  -7.0094  -2.7431  -2.2889
    -1.6599  -1.5359  -1.0554  -0.6187   0.5519   0.9187   1.2707

     occupation numbers 
     1.0000   1.0000   1.0000   1.0000   1.0000   1.0000   1.0000   1.0000
     1.0000   1.0000   1.0000   1.0000   1.0000   1.0000   1.0000   1.0000
     1.0000   1.0000   1.0000   1.0000   1.0000   1.0000   1.0000   1.0000
     1.0000   1.0000   1.0000   1.0000   1.0000   1.0000   1.0000   1.0000
     1.0000   1.0000   1.0000   1.0000   1.0000   1.0000   1.0000

          k = 0.4762 0.1017 0.0000 ( 15030 PWs)   bands (ev):

   -34.9030 -34.9029 -34.9024 -34.9023 -34.8676 -34.8675 -34.8594 -34.8594
   -34.8492 -34.8491 -34.8014 -34.7994 -34.7819 -34.7615 -34.7591 -27.6948
   -27.6942 -27.6939 -27.6934 -27.6885 -27.6878 -27.6848 -27.6841 -27.6809
   -27.6801  -9.5246  -9.2277  -8.8684  -7.3399  -6.9665  -2.8977  -2.0489
    -1.7140  -1.5220  -0.8831  -0.5505   0.4621   0.8205   1.3607

     occupation numbers 
     1.0000   1.0000   1.0000   1.0000   1.0000   1.0000   1.0000   1.0000
     1.0000   1.0000   1.0000   1.0000   1.0000   1.0000   1.0000   1.0000
     1.0000   1.0000   1.0000   1.0000   1.0000   1.0000   1.0000   1.0000
     1.0000   1.0000   1.0000   1.0000   1.0000   1.0000   1.0000   1.0000
     1.0000   1.0000   1.0000   1.0000   1.0000   1.0000   1.0000

          k = 0.4762 0.1595 0.0000 ( 15027 PWs)   bands (ev):

   -34.9031 -34.9030 -34.9023 -34.9023 -34.8676 -34.8675 -34.8594 -34.8594
   -34.8492 -34.8491 -34.8014 -34.7994 -34.7819 -34.7614 -34.7592 -27.6948
   -27.6943 -27.6940 -27.6935 -27.6885 -27.6878 -27.6849 -27.6841 -27.6807
   -27.6799  -9.4666  -9.2135  -8.9361  -7.4183  -6.9398  -3.0176  -1.9029
    -1.6899  -1.4366  -0.8210  -0.4338   0.4390   0.7480   1.2534

     occupation numbers 
     1.0000   1.0000   1.0000   1.0000   1.0000   1.0000   1.0000   1.0000
     1.0000   1.0000   1.0000   1.0000   1.0000   1.0000   1.0000   1.0000
     1.0000   1.0000   1.0000   1.0000   1.0000   1.0000   1.0000   1.0000
     1.0000   1.0000   1.0000   1.0000   1.0000   1.0000   1.0000   1.0000
     1.0000   1.0000   1.0000   1.0000   1.0000   1.0000   1.0000

          k = 0.4762 0.2172 0.0000 ( 15036 PWs)   bands (ev):

   -34.9031 -34.9030 -34.9023 -34.9022 -34.8676 -34.8675 -34.8594 -34.8594
   -34.8492 -34.8491 -34.8014 -34.7994 -34.7819 -34.7614 -34.7592 -27.6949
   -27.6945 -27.6940 -27.6936 -27.6885 -27.6877 -27.6849 -27.6841 -27.6807
   -27.6798  -9.3858  -9.1934  -9.0152  -7.4814  -6.9328  -3.1003  -1.8607
    -1.6170  -1.3596  -0.7397  -0.4157   0.4749   0.7559   1.0463

     occupation numbers 
     1.0000   1.0000   1.0000   1.0000   1.0000   1.0000   1.0000   1.0000
     1.0000   1.0000   1.0000   1.0000   1.0000   1.0000   1.0000   1.0000
     1.0000   1.0000   1.0000   1.0000   1.0000   1.0000   1.0000   1.0000
     1.0000   1.0000   1.0000   1.0000   1.0000   1.0000   1.0000   1.0000
     1.0000   1.0000   1.0000   1.0000   1.0000   1.0000   1.0000

     highest occupied level (ev):     1.5380

!    total energy              =    -806.51557061 Ry
     estimated scf accuracy    <       0.00000002 Ry

     The total energy is the sum of the following terms:
     one-electron contribution =   -3367.89760460 Ry
     hartree contribution      =    1678.34181793 Ry
     xc contribution           =     -87.11111739 Ry
     ewald contribution        =     970.15133345 Ry

     convergence has been achieved in  12 iterations

     Writing all to output data dir tmp/Sb2Te3-uatsx-c1-5.0.save/ :
     XML data file, charge density, pseudopotentials, collected wavefunctions

     init_run     :      8.83s CPU      5.11s WALL (       1 calls)
     electrons    :    431.15s CPU    221.42s WALL (       1 calls)

     Called by init_run:
     wfcinit      :      7.64s CPU      3.92s WALL (       1 calls)
     wfcinit:wfcr :      6.97s CPU      3.55s WALL (     221 calls)
     potinit      :      0.48s CPU      0.46s WALL (       1 calls)
     hinit0       :      0.60s CPU      0.61s WALL (       1 calls)

     Called by electrons:
     c_bands      :    388.84s CPU    199.62s WALL (      13 calls)
     sum_band     :     41.56s CPU     21.13s WALL (      13 calls)
     v_of_rho     :      0.58s CPU      0.42s WALL (      13 calls)
     v_h          :      0.05s CPU      0.05s WALL (      13 calls)
     v_xc         :      0.52s CPU      0.37s WALL (      13 calls)
     mix_rho      :      0.09s CPU      0.05s WALL (      13 calls)

     Called by c_bands:
     init_us_2    :      4.12s CPU      2.42s WALL (    5967 calls)
     cegterg      :    375.46s CPU    192.08s WALL (    2873 calls)

     Called by sum_band:
     sum_band:wei :      0.00s CPU      0.00s WALL (      13 calls)
     sum_band:loo :     41.52s CPU     21.10s WALL (      13 calls)
     sum_band:buf :      0.52s CPU      0.29s WALL (    2873 calls)
     sum_band:ini :      2.27s CPU      1.13s WALL (    2873 calls)

     Called by *egterg:
     cdiaghg      :     68.58s CPU     37.38s WALL (   18082 calls)
     cegterg:over :     11.93s CPU      7.12s WALL (   15430 calls)
     cegterg:upda :     10.71s CPU      3.40s WALL (   15430 calls)
     cegterg:last :     10.19s CPU      4.46s WALL (    7767 calls)
     h_psi        :    272.50s CPU    136.96s WALL (   18524 calls)
     g_psi        :      0.92s CPU      0.86s WALL (   15430 calls)

     Called by h_psi:
     h_psi:calbec :     20.27s CPU      7.21s WALL (   18524 calls)
     vloc_psi     :    240.99s CPU    124.69s WALL (   18524 calls)
     add_vuspsi   :     10.32s CPU      4.47s WALL (   18524 calls)

     General routines
     calbec       :     20.21s CPU      7.18s WALL (   18524 calls)
     fft          :      1.06s CPU      0.98s WALL (     154 calls)
     ffts         :      0.43s CPU      0.43s WALL (      26 calls)
     fftw         :    235.18s CPU    120.38s WALL (  834815 calls)
     interpolate  :      0.47s CPU      0.46s WALL (      13 calls)

     Parallel routines

     PWSCF        :   7m23.42s CPU   4m 1.36s WALL


   This run was terminated on:  16:41: 1  13Aug2025            

=------------------------------------------------------------------------------=
   JOB DONE.
=------------------------------------------------------------------------------=
