
     Program PWSCF v.7.4.1 starts on 22Aug2025 at 21: 5:41 

     This program is part of the open-source Quantum ESPRESSO suite
     for quantum simulation of materials; please cite
         "P. Giannozzi et al., J. Phys.:Condens. Matter 21 395502 (2009);
         "P. Giannozzi et al., J. Phys.:Condens. Matter 29 465901 (2017);
         "P. Giannozzi et al., J. Chem. Phys. 152 154105 (2020);
          URL http://www.quantum-espresso.org", 
     in publications or presentations arising from this work. More details at
     http://www.quantum-espresso.org/quote

     Parallel version (MPI & OpenMP), running on      48 processor cores
     Number of MPI processes:                24
     Threads/MPI process:                     2

     MPI processes distributed on     2 nodes
     34303 MiB available memory on the printing compute node when the environment starts

     Waiting for input...
     Reading input from standard input

     Current dimensions of program PWSCF are:
     Max number of different atomic species (ntypx) = 10
     Max number of k-points (npk) =  40000
     Max angular momentum in pseudopotentials (lmaxx) =  4
Error reading attribute index: expected integer, found *
Error reading attribute index: expected integer, found *

     IMPORTANT: XC functional enforced from input :
     Exchange-correlation= PBE
                           (   1   4   3   4   0   0   0)
     Any further DFT definition will be discarded
     Please, verify this is what you really want

     Message from routine setup:
     no reason to have ecutrho>4*ecutwfc

     R & G space division:  proc/nbgrp/npool/nimage =      24
     Subspace diagonalization in iterative solution of the eigenvalue problem:
     a serial algorithm will be used


     Parallelization info
     --------------------
     sticks:   dense  smooth     PW     G-vecs:    dense   smooth      PW
     Min         137      54     16                32297     8156    1298
     Max         138      55     17                32316     8181    1316
     Sum        3307    1319    385               775399   196125   31393

     Using Slab Decomposition



     bravais-lattice index     =            0
     lattice parameter (alat)  =       8.3900  a.u.
     unit-cell volume          =    2478.7943 (a.u.)^3
     number of atoms/cell      =            5
     number of atomic types    =            2
     number of electrons       =        78.00
     number of Kohn-Sham states=           78
     kinetic-energy cutoff     =      70.0000  Ry
     charge density cutoff     =     700.0000  Ry
     scf convergence threshold =      1.0E-07
     mixing beta               =       0.7000
     number of iterations used =            8  plain     mixing
     Exchange-correlation= PBE
                           (   1   4   3   4   0   0   0)
     Non magnetic calculation with spin-orbit


     celldm(1)=   8.390002  celldm(2)=   0.000000  celldm(3)=   0.000000
     celldm(4)=   0.000000  celldm(5)=   0.000000  celldm(6)=   0.000000

     crystal axes: (cart. coord. in units of alat)
               a(1) = (   1.000000   0.000000   0.000000 )  
               a(2) = (  -0.485437   0.840793   0.000000 )  
               a(3) = (   0.000000   0.000000   4.991890 )  

     reciprocal axes: (cart. coord. in units 2 pi/alat)
               b(1) = (  1.000000  0.577356 -0.000000 )  
               b(2) = (  0.000000  1.189353  0.000000 )  
               b(3) = (  0.000000 -0.000000  0.200325 )  


     PseudoPot. # 1 for Sb read from file:
     /zfs-home/202401017n1/pseudos/Sb_ONCV_PBE_FR-1.1.upf
     MD5 check sum: 7dc1726f2158e3c51e4807d42b9c5c65
     Pseudo is Norm-conserving, Zval = 15.0
     Generated using ONCVPSP code by D. R. Hamann
     Using radial grid of  602 points, 10 beta functions with: 
                l(1) =   0
                l(2) =   0
                l(3) =   1
                l(4) =   1
                l(5) =   1
                l(6) =   1
                l(7) =   2
                l(8) =   2
                l(9) =   2
               l(10) =   2

     PseudoPot. # 2 for Te read from file:
     /zfs-home/202401017n1/pseudos/Te_ONCV_PBE_FR-1.1.upf
     MD5 check sum: c6e17480449037a9a9d16e6377b5c7c4
     Pseudo is Norm-conserving, Zval = 16.0
     Generated using ONCVPSP code by D. R. Hamann
     Using radial grid of  602 points, 10 beta functions with: 
                l(1) =   0
                l(2) =   0
                l(3) =   1
                l(4) =   1
                l(5) =   1
                l(6) =   1
                l(7) =   2
                l(8) =   2
                l(9) =   2
               l(10) =   2

     atomic species   valence    mass     pseudopotential
     Sb               15.00   121.76000     Sb( 1.00)
     Te               16.00   127.60000     Te( 1.00)

     No symmetry found


                                    s                        frac. trans.

      isym =  1     identity                                     

 cryst.   s( 1) = (     1          0          0      )
                  (     0          1          0      )
                  (     0          0          1      )

 cart.    s( 1) = (  1.0000000  0.0000000  0.0000000 )
                  (  0.0000000  1.0000000  0.0000000 )
                  (  0.0000000  0.0000000  1.0000000 )


   Cartesian axes

     site n.     atom                  positions (alat units)
         1        Sb     tau(   1) = (   0.5867812   0.4172984   2.9417443  )
         2        Te     tau(   2) = (   0.5754457   0.3979752   1.6726131  )
         3        Sb     tau(   3) = (   0.0727921   0.1220272   2.0501240  )
         4        Te     tau(   4) = (   0.0840698   0.1416820   3.3192296  )
         5        Te     tau(   5) = (   0.0870265   0.6902229   2.4959189  )

     -------------------------------------------------
     Parameters for Dispersion (Grimme-D2) Correction:
     -------------------------------------------------
       atom      VdW radius       C_6     

        Sb         3.555       1333.532
        Te         3.575       1101.101

   Crystallographic axes

     site n.     atom                  positions (cryst. coord.)
         1        Sb     tau(   1) = (  0.8277109  0.4963151  0.5893047  )
         2        Te     tau(   2) = (  0.8052190  0.4733330  0.3350661  )
         3        Sb     tau(   3) = (  0.1432452  0.1451335  0.4106909  )
         4        Te     tau(   4) = (  0.1658708  0.1685099  0.6649244  )
         5        Te     tau(   5) = (  0.4855307  0.8209187  0.4999948  )

     number of k points=   221
                       cart. coord. in units 2pi/alat
        k(    1) = (   0.0000000   0.0000000   0.0000000), wk =   0.0022676
        k(    2) = (   0.0000000   0.0566359   0.0000000), wk =   0.0045351
        k(    3) = (   0.0000000   0.1132717   0.0000000), wk =   0.0045351
        k(    4) = (   0.0000000   0.1699076   0.0000000), wk =   0.0045351
        k(    5) = (   0.0000000   0.2265434   0.0000000), wk =   0.0045351
        k(    6) = (   0.0000000   0.2831793   0.0000000), wk =   0.0045351
        k(    7) = (   0.0000000   0.3398152   0.0000000), wk =   0.0045351
        k(    8) = (   0.0000000   0.3964510   0.0000000), wk =   0.0045351
        k(    9) = (   0.0000000   0.4530869   0.0000000), wk =   0.0045351
        k(   10) = (   0.0000000   0.5097227   0.0000000), wk =   0.0045351
        k(   11) = (   0.0000000   0.5663586   0.0000000), wk =   0.0045351
        k(   12) = (   0.0476190   0.0274931   0.0000000), wk =   0.0045351
        k(   13) = (   0.0476190   0.0841290   0.0000000), wk =   0.0045351
        k(   14) = (   0.0476190   0.1407649   0.0000000), wk =   0.0045351
        k(   15) = (   0.0476190   0.1974007   0.0000000), wk =   0.0045351
        k(   16) = (   0.0476190   0.2540366   0.0000000), wk =   0.0045351
        k(   17) = (   0.0476190   0.3106724   0.0000000), wk =   0.0045351
        k(   18) = (   0.0476190   0.3673083   0.0000000), wk =   0.0045351
        k(   19) = (   0.0476190   0.4239442   0.0000000), wk =   0.0045351
        k(   20) = (   0.0476190   0.4805800   0.0000000), wk =   0.0045351
        k(   21) = (   0.0476190   0.5372159   0.0000000), wk =   0.0045351
        k(   22) = (   0.0476190   0.5938517   0.0000000), wk =   0.0045351
        k(   23) = (   0.0476190  -0.5388655   0.0000000), wk =   0.0045351
        k(   24) = (   0.0476190  -0.4822296   0.0000000), wk =   0.0045351
        k(   25) = (   0.0476190  -0.4255937   0.0000000), wk =   0.0045351
        k(   26) = (   0.0476190  -0.3689579   0.0000000), wk =   0.0045351
        k(   27) = (   0.0476190  -0.3123220   0.0000000), wk =   0.0045351
        k(   28) = (   0.0476190  -0.2556862   0.0000000), wk =   0.0045351
        k(   29) = (   0.0476190  -0.1990503   0.0000000), wk =   0.0045351
        k(   30) = (   0.0476190  -0.1424144   0.0000000), wk =   0.0045351
        k(   31) = (   0.0476190  -0.0857786   0.0000000), wk =   0.0045351
        k(   32) = (   0.0476190  -0.0291427   0.0000000), wk =   0.0045351
        k(   33) = (   0.0952381   0.0549863   0.0000000), wk =   0.0045351
        k(   34) = (   0.0952381   0.1116221   0.0000000), wk =   0.0045351
        k(   35) = (   0.0952381   0.1682580   0.0000000), wk =   0.0045351
        k(   36) = (   0.0952381   0.2248939   0.0000000), wk =   0.0045351
        k(   37) = (   0.0952381   0.2815297   0.0000000), wk =   0.0045351
        k(   38) = (   0.0952381   0.3381656   0.0000000), wk =   0.0045351
        k(   39) = (   0.0952381   0.3948014   0.0000000), wk =   0.0045351
        k(   40) = (   0.0952381   0.4514373   0.0000000), wk =   0.0045351
        k(   41) = (   0.0952381   0.5080732   0.0000000), wk =   0.0045351
        k(   42) = (   0.0952381   0.5647090   0.0000000), wk =   0.0045351
        k(   43) = (   0.0952381   0.6213449   0.0000000), wk =   0.0045351
        k(   44) = (   0.0952381  -0.5113723   0.0000000), wk =   0.0045351
        k(   45) = (   0.0952381  -0.4547365   0.0000000), wk =   0.0045351
        k(   46) = (   0.0952381  -0.3981006   0.0000000), wk =   0.0045351
        k(   47) = (   0.0952381  -0.3414647   0.0000000), wk =   0.0045351
        k(   48) = (   0.0952381  -0.2848289   0.0000000), wk =   0.0045351
        k(   49) = (   0.0952381  -0.2281930   0.0000000), wk =   0.0045351
        k(   50) = (   0.0952381  -0.1715572   0.0000000), wk =   0.0045351
        k(   51) = (   0.0952381  -0.1149213   0.0000000), wk =   0.0045351
        k(   52) = (   0.0952381  -0.0582854   0.0000000), wk =   0.0045351
        k(   53) = (   0.0952381  -0.0016496   0.0000000), wk =   0.0045351
        k(   54) = (   0.1428571   0.0824794   0.0000000), wk =   0.0045351
        k(   55) = (   0.1428571   0.1391153   0.0000000), wk =   0.0045351
        k(   56) = (   0.1428571   0.1957511   0.0000000), wk =   0.0045351
        k(   57) = (   0.1428571   0.2523870   0.0000000), wk =   0.0045351
        k(   58) = (   0.1428571   0.3090228   0.0000000), wk =   0.0045351
        k(   59) = (   0.1428571   0.3656587   0.0000000), wk =   0.0045351
        k(   60) = (   0.1428571   0.4222946   0.0000000), wk =   0.0045351
        k(   61) = (   0.1428571   0.4789304   0.0000000), wk =   0.0045351
        k(   62) = (   0.1428571   0.5355663   0.0000000), wk =   0.0045351
        k(   63) = (   0.1428571   0.5922021   0.0000000), wk =   0.0045351
        k(   64) = (   0.1428571   0.6488380   0.0000000), wk =   0.0045351
        k(   65) = (   0.1428571  -0.4838792   0.0000000), wk =   0.0045351
        k(   66) = (   0.1428571  -0.4272433   0.0000000), wk =   0.0045351
        k(   67) = (   0.1428571  -0.3706075   0.0000000), wk =   0.0045351
        k(   68) = (   0.1428571  -0.3139716   0.0000000), wk =   0.0045351
        k(   69) = (   0.1428571  -0.2573358   0.0000000), wk =   0.0045351
        k(   70) = (   0.1428571  -0.2006999   0.0000000), wk =   0.0045351
        k(   71) = (   0.1428571  -0.1440640   0.0000000), wk =   0.0045351
        k(   72) = (   0.1428571  -0.0874282   0.0000000), wk =   0.0045351
        k(   73) = (   0.1428571  -0.0307923   0.0000000), wk =   0.0045351
        k(   74) = (   0.1428571   0.0258435   0.0000000), wk =   0.0045351
        k(   75) = (   0.1904762   0.1099725   0.0000000), wk =   0.0045351
        k(   76) = (   0.1904762   0.1666084   0.0000000), wk =   0.0045351
        k(   77) = (   0.1904762   0.2232443   0.0000000), wk =   0.0045351
        k(   78) = (   0.1904762   0.2798801   0.0000000), wk =   0.0045351
        k(   79) = (   0.1904762   0.3365160   0.0000000), wk =   0.0045351
        k(   80) = (   0.1904762   0.3931518   0.0000000), wk =   0.0045351
        k(   81) = (   0.1904762   0.4497877   0.0000000), wk =   0.0045351
        k(   82) = (   0.1904762   0.5064236   0.0000000), wk =   0.0045351
        k(   83) = (   0.1904762   0.5630594   0.0000000), wk =   0.0045351
        k(   84) = (   0.1904762   0.6196953   0.0000000), wk =   0.0045351
        k(   85) = (   0.1904762   0.6763311   0.0000000), wk =   0.0045351
        k(   86) = (   0.1904762  -0.4563861   0.0000000), wk =   0.0045351
        k(   87) = (   0.1904762  -0.3997502   0.0000000), wk =   0.0045351
        k(   88) = (   0.1904762  -0.3431143   0.0000000), wk =   0.0045351
        k(   89) = (   0.1904762  -0.2864785   0.0000000), wk =   0.0045351
        k(   90) = (   0.1904762  -0.2298426   0.0000000), wk =   0.0045351
        k(   91) = (   0.1904762  -0.1732068   0.0000000), wk =   0.0045351
        k(   92) = (   0.1904762  -0.1165709   0.0000000), wk =   0.0045351
        k(   93) = (   0.1904762  -0.0599350   0.0000000), wk =   0.0045351
        k(   94) = (   0.1904762  -0.0032992   0.0000000), wk =   0.0045351
        k(   95) = (   0.1904762   0.0533367   0.0000000), wk =   0.0045351
        k(   96) = (   0.2380952   0.1374657   0.0000000), wk =   0.0045351
        k(   97) = (   0.2380952   0.1941015   0.0000000), wk =   0.0045351
        k(   98) = (   0.2380952   0.2507374   0.0000000), wk =   0.0045351
        k(   99) = (   0.2380952   0.3073733   0.0000000), wk =   0.0045351
        k(  100) = (   0.2380952   0.3640091   0.0000000), wk =   0.0045351
        k(  101) = (   0.2380952   0.4206450   0.0000000), wk =   0.0045351
        k(  102) = (   0.2380952   0.4772808   0.0000000), wk =   0.0045351
        k(  103) = (   0.2380952   0.5339167   0.0000000), wk =   0.0045351
        k(  104) = (   0.2380952   0.5905526   0.0000000), wk =   0.0045351
        k(  105) = (   0.2380952   0.6471884   0.0000000), wk =   0.0045351
        k(  106) = (   0.2380952   0.7038243   0.0000000), wk =   0.0045351
        k(  107) = (   0.2380952  -0.4288929   0.0000000), wk =   0.0045351
        k(  108) = (   0.2380952  -0.3722571   0.0000000), wk =   0.0045351
        k(  109) = (   0.2380952  -0.3156212   0.0000000), wk =   0.0045351
        k(  110) = (   0.2380952  -0.2589853   0.0000000), wk =   0.0045351
        k(  111) = (   0.2380952  -0.2023495   0.0000000), wk =   0.0045351
        k(  112) = (   0.2380952  -0.1457136   0.0000000), wk =   0.0045351
        k(  113) = (   0.2380952  -0.0890778   0.0000000), wk =   0.0045351
        k(  114) = (   0.2380952  -0.0324419   0.0000000), wk =   0.0045351
        k(  115) = (   0.2380952   0.0241940   0.0000000), wk =   0.0045351
        k(  116) = (   0.2380952   0.0808298   0.0000000), wk =   0.0045351
        k(  117) = (   0.2857143   0.1649588   0.0000000), wk =   0.0045351
        k(  118) = (   0.2857143   0.2215947   0.0000000), wk =   0.0045351
        k(  119) = (   0.2857143   0.2782305   0.0000000), wk =   0.0045351
        k(  120) = (   0.2857143   0.3348664   0.0000000), wk =   0.0045351
        k(  121) = (   0.2857143   0.3915023   0.0000000), wk =   0.0045351
        k(  122) = (   0.2857143   0.4481381   0.0000000), wk =   0.0045351
        k(  123) = (   0.2857143   0.5047740   0.0000000), wk =   0.0045351
        k(  124) = (   0.2857143   0.5614098   0.0000000), wk =   0.0045351
        k(  125) = (   0.2857143   0.6180457   0.0000000), wk =   0.0045351
        k(  126) = (   0.2857143   0.6746816   0.0000000), wk =   0.0045351
        k(  127) = (   0.2857143   0.7313174   0.0000000), wk =   0.0045351
        k(  128) = (   0.2857143  -0.4013998   0.0000000), wk =   0.0045351
        k(  129) = (   0.2857143  -0.3447639   0.0000000), wk =   0.0045351
        k(  130) = (   0.2857143  -0.2881281   0.0000000), wk =   0.0045351
        k(  131) = (   0.2857143  -0.2314922   0.0000000), wk =   0.0045351
        k(  132) = (   0.2857143  -0.1748563   0.0000000), wk =   0.0045351
        k(  133) = (   0.2857143  -0.1182205   0.0000000), wk =   0.0045351
        k(  134) = (   0.2857143  -0.0615846   0.0000000), wk =   0.0045351
        k(  135) = (   0.2857143  -0.0049488   0.0000000), wk =   0.0045351
        k(  136) = (   0.2857143   0.0516871   0.0000000), wk =   0.0045351
        k(  137) = (   0.2857143   0.1083230   0.0000000), wk =   0.0045351
        k(  138) = (   0.3333333   0.1924520   0.0000000), wk =   0.0045351
        k(  139) = (   0.3333333   0.2490878   0.0000000), wk =   0.0045351
        k(  140) = (   0.3333333   0.3057237   0.0000000), wk =   0.0045351
        k(  141) = (   0.3333333   0.3623595   0.0000000), wk =   0.0045351
        k(  142) = (   0.3333333   0.4189954   0.0000000), wk =   0.0045351
        k(  143) = (   0.3333333   0.4756313   0.0000000), wk =   0.0045351
        k(  144) = (   0.3333333   0.5322671   0.0000000), wk =   0.0045351
        k(  145) = (   0.3333333   0.5889030   0.0000000), wk =   0.0045351
        k(  146) = (   0.3333333   0.6455388   0.0000000), wk =   0.0045351
        k(  147) = (   0.3333333   0.7021747   0.0000000), wk =   0.0045351
        k(  148) = (   0.3333333   0.7588106   0.0000000), wk =   0.0045351
        k(  149) = (   0.3333333  -0.3739066   0.0000000), wk =   0.0045351
        k(  150) = (   0.3333333  -0.3172708   0.0000000), wk =   0.0045351
        k(  151) = (   0.3333333  -0.2606349   0.0000000), wk =   0.0045351
        k(  152) = (   0.3333333  -0.2039991   0.0000000), wk =   0.0045351
        k(  153) = (   0.3333333  -0.1473632   0.0000000), wk =   0.0045351
        k(  154) = (   0.3333333  -0.0907273   0.0000000), wk =   0.0045351
        k(  155) = (   0.3333333  -0.0340915   0.0000000), wk =   0.0045351
        k(  156) = (   0.3333333   0.0225444   0.0000000), wk =   0.0045351
        k(  157) = (   0.3333333   0.0791802   0.0000000), wk =   0.0045351
        k(  158) = (   0.3333333   0.1358161   0.0000000), wk =   0.0045351
        k(  159) = (   0.3809524   0.2199451   0.0000000), wk =   0.0045351
        k(  160) = (   0.3809524   0.2765809   0.0000000), wk =   0.0045351
        k(  161) = (   0.3809524   0.3332168   0.0000000), wk =   0.0045351
        k(  162) = (   0.3809524   0.3898527   0.0000000), wk =   0.0045351
        k(  163) = (   0.3809524   0.4464885   0.0000000), wk =   0.0045351
        k(  164) = (   0.3809524   0.5031244   0.0000000), wk =   0.0045351
        k(  165) = (   0.3809524   0.5597602   0.0000000), wk =   0.0045351
        k(  166) = (   0.3809524   0.6163961   0.0000000), wk =   0.0045351
        k(  167) = (   0.3809524   0.6730320   0.0000000), wk =   0.0045351
        k(  168) = (   0.3809524   0.7296678   0.0000000), wk =   0.0045351
        k(  169) = (   0.3809524   0.7863037   0.0000000), wk =   0.0045351
        k(  170) = (   0.3809524  -0.3464135   0.0000000), wk =   0.0045351
        k(  171) = (   0.3809524  -0.2897777   0.0000000), wk =   0.0045351
        k(  172) = (   0.3809524  -0.2331418   0.0000000), wk =   0.0045351
        k(  173) = (   0.3809524  -0.1765059   0.0000000), wk =   0.0045351
        k(  174) = (   0.3809524  -0.1198701   0.0000000), wk =   0.0045351
        k(  175) = (   0.3809524  -0.0632342   0.0000000), wk =   0.0045351
        k(  176) = (   0.3809524  -0.0065984   0.0000000), wk =   0.0045351
        k(  177) = (   0.3809524   0.0500375   0.0000000), wk =   0.0045351
        k(  178) = (   0.3809524   0.1066734   0.0000000), wk =   0.0045351
        k(  179) = (   0.3809524   0.1633092   0.0000000), wk =   0.0045351
        k(  180) = (   0.4285714   0.2474382   0.0000000), wk =   0.0045351
        k(  181) = (   0.4285714   0.3040741   0.0000000), wk =   0.0045351
        k(  182) = (   0.4285714   0.3607099   0.0000000), wk =   0.0045351
        k(  183) = (   0.4285714   0.4173458   0.0000000), wk =   0.0045351
        k(  184) = (   0.4285714   0.4739817   0.0000000), wk =   0.0045351
        k(  185) = (   0.4285714   0.5306175   0.0000000), wk =   0.0045351
        k(  186) = (   0.4285714   0.5872534   0.0000000), wk =   0.0045351
        k(  187) = (   0.4285714   0.6438892   0.0000000), wk =   0.0045351
        k(  188) = (   0.4285714   0.7005251   0.0000000), wk =   0.0045351
        k(  189) = (   0.4285714   0.7571610   0.0000000), wk =   0.0045351
        k(  190) = (   0.4285714   0.8137968   0.0000000), wk =   0.0045351
        k(  191) = (   0.4285714  -0.3189204   0.0000000), wk =   0.0045351
        k(  192) = (   0.4285714  -0.2622845   0.0000000), wk =   0.0045351
        k(  193) = (   0.4285714  -0.2056487   0.0000000), wk =   0.0045351
        k(  194) = (   0.4285714  -0.1490128   0.0000000), wk =   0.0045351
        k(  195) = (   0.4285714  -0.0923769   0.0000000), wk =   0.0045351
        k(  196) = (   0.4285714  -0.0357411   0.0000000), wk =   0.0045351
        k(  197) = (   0.4285714   0.0208948   0.0000000), wk =   0.0045351
        k(  198) = (   0.4285714   0.0775306   0.0000000), wk =   0.0045351
        k(  199) = (   0.4285714   0.1341665   0.0000000), wk =   0.0045351
        k(  200) = (   0.4285714   0.1908024   0.0000000), wk =   0.0045351
        k(  201) = (   0.4761905   0.2749314   0.0000000), wk =   0.0045351
        k(  202) = (   0.4761905   0.3315672   0.0000000), wk =   0.0045351
        k(  203) = (   0.4761905   0.3882031   0.0000000), wk =   0.0045351
        k(  204) = (   0.4761905   0.4448389   0.0000000), wk =   0.0045351
        k(  205) = (   0.4761905   0.5014748   0.0000000), wk =   0.0045351
        k(  206) = (   0.4761905   0.5581107   0.0000000), wk =   0.0045351
        k(  207) = (   0.4761905   0.6147465   0.0000000), wk =   0.0045351
        k(  208) = (   0.4761905   0.6713824   0.0000000), wk =   0.0045351
        k(  209) = (   0.4761905   0.7280182   0.0000000), wk =   0.0045351
        k(  210) = (   0.4761905   0.7846541   0.0000000), wk =   0.0045351
        k(  211) = (   0.4761905   0.8412900   0.0000000), wk =   0.0045351
        k(  212) = (   0.4761905  -0.2914272   0.0000000), wk =   0.0045351
        k(  213) = (   0.4761905  -0.2347914   0.0000000), wk =   0.0045351
        k(  214) = (   0.4761905  -0.1781555   0.0000000), wk =   0.0045351
        k(  215) = (   0.4761905  -0.1215197   0.0000000), wk =   0.0045351
        k(  216) = (   0.4761905  -0.0648838   0.0000000), wk =   0.0045351
        k(  217) = (   0.4761905  -0.0082479   0.0000000), wk =   0.0045351
        k(  218) = (   0.4761905   0.0483879   0.0000000), wk =   0.0045351
        k(  219) = (   0.4761905   0.1050238   0.0000000), wk =   0.0045351
        k(  220) = (   0.4761905   0.1616596   0.0000000), wk =   0.0045351
        k(  221) = (   0.4761905   0.2182955   0.0000000), wk =   0.0045351

                       cryst. coord.
        k(    1) = (   0.0000000   0.0000000   0.0000000), wk =   0.0022676
        k(    2) = (   0.0000000   0.0476190   0.0000000), wk =   0.0045351
        k(    3) = (   0.0000000   0.0952381   0.0000000), wk =   0.0045351
        k(    4) = (   0.0000000   0.1428571   0.0000000), wk =   0.0045351
        k(    5) = (   0.0000000   0.1904762   0.0000000), wk =   0.0045351
        k(    6) = (   0.0000000   0.2380952   0.0000000), wk =   0.0045351
        k(    7) = (   0.0000000   0.2857143   0.0000000), wk =   0.0045351
        k(    8) = (   0.0000000   0.3333333   0.0000000), wk =   0.0045351
        k(    9) = (   0.0000000   0.3809524   0.0000000), wk =   0.0045351
        k(   10) = (   0.0000000   0.4285714   0.0000000), wk =   0.0045351
        k(   11) = (   0.0000000   0.4761905   0.0000000), wk =   0.0045351
        k(   12) = (   0.0476190   0.0000000   0.0000000), wk =   0.0045351
        k(   13) = (   0.0476190   0.0476190   0.0000000), wk =   0.0045351
        k(   14) = (   0.0476190   0.0952381   0.0000000), wk =   0.0045351
        k(   15) = (   0.0476190   0.1428571   0.0000000), wk =   0.0045351
        k(   16) = (   0.0476190   0.1904762   0.0000000), wk =   0.0045351
        k(   17) = (   0.0476190   0.2380952   0.0000000), wk =   0.0045351
        k(   18) = (   0.0476190   0.2857143   0.0000000), wk =   0.0045351
        k(   19) = (   0.0476190   0.3333333   0.0000000), wk =   0.0045351
        k(   20) = (   0.0476190   0.3809524   0.0000000), wk =   0.0045351
        k(   21) = (   0.0476190   0.4285714   0.0000000), wk =   0.0045351
        k(   22) = (   0.0476190   0.4761905   0.0000000), wk =   0.0045351
        k(   23) = (   0.0476190  -0.4761905   0.0000000), wk =   0.0045351
        k(   24) = (   0.0476190  -0.4285714   0.0000000), wk =   0.0045351
        k(   25) = (   0.0476190  -0.3809524   0.0000000), wk =   0.0045351
        k(   26) = (   0.0476190  -0.3333333   0.0000000), wk =   0.0045351
        k(   27) = (   0.0476190  -0.2857143   0.0000000), wk =   0.0045351
        k(   28) = (   0.0476190  -0.2380952   0.0000000), wk =   0.0045351
        k(   29) = (   0.0476190  -0.1904762   0.0000000), wk =   0.0045351
        k(   30) = (   0.0476190  -0.1428571   0.0000000), wk =   0.0045351
        k(   31) = (   0.0476190  -0.0952381   0.0000000), wk =   0.0045351
        k(   32) = (   0.0476190  -0.0476190   0.0000000), wk =   0.0045351
        k(   33) = (   0.0952381   0.0000000   0.0000000), wk =   0.0045351
        k(   34) = (   0.0952381   0.0476190   0.0000000), wk =   0.0045351
        k(   35) = (   0.0952381   0.0952381   0.0000000), wk =   0.0045351
        k(   36) = (   0.0952381   0.1428571   0.0000000), wk =   0.0045351
        k(   37) = (   0.0952381   0.1904762   0.0000000), wk =   0.0045351
        k(   38) = (   0.0952381   0.2380952   0.0000000), wk =   0.0045351
        k(   39) = (   0.0952381   0.2857143   0.0000000), wk =   0.0045351
        k(   40) = (   0.0952381   0.3333333   0.0000000), wk =   0.0045351
        k(   41) = (   0.0952381   0.3809524   0.0000000), wk =   0.0045351
        k(   42) = (   0.0952381   0.4285714   0.0000000), wk =   0.0045351
        k(   43) = (   0.0952381   0.4761905   0.0000000), wk =   0.0045351
        k(   44) = (   0.0952381  -0.4761905   0.0000000), wk =   0.0045351
        k(   45) = (   0.0952381  -0.4285714   0.0000000), wk =   0.0045351
        k(   46) = (   0.0952381  -0.3809524   0.0000000), wk =   0.0045351
        k(   47) = (   0.0952381  -0.3333333   0.0000000), wk =   0.0045351
        k(   48) = (   0.0952381  -0.2857143   0.0000000), wk =   0.0045351
        k(   49) = (   0.0952381  -0.2380952   0.0000000), wk =   0.0045351
        k(   50) = (   0.0952381  -0.1904762   0.0000000), wk =   0.0045351
        k(   51) = (   0.0952381  -0.1428571   0.0000000), wk =   0.0045351
        k(   52) = (   0.0952381  -0.0952381   0.0000000), wk =   0.0045351
        k(   53) = (   0.0952381  -0.0476190   0.0000000), wk =   0.0045351
        k(   54) = (   0.1428571  -0.0000000   0.0000000), wk =   0.0045351
        k(   55) = (   0.1428571   0.0476190   0.0000000), wk =   0.0045351
        k(   56) = (   0.1428571   0.0952381   0.0000000), wk =   0.0045351
        k(   57) = (   0.1428571   0.1428571   0.0000000), wk =   0.0045351
        k(   58) = (   0.1428571   0.1904762   0.0000000), wk =   0.0045351
        k(   59) = (   0.1428571   0.2380952   0.0000000), wk =   0.0045351
        k(   60) = (   0.1428571   0.2857143   0.0000000), wk =   0.0045351
        k(   61) = (   0.1428571   0.3333333   0.0000000), wk =   0.0045351
        k(   62) = (   0.1428571   0.3809524   0.0000000), wk =   0.0045351
        k(   63) = (   0.1428571   0.4285714   0.0000000), wk =   0.0045351
        k(   64) = (   0.1428571   0.4761905   0.0000000), wk =   0.0045351
        k(   65) = (   0.1428571  -0.4761905   0.0000000), wk =   0.0045351
        k(   66) = (   0.1428571  -0.4285714   0.0000000), wk =   0.0045351
        k(   67) = (   0.1428571  -0.3809524   0.0000000), wk =   0.0045351
        k(   68) = (   0.1428571  -0.3333333   0.0000000), wk =   0.0045351
        k(   69) = (   0.1428571  -0.2857143   0.0000000), wk =   0.0045351
        k(   70) = (   0.1428571  -0.2380952   0.0000000), wk =   0.0045351
        k(   71) = (   0.1428571  -0.1904762   0.0000000), wk =   0.0045351
        k(   72) = (   0.1428571  -0.1428571   0.0000000), wk =   0.0045351
        k(   73) = (   0.1428571  -0.0952381   0.0000000), wk =   0.0045351
        k(   74) = (   0.1428571  -0.0476190   0.0000000), wk =   0.0045351
        k(   75) = (   0.1904762   0.0000000   0.0000000), wk =   0.0045351
        k(   76) = (   0.1904762   0.0476190   0.0000000), wk =   0.0045351
        k(   77) = (   0.1904762   0.0952381   0.0000000), wk =   0.0045351
        k(   78) = (   0.1904762   0.1428571   0.0000000), wk =   0.0045351
        k(   79) = (   0.1904762   0.1904762   0.0000000), wk =   0.0045351
        k(   80) = (   0.1904762   0.2380952   0.0000000), wk =   0.0045351
        k(   81) = (   0.1904762   0.2857143   0.0000000), wk =   0.0045351
        k(   82) = (   0.1904762   0.3333333   0.0000000), wk =   0.0045351
        k(   83) = (   0.1904762   0.3809524   0.0000000), wk =   0.0045351
        k(   84) = (   0.1904762   0.4285714   0.0000000), wk =   0.0045351
        k(   85) = (   0.1904762   0.4761905   0.0000000), wk =   0.0045351
        k(   86) = (   0.1904762  -0.4761905   0.0000000), wk =   0.0045351
        k(   87) = (   0.1904762  -0.4285714   0.0000000), wk =   0.0045351
        k(   88) = (   0.1904762  -0.3809524   0.0000000), wk =   0.0045351
        k(   89) = (   0.1904762  -0.3333333   0.0000000), wk =   0.0045351
        k(   90) = (   0.1904762  -0.2857143   0.0000000), wk =   0.0045351
        k(   91) = (   0.1904762  -0.2380952   0.0000000), wk =   0.0045351
        k(   92) = (   0.1904762  -0.1904762   0.0000000), wk =   0.0045351
        k(   93) = (   0.1904762  -0.1428571   0.0000000), wk =   0.0045351
        k(   94) = (   0.1904762  -0.0952381   0.0000000), wk =   0.0045351
        k(   95) = (   0.1904762  -0.0476190   0.0000000), wk =   0.0045351
        k(   96) = (   0.2380952   0.0000000   0.0000000), wk =   0.0045351
        k(   97) = (   0.2380952   0.0476190   0.0000000), wk =   0.0045351
        k(   98) = (   0.2380952   0.0952381   0.0000000), wk =   0.0045351
        k(   99) = (   0.2380952   0.1428571   0.0000000), wk =   0.0045351
        k(  100) = (   0.2380952   0.1904762   0.0000000), wk =   0.0045351
        k(  101) = (   0.2380952   0.2380952   0.0000000), wk =   0.0045351
        k(  102) = (   0.2380952   0.2857143   0.0000000), wk =   0.0045351
        k(  103) = (   0.2380952   0.3333333   0.0000000), wk =   0.0045351
        k(  104) = (   0.2380952   0.3809524   0.0000000), wk =   0.0045351
        k(  105) = (   0.2380952   0.4285714   0.0000000), wk =   0.0045351
        k(  106) = (   0.2380952   0.4761905   0.0000000), wk =   0.0045351
        k(  107) = (   0.2380952  -0.4761905   0.0000000), wk =   0.0045351
        k(  108) = (   0.2380952  -0.4285714   0.0000000), wk =   0.0045351
        k(  109) = (   0.2380952  -0.3809524   0.0000000), wk =   0.0045351
        k(  110) = (   0.2380952  -0.3333333   0.0000000), wk =   0.0045351
        k(  111) = (   0.2380952  -0.2857143   0.0000000), wk =   0.0045351
        k(  112) = (   0.2380952  -0.2380952   0.0000000), wk =   0.0045351
        k(  113) = (   0.2380952  -0.1904762   0.0000000), wk =   0.0045351
        k(  114) = (   0.2380952  -0.1428571   0.0000000), wk =   0.0045351
        k(  115) = (   0.2380952  -0.0952381   0.0000000), wk =   0.0045351
        k(  116) = (   0.2380952  -0.0476190   0.0000000), wk =   0.0045351
        k(  117) = (   0.2857143  -0.0000000   0.0000000), wk =   0.0045351
        k(  118) = (   0.2857143   0.0476190   0.0000000), wk =   0.0045351
        k(  119) = (   0.2857143   0.0952381   0.0000000), wk =   0.0045351
        k(  120) = (   0.2857143   0.1428571   0.0000000), wk =   0.0045351
        k(  121) = (   0.2857143   0.1904762   0.0000000), wk =   0.0045351
        k(  122) = (   0.2857143   0.2380952   0.0000000), wk =   0.0045351
        k(  123) = (   0.2857143   0.2857143   0.0000000), wk =   0.0045351
        k(  124) = (   0.2857143   0.3333333   0.0000000), wk =   0.0045351
        k(  125) = (   0.2857143   0.3809524   0.0000000), wk =   0.0045351
        k(  126) = (   0.2857143   0.4285714   0.0000000), wk =   0.0045351
        k(  127) = (   0.2857143   0.4761905   0.0000000), wk =   0.0045351
        k(  128) = (   0.2857143  -0.4761905   0.0000000), wk =   0.0045351
        k(  129) = (   0.2857143  -0.4285714   0.0000000), wk =   0.0045351
        k(  130) = (   0.2857143  -0.3809524   0.0000000), wk =   0.0045351
        k(  131) = (   0.2857143  -0.3333333   0.0000000), wk =   0.0045351
        k(  132) = (   0.2857143  -0.2857143   0.0000000), wk =   0.0045351
        k(  133) = (   0.2857143  -0.2380952   0.0000000), wk =   0.0045351
        k(  134) = (   0.2857143  -0.1904762   0.0000000), wk =   0.0045351
        k(  135) = (   0.2857143  -0.1428571   0.0000000), wk =   0.0045351
        k(  136) = (   0.2857143  -0.0952381   0.0000000), wk =   0.0045351
        k(  137) = (   0.2857143  -0.0476190   0.0000000), wk =   0.0045351
        k(  138) = (   0.3333333   0.0000000   0.0000000), wk =   0.0045351
        k(  139) = (   0.3333333   0.0476190   0.0000000), wk =   0.0045351
        k(  140) = (   0.3333333   0.0952381   0.0000000), wk =   0.0045351
        k(  141) = (   0.3333333   0.1428571   0.0000000), wk =   0.0045351
        k(  142) = (   0.3333333   0.1904762   0.0000000), wk =   0.0045351
        k(  143) = (   0.3333333   0.2380952   0.0000000), wk =   0.0045351
        k(  144) = (   0.3333333   0.2857143   0.0000000), wk =   0.0045351
        k(  145) = (   0.3333333   0.3333333   0.0000000), wk =   0.0045351
        k(  146) = (   0.3333333   0.3809524   0.0000000), wk =   0.0045351
        k(  147) = (   0.3333333   0.4285714   0.0000000), wk =   0.0045351
        k(  148) = (   0.3333333   0.4761905   0.0000000), wk =   0.0045351
        k(  149) = (   0.3333333  -0.4761905   0.0000000), wk =   0.0045351
        k(  150) = (   0.3333333  -0.4285714   0.0000000), wk =   0.0045351
        k(  151) = (   0.3333333  -0.3809524   0.0000000), wk =   0.0045351
        k(  152) = (   0.3333333  -0.3333333   0.0000000), wk =   0.0045351
        k(  153) = (   0.3333333  -0.2857143   0.0000000), wk =   0.0045351
        k(  154) = (   0.3333333  -0.2380952   0.0000000), wk =   0.0045351
        k(  155) = (   0.3333333  -0.1904762   0.0000000), wk =   0.0045351
        k(  156) = (   0.3333333  -0.1428571   0.0000000), wk =   0.0045351
        k(  157) = (   0.3333333  -0.0952381   0.0000000), wk =   0.0045351
        k(  158) = (   0.3333333  -0.0476190   0.0000000), wk =   0.0045351
        k(  159) = (   0.3809524   0.0000000   0.0000000), wk =   0.0045351
        k(  160) = (   0.3809524   0.0476190   0.0000000), wk =   0.0045351
        k(  161) = (   0.3809524   0.0952381   0.0000000), wk =   0.0045351
        k(  162) = (   0.3809524   0.1428571   0.0000000), wk =   0.0045351
        k(  163) = (   0.3809524   0.1904762   0.0000000), wk =   0.0045351
        k(  164) = (   0.3809524   0.2380952   0.0000000), wk =   0.0045351
        k(  165) = (   0.3809524   0.2857143   0.0000000), wk =   0.0045351
        k(  166) = (   0.3809524   0.3333333   0.0000000), wk =   0.0045351
        k(  167) = (   0.3809524   0.3809524   0.0000000), wk =   0.0045351
        k(  168) = (   0.3809524   0.4285714   0.0000000), wk =   0.0045351
        k(  169) = (   0.3809524   0.4761905   0.0000000), wk =   0.0045351
        k(  170) = (   0.3809524  -0.4761905   0.0000000), wk =   0.0045351
        k(  171) = (   0.3809524  -0.4285714   0.0000000), wk =   0.0045351
        k(  172) = (   0.3809524  -0.3809524   0.0000000), wk =   0.0045351
        k(  173) = (   0.3809524  -0.3333333   0.0000000), wk =   0.0045351
        k(  174) = (   0.3809524  -0.2857143   0.0000000), wk =   0.0045351
        k(  175) = (   0.3809524  -0.2380952   0.0000000), wk =   0.0045351
        k(  176) = (   0.3809524  -0.1904762   0.0000000), wk =   0.0045351
        k(  177) = (   0.3809524  -0.1428571   0.0000000), wk =   0.0045351
        k(  178) = (   0.3809524  -0.0952381   0.0000000), wk =   0.0045351
        k(  179) = (   0.3809524  -0.0476190   0.0000000), wk =   0.0045351
        k(  180) = (   0.4285714   0.0000000   0.0000000), wk =   0.0045351
        k(  181) = (   0.4285714   0.0476190   0.0000000), wk =   0.0045351
        k(  182) = (   0.4285714   0.0952381   0.0000000), wk =   0.0045351
        k(  183) = (   0.4285714   0.1428571   0.0000000), wk =   0.0045351
        k(  184) = (   0.4285714   0.1904762   0.0000000), wk =   0.0045351
        k(  185) = (   0.4285714   0.2380952   0.0000000), wk =   0.0045351
        k(  186) = (   0.4285714   0.2857143   0.0000000), wk =   0.0045351
        k(  187) = (   0.4285714   0.3333333   0.0000000), wk =   0.0045351
        k(  188) = (   0.4285714   0.3809524   0.0000000), wk =   0.0045351
        k(  189) = (   0.4285714   0.4285714   0.0000000), wk =   0.0045351
        k(  190) = (   0.4285714   0.4761905   0.0000000), wk =   0.0045351
        k(  191) = (   0.4285714  -0.4761905   0.0000000), wk =   0.0045351
        k(  192) = (   0.4285714  -0.4285714   0.0000000), wk =   0.0045351
        k(  193) = (   0.4285714  -0.3809524   0.0000000), wk =   0.0045351
        k(  194) = (   0.4285714  -0.3333333   0.0000000), wk =   0.0045351
        k(  195) = (   0.4285714  -0.2857143   0.0000000), wk =   0.0045351
        k(  196) = (   0.4285714  -0.2380952   0.0000000), wk =   0.0045351
        k(  197) = (   0.4285714  -0.1904762   0.0000000), wk =   0.0045351
        k(  198) = (   0.4285714  -0.1428571   0.0000000), wk =   0.0045351
        k(  199) = (   0.4285714  -0.0952381   0.0000000), wk =   0.0045351
        k(  200) = (   0.4285714  -0.0476190   0.0000000), wk =   0.0045351
        k(  201) = (   0.4761905   0.0000000   0.0000000), wk =   0.0045351
        k(  202) = (   0.4761905   0.0476190   0.0000000), wk =   0.0045351
        k(  203) = (   0.4761905   0.0952381   0.0000000), wk =   0.0045351
        k(  204) = (   0.4761905   0.1428571   0.0000000), wk =   0.0045351
        k(  205) = (   0.4761905   0.1904762   0.0000000), wk =   0.0045351
        k(  206) = (   0.4761905   0.2380952   0.0000000), wk =   0.0045351
        k(  207) = (   0.4761905   0.2857143   0.0000000), wk =   0.0045351
        k(  208) = (   0.4761905   0.3333333   0.0000000), wk =   0.0045351
        k(  209) = (   0.4761905   0.3809524   0.0000000), wk =   0.0045351
        k(  210) = (   0.4761905   0.4285714   0.0000000), wk =   0.0045351
        k(  211) = (   0.4761905   0.4761905   0.0000000), wk =   0.0045351
        k(  212) = (   0.4761905  -0.4761905   0.0000000), wk =   0.0045351
        k(  213) = (   0.4761905  -0.4285714   0.0000000), wk =   0.0045351
        k(  214) = (   0.4761905  -0.3809524   0.0000000), wk =   0.0045351
        k(  215) = (   0.4761905  -0.3333333   0.0000000), wk =   0.0045351
        k(  216) = (   0.4761905  -0.2857143   0.0000000), wk =   0.0045351
        k(  217) = (   0.4761905  -0.2380952   0.0000000), wk =   0.0045351
        k(  218) = (   0.4761905  -0.1904762   0.0000000), wk =   0.0045351
        k(  219) = (   0.4761905  -0.1428571   0.0000000), wk =   0.0045351
        k(  220) = (   0.4761905  -0.0952381   0.0000000), wk =   0.0045351
        k(  221) = (   0.4761905  -0.0476190   0.0000000), wk =   0.0045351

     Dense  grid:   775399 G-vectors     FFT dimensions: (  72,  72, 360)

     Smooth grid:   196125 G-vectors     FFT dimensions: (  45,  45, 225)

     Dynamical RAM for                 wfc:       2.43 MB

     Dynamical RAM for     wfc (w. buffer):     539.54 MB

     Dynamical RAM for           str. fact:       0.99 MB

     Dynamical RAM for           local pot:       0.00 MB

     Dynamical RAM for          nlocal pot:       2.65 MB

     Dynamical RAM for                qrad:      11.12 MB

     Dynamical RAM for          rho,v,vnew:      13.04 MB

     Dynamical RAM for               rhoin:       4.35 MB

     Dynamical RAM for            rho*nmix:      31.55 MB

     Dynamical RAM for           G-vectors:       1.91 MB

     Dynamical RAM for          h,s,v(r/c):       1.11 MB

     Dynamical RAM for          <psi|beta>:       0.40 MB

     Dynamical RAM for                 psi:       4.86 MB

     Dynamical RAM for                hpsi:       4.86 MB

     Dynamical RAM for      wfcinit/wfcrot:       3.79 MB

     Estimated static dynamical RAM per process >     579.81 MB

     Estimated max dynamical RAM per process >     622.60 MB

     Estimated total dynamical RAM >      14.59 GB

     Initial potential from superposition of free atoms

     starting charge      77.7613, renormalised to      78.0000

     negative rho (up, down):  2.705E-04 0.000E+00
     Starting wfcs are random

     total cpu time spent up to now is       32.1 secs

     Self-consistent Calculation

     iteration #  1     ecut=    70.00 Ry     beta= 0.70
     Davidson diagonalization with overlap

---- Real-time Memory Report at c_bands before calling an iterative solver
           780 MiB given to the printing process from OS
             0 MiB allocation reported by mallinfo(arena+hblkhd)
         27181 MiB available memory on the node where the printing process lives
------------------
     ethr =  1.00E-02,  avg # of iterations = 12.5

     Threshold (ethr) on eigenvalues was too large:
     Diagonalizing with lowered threshold

     Davidson diagonalization with overlap

---- Real-time Memory Report at c_bands before calling an iterative solver
           790 MiB given to the printing process from OS
             0 MiB allocation reported by mallinfo(arena+hblkhd)
         27031 MiB available memory on the node where the printing process lives
------------------
     ethr =  1.19E-04,  avg # of iterations =  6.0

     negative rho (up, down):  3.130E-06 0.000E+00

     total cpu time spent up to now is      531.0 secs

     total energy              =    -806.63623550 Ry
     estimated scf accuracy    <       0.08130532 Ry

     iteration #  2     ecut=    70.00 Ry     beta= 0.70
     Davidson diagonalization with overlap

---- Real-time Memory Report at c_bands before calling an iterative solver
           792 MiB given to the printing process from OS
             0 MiB allocation reported by mallinfo(arena+hblkhd)
         27019 MiB available memory on the node where the printing process lives
------------------
     ethr =  1.04E-04,  avg # of iterations =  5.3

     negative rho (up, down):  2.280E-05 0.000E+00

     total cpu time spent up to now is      665.2 secs

     total energy              =    -806.59289806 Ry
     estimated scf accuracy    <       0.42362605 Ry

     iteration #  3     ecut=    70.00 Ry     beta= 0.70
     Davidson diagonalization with overlap

---- Real-time Memory Report at c_bands before calling an iterative solver
           794 MiB given to the printing process from OS
             0 MiB allocation reported by mallinfo(arena+hblkhd)
         26990 MiB available memory on the node where the printing process lives
------------------
     ethr =  1.04E-04,  avg # of iterations =  5.3

     negative rho (up, down):  1.973E-05 0.000E+00

     total cpu time spent up to now is      787.7 secs

     total energy              =    -806.64707847 Ry
     estimated scf accuracy    <       0.22670372 Ry

     iteration #  4     ecut=    70.00 Ry     beta= 0.70
     Davidson diagonalization with overlap

---- Real-time Memory Report at c_bands before calling an iterative solver
           795 MiB given to the printing process from OS
             0 MiB allocation reported by mallinfo(arena+hblkhd)
         26975 MiB available memory on the node where the printing process lives
------------------
     ethr =  1.04E-04,  avg # of iterations =  3.4

     negative rho (up, down):  2.234E-06 0.000E+00

     total cpu time spent up to now is      891.6 secs

     total energy              =    -806.67109972 Ry
     estimated scf accuracy    <       0.00303593 Ry

     iteration #  5     ecut=    70.00 Ry     beta= 0.70
     Davidson diagonalization with overlap

---- Real-time Memory Report at c_bands before calling an iterative solver
           796 MiB given to the printing process from OS
             0 MiB allocation reported by mallinfo(arena+hblkhd)
         26954 MiB available memory on the node where the printing process lives
------------------
     ethr =  3.89E-06,  avg # of iterations =  5.9

     negative rho (up, down):  2.214E-06 0.000E+00

     total cpu time spent up to now is     1014.9 secs

     total energy              =    -806.67156251 Ry
     estimated scf accuracy    <       0.01142786 Ry

     iteration #  6     ecut=    70.00 Ry     beta= 0.70
     Davidson diagonalization with overlap

---- Real-time Memory Report at c_bands before calling an iterative solver
           797 MiB given to the printing process from OS
             0 MiB allocation reported by mallinfo(arena+hblkhd)
         26943 MiB available memory on the node where the printing process lives
------------------
     ethr =  3.89E-06,  avg # of iterations =  5.9

     negative rho (up, down):  2.614E-08 0.000E+00

     total cpu time spent up to now is     1121.0 secs

     total energy              =    -806.67188035 Ry
     estimated scf accuracy    <       0.00352706 Ry

     iteration #  7     ecut=    70.00 Ry     beta= 0.70
     Davidson diagonalization with overlap

---- Real-time Memory Report at c_bands before calling an iterative solver
           798 MiB given to the printing process from OS
             0 MiB allocation reported by mallinfo(arena+hblkhd)
         26931 MiB available memory on the node where the printing process lives
------------------
     ethr =  3.89E-06,  avg # of iterations =  3.3

     total cpu time spent up to now is     1217.3 secs

     total energy              =    -806.67213329 Ry
     estimated scf accuracy    <       0.00019591 Ry

     iteration #  8     ecut=    70.00 Ry     beta= 0.70
     Davidson diagonalization with overlap

---- Real-time Memory Report at c_bands before calling an iterative solver
           799 MiB given to the printing process from OS
             0 MiB allocation reported by mallinfo(arena+hblkhd)
         26917 MiB available memory on the node where the printing process lives
------------------
     ethr =  2.51E-07,  avg # of iterations =  5.8

     total cpu time spent up to now is     1331.8 secs

     total energy              =    -806.67217041 Ry
     estimated scf accuracy    <       0.00013361 Ry

     iteration #  9     ecut=    70.00 Ry     beta= 0.70
     Davidson diagonalization with overlap

---- Real-time Memory Report at c_bands before calling an iterative solver
           800 MiB given to the printing process from OS
             0 MiB allocation reported by mallinfo(arena+hblkhd)
         26903 MiB available memory on the node where the printing process lives
------------------
     ethr =  1.71E-07,  avg # of iterations =  2.0

     total cpu time spent up to now is     1421.1 secs

     total energy              =    -806.67216901 Ry
     estimated scf accuracy    <       0.00003861 Ry

     iteration # 10     ecut=    70.00 Ry     beta= 0.70
     Davidson diagonalization with overlap

---- Real-time Memory Report at c_bands before calling an iterative solver
           801 MiB given to the printing process from OS
             0 MiB allocation reported by mallinfo(arena+hblkhd)
         26891 MiB available memory on the node where the printing process lives
------------------
     ethr =  4.95E-08,  avg # of iterations =  4.6

     total cpu time spent up to now is     1525.3 secs

     total energy              =    -806.67217428 Ry
     estimated scf accuracy    <       0.00000099 Ry

     iteration # 11     ecut=    70.00 Ry     beta= 0.70
     Davidson diagonalization with overlap

---- Real-time Memory Report at c_bands before calling an iterative solver
           803 MiB given to the printing process from OS
             0 MiB allocation reported by mallinfo(arena+hblkhd)
         26877 MiB available memory on the node where the printing process lives
------------------
     ethr =  1.27E-09,  avg # of iterations =  5.1

     total cpu time spent up to now is     1639.3 secs

     total energy              =    -806.67217400 Ry
     estimated scf accuracy    <       0.00000402 Ry

     iteration # 12     ecut=    70.00 Ry     beta= 0.70
     Davidson diagonalization with overlap

---- Real-time Memory Report at c_bands before calling an iterative solver
           812 MiB given to the printing process from OS
             0 MiB allocation reported by mallinfo(arena+hblkhd)
         26868 MiB available memory on the node where the printing process lives
------------------
     ethr =  1.27E-09,  avg # of iterations =  4.6

     total cpu time spent up to now is     1743.4 secs

     End of self-consistent calculation

          k = 0.0000 0.0000 0.0000 ( 24437 PWs)   bands (ev):

   -35.5691 -35.5691 -35.5690 -35.5690 -35.5379 -35.5379 -35.5379 -35.5379
   -35.4637 -35.4637 -35.4317 -35.4317 -34.1102 -34.1102 -34.1102 -34.1102
   -34.0840 -34.0840 -34.0839 -34.0839 -34.0697 -34.0697 -34.0697 -34.0697
   -34.0017 -34.0017 -33.9857 -33.9857 -33.9598 -33.9598 -28.2099 -28.2099
   -28.2097 -28.2097 -28.2015 -28.2015 -28.2013 -28.2013 -26.9706 -26.9706
   -26.9703 -26.9703 -26.9617 -26.9617 -26.9615 -26.9615 -26.9592 -26.9592
   -26.9590 -26.9590 -10.6719 -10.6719 -10.1364 -10.1364  -9.0609  -9.0609
    -6.3163  -6.3163  -4.9471  -4.9471  -0.5718  -0.5718  -0.1264  -0.1264
     0.1525   0.1525   0.4090   0.4090   0.4752   0.4752   0.5820   0.5820
     0.8553   0.8553   1.1564   1.1564   1.3288   1.3288

     occupation numbers 
     1.0000   1.0000   1.0000   1.0000   1.0000   1.0000   1.0000   1.0000
     1.0000   1.0000   1.0000   1.0000   1.0000   1.0000   1.0000   1.0000
     1.0000   1.0000   1.0000   1.0000   1.0000   1.0000   1.0000   1.0000
     1.0000   1.0000   1.0000   1.0000   1.0000   1.0000   1.0000   1.0000
     1.0000   1.0000   1.0000   1.0000   1.0000   1.0000   1.0000   1.0000
     1.0000   1.0000   1.0000   1.0000   1.0000   1.0000   1.0000   1.0000
     1.0000   1.0000   1.0000   1.0000   1.0000   1.0000   1.0000   1.0000
     1.0000   1.0000   1.0000   1.0000   1.0000   1.0000   1.0000   1.0000
     1.0000   1.0000   1.0000   1.0000   1.0000   1.0000   1.0000   1.0000
     1.0000   1.0000   1.0000   1.0000   1.0000   1.0000

          k = 0.0000 0.0566 0.0000 ( 24425 PWs)   bands (ev):

   -35.5691 -35.5691 -35.5690 -35.5690 -35.5379 -35.5379 -35.5379 -35.5379
   -35.4637 -35.4637 -35.4317 -35.4317 -34.1102 -34.1102 -34.1102 -34.1102
   -34.0840 -34.0840 -34.0839 -34.0839 -34.0697 -34.0697 -34.0697 -34.0697
   -34.0017 -34.0017 -33.9857 -33.9857 -33.9598 -33.9598 -28.2099 -28.2099
   -28.2096 -28.2096 -28.2015 -28.2014 -28.2013 -28.2013 -26.9705 -26.9705
   -26.9703 -26.9703 -26.9617 -26.9616 -26.9615 -26.9614 -26.9592 -26.9592
   -26.9591 -26.9590 -10.6521 -10.6521 -10.1182 -10.1182  -9.0497  -9.0497
    -6.3188  -6.3188  -4.9794  -4.9794  -0.6014  -0.6014  -0.2916  -0.2914
     0.1180   0.1188   0.2291   0.2295   0.3298   0.3303   0.6094   0.6107
     0.9057   0.9059   1.1029   1.1031   1.4633   1.4638

     occupation numbers 
     1.0000   1.0000   1.0000   1.0000   1.0000   1.0000   1.0000   1.0000
     1.0000   1.0000   1.0000   1.0000   1.0000   1.0000   1.0000   1.0000
     1.0000   1.0000   1.0000   1.0000   1.0000   1.0000   1.0000   1.0000
     1.0000   1.0000   1.0000   1.0000   1.0000   1.0000   1.0000   1.0000
     1.0000   1.0000   1.0000   1.0000   1.0000   1.0000   1.0000   1.0000
     1.0000   1.0000   1.0000   1.0000   1.0000   1.0000   1.0000   1.0000
     1.0000   1.0000   1.0000   1.0000   1.0000   1.0000   1.0000   1.0000
     1.0000   1.0000   1.0000   1.0000   1.0000   1.0000   1.0000   1.0000
     1.0000   1.0000   1.0000   1.0000   1.0000   1.0000   1.0000   1.0000
     1.0000   1.0000   1.0000   1.0000   1.0000   1.0000

          k = 0.0000 0.1133 0.0000 ( 24461 PWs)   bands (ev):

   -35.5690 -35.5690 -35.5690 -35.5690 -35.5379 -35.5379 -35.5379 -35.5378
   -35.4637 -35.4637 -35.4316 -35.4316 -34.1102 -34.1102 -34.1101 -34.1101
   -34.0840 -34.0840 -34.0839 -34.0839 -34.0697 -34.0697 -34.0697 -34.0697
   -34.0017 -34.0017 -33.9857 -33.9857 -33.9597 -33.9597 -28.2099 -28.2098
   -28.2096 -28.2096 -28.2015 -28.2014 -28.2013 -28.2012 -26.9704 -26.9704
   -26.9702 -26.9702 -26.9617 -26.9616 -26.9615 -26.9614 -26.9593 -26.9592
   -26.9591 -26.9590 -10.5930 -10.5930 -10.0640 -10.0640  -9.0171  -9.0171
    -6.3282  -6.3282  -5.0762  -5.0762  -0.7429  -0.7428  -0.5936  -0.5934
    -0.1985  -0.1978   0.0491   0.0493   0.1769   0.1771   0.4419   0.4424
     0.8441   0.8445   1.2979   1.2979   1.5786   1.5792

     occupation numbers 
     1.0000   1.0000   1.0000   1.0000   1.0000   1.0000   1.0000   1.0000
     1.0000   1.0000   1.0000   1.0000   1.0000   1.0000   1.0000   1.0000
     1.0000   1.0000   1.0000   1.0000   1.0000   1.0000   1.0000   1.0000
     1.0000   1.0000   1.0000   1.0000   1.0000   1.0000   1.0000   1.0000
     1.0000   1.0000   1.0000   1.0000   1.0000   1.0000   1.0000   1.0000
     1.0000   1.0000   1.0000   1.0000   1.0000   1.0000   1.0000   1.0000
     1.0000   1.0000   1.0000   1.0000   1.0000   1.0000   1.0000   1.0000
     1.0000   1.0000   1.0000   1.0000   1.0000   1.0000   1.0000   1.0000
     1.0000   1.0000   1.0000   1.0000   1.0000   1.0000   1.0000   1.0000
     1.0000   1.0000   1.0000   1.0000   1.0000   1.0000

          k = 0.0000 0.1699 0.0000 ( 24468 PWs)   bands (ev):

   -35.5690 -35.5690 -35.5689 -35.5689 -35.5379 -35.5379 -35.5379 -35.5378
   -35.4637 -35.4637 -35.4316 -35.4316 -34.1101 -34.1101 -34.1101 -34.1100
   -34.0840 -34.0840 -34.0839 -34.0839 -34.0697 -34.0697 -34.0696 -34.0696
   -34.0017 -34.0017 -33.9857 -33.9857 -33.9596 -33.9596 -28.2098 -28.2097
   -28.2095 -28.2095 -28.2016 -28.2015 -28.2014 -28.2012 -26.9702 -26.9702
   -26.9700 -26.9700 -26.9617 -26.9616 -26.9615 -26.9614 -26.9594 -26.9592
   -26.9591 -26.9590 -10.4953 -10.4953  -9.9750  -9.9750  -8.9653  -8.9653
    -6.3506  -6.3505  -5.2360  -5.2360  -1.1428  -1.1425  -0.7663  -0.7662
    -0.5402  -0.5399  -0.1746  -0.1744  -0.0596  -0.0593   0.3045   0.3048
     0.8371   0.8376   1.2927   1.2929   1.5557   1.5563

     occupation numbers 
     1.0000   1.0000   1.0000   1.0000   1.0000   1.0000   1.0000   1.0000
     1.0000   1.0000   1.0000   1.0000   1.0000   1.0000   1.0000   1.0000
     1.0000   1.0000   1.0000   1.0000   1.0000   1.0000   1.0000   1.0000
     1.0000   1.0000   1.0000   1.0000   1.0000   1.0000   1.0000   1.0000
     1.0000   1.0000   1.0000   1.0000   1.0000   1.0000   1.0000   1.0000
     1.0000   1.0000   1.0000   1.0000   1.0000   1.0000   1.0000   1.0000
     1.0000   1.0000   1.0000   1.0000   1.0000   1.0000   1.0000   1.0000
     1.0000   1.0000   1.0000   1.0000   1.0000   1.0000   1.0000   1.0000
     1.0000   1.0000   1.0000   1.0000   1.0000   1.0000   1.0000   1.0000
     1.0000   1.0000   1.0000   1.0000   1.0000   1.0000

          k = 0.0000 0.2265 0.0000 ( 24502 PWs)   bands (ev):

   -35.5689 -35.5689 -35.5689 -35.5689 -35.5379 -35.5378 -35.5378 -35.5378
   -35.4637 -35.4637 -35.4315 -35.4315 -34.1100 -34.1100 -34.1100 -34.1099
   -34.0840 -34.0840 -34.0839 -34.0839 -34.0696 -34.0696 -34.0696 -34.0696
   -34.0016 -34.0016 -33.9857 -33.9857 -33.9595 -33.9595 -28.2096 -28.2096
   -28.2094 -28.2094 -28.2016 -28.2015 -28.2014 -28.2013 -26.9700 -26.9700
   -26.9698 -26.9698 -26.9618 -26.9617 -26.9616 -26.9614 -26.9594 -26.9593
   -26.9591 -26.9590 -10.3603 -10.3603  -9.8534  -9.8534  -8.8989  -8.8989
    -6.3953  -6.3953  -5.4526  -5.4526  -1.5880  -1.5877  -0.9378  -0.9375
    -0.8663  -0.8661  -0.4282  -0.4281  -0.2641  -0.2639   0.2435   0.2439
     0.7377   0.7382   1.0344   1.0348   1.6546   1.6551

     occupation numbers 
     1.0000   1.0000   1.0000   1.0000   1.0000   1.0000   1.0000   1.0000
     1.0000   1.0000   1.0000   1.0000   1.0000   1.0000   1.0000   1.0000
     1.0000   1.0000   1.0000   1.0000   1.0000   1.0000   1.0000   1.0000
     1.0000   1.0000   1.0000   1.0000   1.0000   1.0000   1.0000   1.0000
     1.0000   1.0000   1.0000   1.0000   1.0000   1.0000   1.0000   1.0000
     1.0000   1.0000   1.0000   1.0000   1.0000   1.0000   1.0000   1.0000
     1.0000   1.0000   1.0000   1.0000   1.0000   1.0000   1.0000   1.0000
     1.0000   1.0000   1.0000   1.0000   1.0000   1.0000   1.0000   1.0000
     1.0000   1.0000   1.0000   1.0000   1.0000   1.0000   1.0000   1.0000
     1.0000   1.0000   1.0000   1.0000   1.0000   1.0000

          k = 0.0000 0.2832 0.0000 ( 24516 PWs)   bands (ev):

   -35.5689 -35.5688 -35.5688 -35.5688 -35.5379 -35.5378 -35.5378 -35.5378
   -35.4637 -35.4637 -35.4314 -35.4314 -34.1099 -34.1099 -34.1098 -34.1098
   -34.0840 -34.0840 -34.0839 -34.0839 -34.0696 -34.0696 -34.0695 -34.0695
   -34.0016 -34.0016 -33.9857 -33.9857 -33.9594 -33.9594 -28.2095 -28.2095
   -28.2093 -28.2093 -28.2017 -28.2015 -28.2014 -28.2013 -26.9698 -26.9697
   -26.9696 -26.9695 -26.9618 -26.9617 -26.9616 -26.9615 -26.9594 -26.9593
   -26.9591 -26.9590 -10.1903 -10.1903  -9.7028  -9.7028  -8.8246  -8.8246
    -6.4746  -6.4746  -5.7121  -5.7121  -1.9985  -1.9983  -1.2234  -1.2230
    -1.0578  -1.0574  -0.6443  -0.6442  -0.4415  -0.4414   0.2059   0.2064
     0.4804   0.4807   0.9235   0.9237   1.6128   1.6133

     occupation numbers 
     1.0000   1.0000   1.0000   1.0000   1.0000   1.0000   1.0000   1.0000
     1.0000   1.0000   1.0000   1.0000   1.0000   1.0000   1.0000   1.0000
     1.0000   1.0000   1.0000   1.0000   1.0000   1.0000   1.0000   1.0000
     1.0000   1.0000   1.0000   1.0000   1.0000   1.0000   1.0000   1.0000
     1.0000   1.0000   1.0000   1.0000   1.0000   1.0000   1.0000   1.0000
     1.0000   1.0000   1.0000   1.0000   1.0000   1.0000   1.0000   1.0000
     1.0000   1.0000   1.0000   1.0000   1.0000   1.0000   1.0000   1.0000
     1.0000   1.0000   1.0000   1.0000   1.0000   1.0000   1.0000   1.0000
     1.0000   1.0000   1.0000   1.0000   1.0000   1.0000   1.0000   1.0000
     1.0000   1.0000   1.0000   1.0000   1.0000   1.0000

          k = 0.0000 0.3398 0.0000 ( 24526 PWs)   bands (ev):

   -35.5688 -35.5688 -35.5687 -35.5687 -35.5378 -35.5378 -35.5378 -35.5378
   -35.4637 -35.4637 -35.4314 -35.4314 -34.1098 -34.1097 -34.1097 -34.1097
   -34.0840 -34.0840 -34.0839 -34.0839 -34.0695 -34.0695 -34.0695 -34.0695
   -34.0016 -34.0016 -33.9857 -33.9857 -33.9593 -33.9593 -28.2094 -28.2093
   -28.2092 -28.2091 -28.2017 -28.2016 -28.2015 -28.2013 -26.9695 -26.9695
   -26.9693 -26.9693 -26.9619 -26.9618 -26.9617 -26.9615 -26.9594 -26.9593
   -26.9591 -26.9590  -9.9885  -9.9885  -9.5291  -9.5291  -8.7527  -8.7527
    -6.6000  -6.5999  -5.9913  -5.9913  -2.3509  -2.3507  -1.4953  -1.4950
    -1.2079  -1.2076  -0.8044  -0.8042  -0.6090  -0.6089   0.0902   0.0906
     0.3004   0.3005   0.8694   0.8695   1.4574   1.4578

     occupation numbers 
     1.0000   1.0000   1.0000   1.0000   1.0000   1.0000   1.0000   1.0000
     1.0000   1.0000   1.0000   1.0000   1.0000   1.0000   1.0000   1.0000
     1.0000   1.0000   1.0000   1.0000   1.0000   1.0000   1.0000   1.0000
     1.0000   1.0000   1.0000   1.0000   1.0000   1.0000   1.0000   1.0000
     1.0000   1.0000   1.0000   1.0000   1.0000   1.0000   1.0000   1.0000
     1.0000   1.0000   1.0000   1.0000   1.0000   1.0000   1.0000   1.0000
     1.0000   1.0000   1.0000   1.0000   1.0000   1.0000   1.0000   1.0000
     1.0000   1.0000   1.0000   1.0000   1.0000   1.0000   1.0000   1.0000
     1.0000   1.0000   1.0000   1.0000   1.0000   1.0000   1.0000   1.0000
     1.0000   1.0000   1.0000   1.0000   1.0000   1.0000

          k = 0.0000 0.3965 0.0000 ( 24551 PWs)   bands (ev):

   -35.5687 -35.5687 -35.5687 -35.5687 -35.5378 -35.5378 -35.5378 -35.5377
   -35.4637 -35.4637 -35.4313 -35.4313 -34.1097 -34.1096 -34.1096 -34.1096
   -34.0840 -34.0840 -34.0839 -34.0839 -34.0695 -34.0695 -34.0694 -34.0694
   -34.0016 -34.0016 -33.9857 -33.9857 -33.9592 -33.9592 -28.2093 -28.2092
   -28.2091 -28.2090 -28.2017 -28.2016 -28.2015 -28.2014 -26.9693 -26.9693
   -26.9691 -26.9691 -26.9619 -26.9618 -26.9617 -26.9616 -26.9594 -26.9593
   -26.9591 -26.9589  -9.7602  -9.7602  -9.3414  -9.3414  -8.6976  -8.6976
    -6.7752  -6.7752  -6.2606  -6.2606  -2.6368  -2.6366  -1.6949  -1.6947
    -1.3478  -1.3474  -0.9285  -0.9283  -0.7627  -0.7626  -0.1019  -0.1017
     0.2576   0.2579   0.8352   0.8354   1.2696   1.2700

     occupation numbers 
     1.0000   1.0000   1.0000   1.0000   1.0000   1.0000   1.0000   1.0000
     1.0000   1.0000   1.0000   1.0000   1.0000   1.0000   1.0000   1.0000
     1.0000   1.0000   1.0000   1.0000   1.0000   1.0000   1.0000   1.0000
     1.0000   1.0000   1.0000   1.0000   1.0000   1.0000   1.0000   1.0000
     1.0000   1.0000   1.0000   1.0000   1.0000   1.0000   1.0000   1.0000
     1.0000   1.0000   1.0000   1.0000   1.0000   1.0000   1.0000   1.0000
     1.0000   1.0000   1.0000   1.0000   1.0000   1.0000   1.0000   1.0000
     1.0000   1.0000   1.0000   1.0000   1.0000   1.0000   1.0000   1.0000
     1.0000   1.0000   1.0000   1.0000   1.0000   1.0000   1.0000   1.0000
     1.0000   1.0000   1.0000   1.0000   1.0000   1.0000

          k = 0.0000 0.4531 0.0000 ( 24544 PWs)   bands (ev):

   -35.5687 -35.5687 -35.5686 -35.5686 -35.5378 -35.5378 -35.5378 -35.5377
   -35.4637 -35.4637 -35.4313 -35.4313 -34.1096 -34.1095 -34.1095 -34.1095
   -34.0840 -34.0840 -34.0839 -34.0839 -34.0694 -34.0694 -34.0694 -34.0694
   -34.0015 -34.0015 -33.9857 -33.9857 -33.9591 -33.9591 -28.2091 -28.2091
   -28.2089 -28.2089 -28.2017 -28.2017 -28.2015 -28.2014 -26.9692 -26.9691
   -26.9690 -26.9690 -26.9620 -26.9619 -26.9618 -26.9617 -26.9593 -26.9592
   -26.9590 -26.9589  -9.5137  -9.5137  -9.1550  -9.1550  -8.6792  -8.6791
    -6.9820  -6.9820  -6.4927  -6.4926  -2.8549  -2.8548  -1.8071  -1.8069
    -1.4745  -1.4741  -1.0549  -1.0547  -0.8806  -0.8805  -0.2273  -0.2272
     0.2210   0.2214   0.8191   0.8193   1.1065   1.1067

     occupation numbers 
     1.0000   1.0000   1.0000   1.0000   1.0000   1.0000   1.0000   1.0000
     1.0000   1.0000   1.0000   1.0000   1.0000   1.0000   1.0000   1.0000
     1.0000   1.0000   1.0000   1.0000   1.0000   1.0000   1.0000   1.0000
     1.0000   1.0000   1.0000   1.0000   1.0000   1.0000   1.0000   1.0000
     1.0000   1.0000   1.0000   1.0000   1.0000   1.0000   1.0000   1.0000
     1.0000   1.0000   1.0000   1.0000   1.0000   1.0000   1.0000   1.0000
     1.0000   1.0000   1.0000   1.0000   1.0000   1.0000   1.0000   1.0000
     1.0000   1.0000   1.0000   1.0000   1.0000   1.0000   1.0000   1.0000
     1.0000   1.0000   1.0000   1.0000   1.0000   1.0000   1.0000   1.0000
     1.0000   1.0000   1.0000   1.0000   1.0000   1.0000

          k = 0.0000 0.5097 0.0000 ( 24544 PWs)   bands (ev):

   -35.5686 -35.5686 -35.5686 -35.5686 -35.5378 -35.5378 -35.5377 -35.5377
   -35.4637 -35.4637 -35.4312 -35.4312 -34.1095 -34.1095 -34.1095 -34.1094
   -34.0840 -34.0840 -34.0839 -34.0839 -34.0694 -34.0694 -34.0694 -34.0693
   -34.0015 -34.0015 -33.9857 -33.9857 -33.9590 -33.9590 -28.2091 -28.2090
   -28.2089 -28.2088 -28.2017 -28.2017 -28.2015 -28.2014 -26.9690 -26.9690
   -26.9689 -26.9688 -26.9620 -26.9619 -26.9618 -26.9617 -26.9593 -26.9592
   -26.9590 -26.9589  -9.2626  -9.2626  -8.9951  -8.9951  -8.7206  -8.7206
    -7.1733  -7.1733  -6.6674  -6.6674  -3.0040  -3.0039  -1.8327  -1.8325
    -1.5892  -1.5889  -1.1829  -1.1827  -0.9494  -0.9494  -0.2770  -0.2769
     0.1737   0.1740   0.8102   0.8103   1.0007   1.0009

     occupation numbers 
     1.0000   1.0000   1.0000   1.0000   1.0000   1.0000   1.0000   1.0000
     1.0000   1.0000   1.0000   1.0000   1.0000   1.0000   1.0000   1.0000
     1.0000   1.0000   1.0000   1.0000   1.0000   1.0000   1.0000   1.0000
     1.0000   1.0000   1.0000   1.0000   1.0000   1.0000   1.0000   1.0000
     1.0000   1.0000   1.0000   1.0000   1.0000   1.0000   1.0000   1.0000
     1.0000   1.0000   1.0000   1.0000   1.0000   1.0000   1.0000   1.0000
     1.0000   1.0000   1.0000   1.0000   1.0000   1.0000   1.0000   1.0000
     1.0000   1.0000   1.0000   1.0000   1.0000   1.0000   1.0000   1.0000
     1.0000   1.0000   1.0000   1.0000   1.0000   1.0000   1.0000   1.0000
     1.0000   1.0000   1.0000   1.0000   1.0000   1.0000

          k = 0.0000 0.5664 0.0000 ( 24543 PWs)   bands (ev):

   -35.5686 -35.5686 -35.5686 -35.5686 -35.5378 -35.5378 -35.5377 -35.5377
   -35.4637 -35.4637 -35.4312 -35.4312 -34.1095 -34.1095 -34.1094 -34.1094
   -34.0840 -34.0840 -34.0839 -34.0839 -34.0694 -34.0693 -34.0693 -34.0693
   -34.0015 -34.0015 -33.9857 -33.9857 -33.9590 -33.9590 -28.2090 -28.2090
   -28.2088 -28.2088 -28.2017 -28.2017 -28.2015 -28.2015 -26.9690 -26.9690
   -26.9688 -26.9688 -26.9620 -26.9620 -26.9618 -26.9618 -26.9592 -26.9592
   -26.9589 -26.9589  -9.0280  -9.0280  -8.8983  -8.8983  -8.8385  -8.8385
    -7.2902  -7.2902  -6.7639  -6.7639  -3.0803  -3.0803  -1.7878  -1.7875
    -1.6961  -1.6958  -1.2629  -1.2628  -0.9811  -0.9810  -0.2851  -0.2850
     0.1364   0.1365   0.7994   0.7995   0.9587   0.9588

     occupation numbers 
     1.0000   1.0000   1.0000   1.0000   1.0000   1.0000   1.0000   1.0000
     1.0000   1.0000   1.0000   1.0000   1.0000   1.0000   1.0000   1.0000
     1.0000   1.0000   1.0000   1.0000   1.0000   1.0000   1.0000   1.0000
     1.0000   1.0000   1.0000   1.0000   1.0000   1.0000   1.0000   1.0000
     1.0000   1.0000   1.0000   1.0000   1.0000   1.0000   1.0000   1.0000
     1.0000   1.0000   1.0000   1.0000   1.0000   1.0000   1.0000   1.0000
     1.0000   1.0000   1.0000   1.0000   1.0000   1.0000   1.0000   1.0000
     1.0000   1.0000   1.0000   1.0000   1.0000   1.0000   1.0000   1.0000
     1.0000   1.0000   1.0000   1.0000   1.0000   1.0000   1.0000   1.0000
     1.0000   1.0000   1.0000   1.0000   1.0000   1.0000

          k = 0.0476 0.0275 0.0000 ( 24427 PWs)   bands (ev):

   -35.5691 -35.5691 -35.5690 -35.5690 -35.5379 -35.5379 -35.5379 -35.5379
   -35.4637 -35.4637 -35.4317 -35.4317 -34.1102 -34.1102 -34.1102 -34.1102
   -34.0840 -34.0840 -34.0839 -34.0839 -34.0697 -34.0697 -34.0697 -34.0697
   -34.0017 -34.0017 -33.9857 -33.9857 -33.9598 -33.9598 -28.2099 -28.2099
   -28.2097 -28.2096 -28.2015 -28.2015 -28.2013 -28.2013 -26.9706 -26.9705
   -26.9703 -26.9703 -26.9617 -26.9617 -26.9615 -26.9614 -26.9592 -26.9592
   -26.9590 -26.9590 -10.6532 -10.6532 -10.1194 -10.1194  -9.0508  -9.0508
    -6.3202  -6.3202  -4.9831  -4.9830  -0.6084  -0.6082  -0.3417  -0.3413
     0.1389   0.1397   0.1899   0.1912   0.3994   0.4003   0.6473   0.6492
     0.9152   0.9163   1.1118   1.1128   1.4510   1.4516

     occupation numbers 
     1.0000   1.0000   1.0000   1.0000   1.0000   1.0000   1.0000   1.0000
     1.0000   1.0000   1.0000   1.0000   1.0000   1.0000   1.0000   1.0000
     1.0000   1.0000   1.0000   1.0000   1.0000   1.0000   1.0000   1.0000
     1.0000   1.0000   1.0000   1.0000   1.0000   1.0000   1.0000   1.0000
     1.0000   1.0000   1.0000   1.0000   1.0000   1.0000   1.0000   1.0000
     1.0000   1.0000   1.0000   1.0000   1.0000   1.0000   1.0000   1.0000
     1.0000   1.0000   1.0000   1.0000   1.0000   1.0000   1.0000   1.0000
     1.0000   1.0000   1.0000   1.0000   1.0000   1.0000   1.0000   1.0000
     1.0000   1.0000   1.0000   1.0000   1.0000   1.0000   1.0000   1.0000
     1.0000   1.0000   1.0000   1.0000   1.0000   1.0000

          k = 0.0476 0.0841 0.0000 ( 24446 PWs)   bands (ev):

   -35.5690 -35.5690 -35.5690 -35.5690 -35.5379 -35.5379 -35.5379 -35.5379
   -35.4637 -35.4637 -35.4316 -35.4316 -34.1102 -34.1102 -34.1102 -34.1101
   -34.0840 -34.0840 -34.0839 -34.0839 -34.0697 -34.0697 -34.0697 -34.0697
   -34.0017 -34.0017 -33.9857 -33.9857 -33.9597 -33.9597 -28.2099 -28.2099
   -28.2096 -28.2096 -28.2015 -28.2014 -28.2013 -28.2012 -26.9705 -26.9705
   -26.9702 -26.9702 -26.9617 -26.9617 -26.9615 -26.9614 -26.9592 -26.9592
   -26.9591 -26.9590 -10.6143 -10.6143 -10.0838 -10.0838  -9.0294  -9.0294
    -6.3270  -6.3270  -5.0495  -5.0495  -0.6920  -0.6919  -0.5646  -0.5645
    -0.1307  -0.1298   0.1178   0.1185   0.2965   0.2972   0.5227   0.5235
     0.8818   0.8821   1.2247   1.2251   1.5741   1.5746

     occupation numbers 
     1.0000   1.0000   1.0000   1.0000   1.0000   1.0000   1.0000   1.0000
     1.0000   1.0000   1.0000   1.0000   1.0000   1.0000   1.0000   1.0000
     1.0000   1.0000   1.0000   1.0000   1.0000   1.0000   1.0000   1.0000
     1.0000   1.0000   1.0000   1.0000   1.0000   1.0000   1.0000   1.0000
     1.0000   1.0000   1.0000   1.0000   1.0000   1.0000   1.0000   1.0000
     1.0000   1.0000   1.0000   1.0000   1.0000   1.0000   1.0000   1.0000
     1.0000   1.0000   1.0000   1.0000   1.0000   1.0000   1.0000   1.0000
     1.0000   1.0000   1.0000   1.0000   1.0000   1.0000   1.0000   1.0000
     1.0000   1.0000   1.0000   1.0000   1.0000   1.0000   1.0000   1.0000
     1.0000   1.0000   1.0000   1.0000   1.0000   1.0000

          k = 0.0476 0.1408 0.0000 ( 24456 PWs)   bands (ev):

   -35.5690 -35.5690 -35.5690 -35.5690 -35.5379 -35.5379 -35.5379 -35.5378
   -35.4637 -35.4637 -35.4316 -35.4316 -34.1101 -34.1101 -34.1101 -34.1101
   -34.0840 -34.0840 -34.0839 -34.0839 -34.0697 -34.0697 -34.0697 -34.0697
   -34.0017 -34.0017 -33.9857 -33.9857 -33.9597 -33.9597 -28.2098 -28.2098
   -28.2096 -28.2095 -28.2016 -28.2015 -28.2013 -28.2012 -26.9703 -26.9703
   -26.9701 -26.9701 -26.9618 -26.9617 -26.9615 -26.9614 -26.9593 -26.9592
   -26.9591 -26.9590 -10.5365 -10.5365 -10.0128 -10.0128  -8.9877  -8.9877
    -6.3435  -6.3435  -5.1792  -5.1792  -0.9781  -0.9778  -0.7404  -0.7402
    -0.4954  -0.4948  -0.1035  -0.1030   0.1700   0.1707   0.3706   0.3710
     0.7906   0.7910   1.3916   1.3920   1.5592   1.5598

     occupation numbers 
     1.0000   1.0000   1.0000   1.0000   1.0000   1.0000   1.0000   1.0000
     1.0000   1.0000   1.0000   1.0000   1.0000   1.0000   1.0000   1.0000
     1.0000   1.0000   1.0000   1.0000   1.0000   1.0000   1.0000   1.0000
     1.0000   1.0000   1.0000   1.0000   1.0000   1.0000   1.0000   1.0000
     1.0000   1.0000   1.0000   1.0000   1.0000   1.0000   1.0000   1.0000
     1.0000   1.0000   1.0000   1.0000   1.0000   1.0000   1.0000   1.0000
     1.0000   1.0000   1.0000   1.0000   1.0000   1.0000   1.0000   1.0000
     1.0000   1.0000   1.0000   1.0000   1.0000   1.0000   1.0000   1.0000
     1.0000   1.0000   1.0000   1.0000   1.0000   1.0000   1.0000   1.0000
     1.0000   1.0000   1.0000   1.0000   1.0000   1.0000

          k = 0.0476 0.1974 0.0000 ( 24470 PWs)   bands (ev):

   -35.5690 -35.5689 -35.5689 -35.5689 -35.5379 -35.5379 -35.5379 -35.5378
   -35.4637 -35.4637 -35.4316 -35.4316 -34.1100 -34.1100 -34.1100 -34.1100
   -34.0840 -34.0840 -34.0839 -34.0839 -34.0697 -34.0697 -34.0696 -34.0696
   -34.0016 -34.0016 -33.9857 -33.9857 -33.9596 -33.9596 -28.2097 -28.2097
   -28.2095 -28.2094 -28.2016 -28.2015 -28.2014 -28.2013 -26.9701 -26.9701
   -26.9699 -26.9699 -26.9618 -26.9617 -26.9616 -26.9614 -26.9594 -26.9592
   -26.9591 -26.9590 -10.4206 -10.4206  -9.9080  -9.9080  -8.9289  -8.9288
    -6.3770  -6.3770  -5.3684  -5.3684  -1.3798  -1.3795  -0.9409  -0.9407
    -0.7814  -0.7811  -0.3471  -0.3464  -0.0530  -0.0524   0.2309   0.2312
     0.7649   0.7653   1.2200   1.2203   1.6350   1.6354

     occupation numbers 
     1.0000   1.0000   1.0000   1.0000   1.0000   1.0000   1.0000   1.0000
     1.0000   1.0000   1.0000   1.0000   1.0000   1.0000   1.0000   1.0000
     1.0000   1.0000   1.0000   1.0000   1.0000   1.0000   1.0000   1.0000
     1.0000   1.0000   1.0000   1.0000   1.0000   1.0000   1.0000   1.0000
     1.0000   1.0000   1.0000   1.0000   1.0000   1.0000   1.0000   1.0000
     1.0000   1.0000   1.0000   1.0000   1.0000   1.0000   1.0000   1.0000
     1.0000   1.0000   1.0000   1.0000   1.0000   1.0000   1.0000   1.0000
     1.0000   1.0000   1.0000   1.0000   1.0000   1.0000   1.0000   1.0000
     1.0000   1.0000   1.0000   1.0000   1.0000   1.0000   1.0000   1.0000
     1.0000   1.0000   1.0000   1.0000   1.0000   1.0000

          k = 0.0476 0.2540 0.0000 ( 24475 PWs)   bands (ev):

   -35.5689 -35.5689 -35.5688 -35.5688 -35.5379 -35.5378 -35.5378 -35.5378
   -35.4637 -35.4637 -35.4315 -35.4315 -34.1099 -34.1099 -34.1099 -34.1099
   -34.0840 -34.0840 -34.0839 -34.0839 -34.0696 -34.0696 -34.0696 -34.0696
   -34.0016 -34.0016 -33.9857 -33.9857 -33.9595 -33.9595 -28.2096 -28.2095
   -28.2094 -28.2093 -28.2017 -28.2015 -28.2014 -28.2013 -26.9699 -26.9699
   -26.9697 -26.9696 -26.9618 -26.9617 -26.9616 -26.9615 -26.9594 -26.9593
   -26.9591 -26.9590 -10.2685 -10.2685  -9.7723  -9.7723  -8.8584  -8.8584
    -6.4382  -6.4381  -5.6076  -5.6076  -1.7920  -1.7917  -1.2149  -1.2146
    -0.9513  -0.9509  -0.5910  -0.5901  -0.3027  -0.3022   0.1506   0.1508
     0.6928   0.6929   0.9827   0.9829   1.6534   1.6538

     occupation numbers 
     1.0000   1.0000   1.0000   1.0000   1.0000   1.0000   1.0000   1.0000
     1.0000   1.0000   1.0000   1.0000   1.0000   1.0000   1.0000   1.0000
     1.0000   1.0000   1.0000   1.0000   1.0000   1.0000   1.0000   1.0000
     1.0000   1.0000   1.0000   1.0000   1.0000   1.0000   1.0000   1.0000
     1.0000   1.0000   1.0000   1.0000   1.0000   1.0000   1.0000   1.0000
     1.0000   1.0000   1.0000   1.0000   1.0000   1.0000   1.0000   1.0000
     1.0000   1.0000   1.0000   1.0000   1.0000   1.0000   1.0000   1.0000
     1.0000   1.0000   1.0000   1.0000   1.0000   1.0000   1.0000   1.0000
     1.0000   1.0000   1.0000   1.0000   1.0000   1.0000   1.0000   1.0000
     1.0000   1.0000   1.0000   1.0000   1.0000   1.0000

          k = 0.0476 0.3107 0.0000 ( 24489 PWs)   bands (ev):

   -35.5688 -35.5688 -35.5688 -35.5688 -35.5379 -35.5378 -35.5378 -35.5378
   -35.4637 -35.4637 -35.4314 -35.4314 -34.1098 -34.1098 -34.1098 -34.1098
   -34.0840 -34.0840 -34.0839 -34.0839 -34.0696 -34.0696 -34.0695 -34.0695
   -34.0016 -34.0016 -33.9857 -33.9857 -33.9593 -33.9593 -28.2095 -28.2094
   -28.2093 -28.2092 -28.2017 -28.2016 -28.2014 -28.2013 -26.9697 -26.9696
   -26.9695 -26.9694 -26.9619 -26.9618 -26.9616 -26.9615 -26.9594 -26.9593
   -26.9591 -26.9590 -10.0829 -10.0828  -9.6101  -9.6101  -8.7845  -8.7845
    -6.5387  -6.5386  -5.8789  -5.8789  -2.1689  -2.1687  -1.4594  -1.4591
    -1.1093  -1.1088  -0.8227  -0.8219  -0.4896  -0.4892   0.0644   0.0647
     0.5214   0.5218   0.8657   0.8660   1.5602   1.5606

     occupation numbers 
     1.0000   1.0000   1.0000   1.0000   1.0000   1.0000   1.0000   1.0000
     1.0000   1.0000   1.0000   1.0000   1.0000   1.0000   1.0000   1.0000
     1.0000   1.0000   1.0000   1.0000   1.0000   1.0000   1.0000   1.0000
     1.0000   1.0000   1.0000   1.0000   1.0000   1.0000   1.0000   1.0000
     1.0000   1.0000   1.0000   1.0000   1.0000   1.0000   1.0000   1.0000
     1.0000   1.0000   1.0000   1.0000   1.0000   1.0000   1.0000   1.0000
     1.0000   1.0000   1.0000   1.0000   1.0000   1.0000   1.0000   1.0000
     1.0000   1.0000   1.0000   1.0000   1.0000   1.0000   1.0000   1.0000
     1.0000   1.0000   1.0000   1.0000   1.0000   1.0000   1.0000   1.0000
     1.0000   1.0000   1.0000   1.0000   1.0000   1.0000

          k = 0.0476 0.3673 0.0000 ( 24539 PWs)   bands (ev):

   -35.5688 -35.5687 -35.5687 -35.5687 -35.5378 -35.5378 -35.5378 -35.5378
   -35.4637 -35.4637 -35.4313 -35.4313 -34.1097 -34.1097 -34.1097 -34.1096
   -34.0840 -34.0840 -34.0839 -34.0839 -34.0695 -34.0695 -34.0694 -34.0694
   -34.0016 -34.0016 -33.9857 -33.9857 -33.9592 -33.9592 -28.2093 -28.2093
   -28.2091 -28.2090 -28.2017 -28.2016 -28.2015 -28.2013 -26.9695 -26.9694
   -26.9693 -26.9692 -26.9619 -26.9618 -26.9617 -26.9616 -26.9594 -26.9593
   -26.9591 -26.9589  -9.8678  -9.8678  -9.4288  -9.4288  -8.7190  -8.7190
    -6.6874  -6.6874  -6.1559  -6.1559  -2.4882  -2.4881  -1.6469  -1.6466
    -1.2825  -1.2821  -1.0091  -1.0084  -0.6157  -0.6153  -0.0715  -0.0710
     0.3702   0.3708   0.8241   0.8243   1.4006   1.4009

     occupation numbers 
     1.0000   1.0000   1.0000   1.0000   1.0000   1.0000   1.0000   1.0000
     1.0000   1.0000   1.0000   1.0000   1.0000   1.0000   1.0000   1.0000
     1.0000   1.0000   1.0000   1.0000   1.0000   1.0000   1.0000   1.0000
     1.0000   1.0000   1.0000   1.0000   1.0000   1.0000   1.0000   1.0000
     1.0000   1.0000   1.0000   1.0000   1.0000   1.0000   1.0000   1.0000
     1.0000   1.0000   1.0000   1.0000   1.0000   1.0000   1.0000   1.0000
     1.0000   1.0000   1.0000   1.0000   1.0000   1.0000   1.0000   1.0000
     1.0000   1.0000   1.0000   1.0000   1.0000   1.0000   1.0000   1.0000
     1.0000   1.0000   1.0000   1.0000   1.0000   1.0000   1.0000   1.0000
     1.0000   1.0000   1.0000   1.0000   1.0000   1.0000

          k = 0.0476 0.4239 0.0000 ( 24550 PWs)   bands (ev):

   -35.5687 -35.5687 -35.5687 -35.5686 -35.5378 -35.5378 -35.5378 -35.5377
   -35.4637 -35.4637 -35.4313 -35.4313 -34.1096 -34.1096 -34.1096 -34.1095
   -34.0840 -34.0840 -34.0839 -34.0839 -34.0694 -34.0694 -34.0694 -34.0694
   -34.0015 -34.0015 -33.9857 -33.9857 -33.9591 -33.9591 -28.2092 -28.2091
   -28.2090 -28.2089 -28.2017 -28.2016 -28.2015 -28.2014 -26.9693 -26.9692
   -26.9691 -26.9690 -26.9620 -26.9619 -26.9618 -26.9616 -26.9593 -26.9592
   -26.9590 -26.9589  -9.6298  -9.6298  -9.2399  -9.2399  -8.6787  -8.6787
    -6.8803  -6.8803  -6.4086  -6.4086  -2.7412  -2.7411  -1.7695  -1.7693
    -1.4468  -1.4464  -1.1528  -1.1523  -0.7128  -0.7124  -0.2246  -0.2240
     0.2887   0.2894   0.8073   0.8075   1.2299   1.2302

     occupation numbers 
     1.0000   1.0000   1.0000   1.0000   1.0000   1.0000   1.0000   1.0000
     1.0000   1.0000   1.0000   1.0000   1.0000   1.0000   1.0000   1.0000
     1.0000   1.0000   1.0000   1.0000   1.0000   1.0000   1.0000   1.0000
     1.0000   1.0000   1.0000   1.0000   1.0000   1.0000   1.0000   1.0000
     1.0000   1.0000   1.0000   1.0000   1.0000   1.0000   1.0000   1.0000
     1.0000   1.0000   1.0000   1.0000   1.0000   1.0000   1.0000   1.0000
     1.0000   1.0000   1.0000   1.0000   1.0000   1.0000   1.0000   1.0000
     1.0000   1.0000   1.0000   1.0000   1.0000   1.0000   1.0000   1.0000
     1.0000   1.0000   1.0000   1.0000   1.0000   1.0000   1.0000   1.0000
     1.0000   1.0000   1.0000   1.0000   1.0000   1.0000

          k = 0.0476 0.4806 0.0000 ( 24546 PWs)   bands (ev):

   -35.5687 -35.5686 -35.5686 -35.5686 -35.5378 -35.5378 -35.5378 -35.5377
   -35.4637 -35.4637 -35.4312 -35.4312 -34.1095 -34.1095 -34.1095 -34.1095
   -34.0840 -34.0840 -34.0839 -34.0839 -34.0694 -34.0694 -34.0694 -34.0694
   -34.0015 -34.0015 -33.9857 -33.9857 -33.9590 -33.9590 -28.2092 -28.2090
   -28.2089 -28.2088 -28.2017 -28.2017 -28.2015 -28.2014 -26.9691 -26.9690
   -26.9690 -26.9688 -26.9620 -26.9619 -26.9618 -26.9617 -26.9593 -26.9592
   -26.9590 -26.9589  -9.3797  -9.3797  -9.0631  -9.0631  -8.6855  -8.6855
[...]
   -26.9587 -26.9587  -8.9615  -8.9614  -8.9516  -8.9516  -8.9183  -8.9183
    -7.3367  -7.3367  -6.8006  -6.8006  -3.0705  -3.0704  -1.7916  -1.7907
    -1.6905  -1.6894  -1.3179  -1.3178  -0.8483  -0.8479  -0.3202  -0.3198
     0.2597   0.2601   0.8460   0.8461   1.1071   1.1072

     occupation numbers 
     1.0000   1.0000   1.0000   1.0000   1.0000   1.0000   1.0000   1.0000
     1.0000   1.0000   1.0000   1.0000   1.0000   1.0000   1.0000   1.0000
     1.0000   1.0000   1.0000   1.0000   1.0000   1.0000   1.0000   1.0000
     1.0000   1.0000   1.0000   1.0000   1.0000   1.0000   1.0000   1.0000
     1.0000   1.0000   1.0000   1.0000   1.0000   1.0000   1.0000   1.0000
     1.0000   1.0000   1.0000   1.0000   1.0000   1.0000   1.0000   1.0000
     1.0000   1.0000   1.0000   1.0000   1.0000   1.0000   1.0000   1.0000
     1.0000   1.0000   1.0000   1.0000   1.0000   1.0000   1.0000   1.0000
     1.0000   1.0000   1.0000   1.0000   1.0000   1.0000   1.0000   1.0000
     1.0000   1.0000   1.0000   1.0000   1.0000   1.0000

          k = 0.4762-0.2914 0.0000 ( 24512 PWs)   bands (ev):

   -35.5686 -35.5686 -35.5686 -35.5686 -35.5378 -35.5378 -35.5378 -35.5377
   -35.4637 -35.4637 -35.4312 -35.4312 -34.1095 -34.1095 -34.1095 -34.1095
   -34.0840 -34.0840 -34.0839 -34.0839 -34.0694 -34.0694 -34.0694 -34.0694
   -34.0015 -34.0015 -33.9857 -33.9857 -33.9590 -33.9590 -28.2092 -28.2092
   -28.2090 -28.2090 -28.2017 -28.2017 -28.2014 -28.2014 -26.9691 -26.9691
   -26.9689 -26.9689 -26.9622 -26.9622 -26.9620 -26.9620 -26.9590 -26.9590
   -26.9587 -26.9587  -9.0668  -9.0668  -8.9424  -8.9423  -8.8773  -8.8773
    -7.3191  -7.3191  -6.7666  -6.7666  -3.0743  -3.0743  -1.7771  -1.7767
    -1.6623  -1.6619  -1.2191  -1.2190  -0.8730  -0.8730  -0.2457  -0.2456
     0.1989   0.1990   0.8638   0.8638   1.0859   1.0859

     occupation numbers 
     1.0000   1.0000   1.0000   1.0000   1.0000   1.0000   1.0000   1.0000
     1.0000   1.0000   1.0000   1.0000   1.0000   1.0000   1.0000   1.0000
     1.0000   1.0000   1.0000   1.0000   1.0000   1.0000   1.0000   1.0000
     1.0000   1.0000   1.0000   1.0000   1.0000   1.0000   1.0000   1.0000
     1.0000   1.0000   1.0000   1.0000   1.0000   1.0000   1.0000   1.0000
     1.0000   1.0000   1.0000   1.0000   1.0000   1.0000   1.0000   1.0000
     1.0000   1.0000   1.0000   1.0000   1.0000   1.0000   1.0000   1.0000
     1.0000   1.0000   1.0000   1.0000   1.0000   1.0000   1.0000   1.0000
     1.0000   1.0000   1.0000   1.0000   1.0000   1.0000   1.0000   1.0000
     1.0000   1.0000   1.0000   1.0000   1.0000   1.0000

          k = 0.4762-0.2348 0.0000 ( 24495 PWs)   bands (ev):

   -35.5687 -35.5686 -35.5686 -35.5686 -35.5378 -35.5378 -35.5378 -35.5377
   -35.4637 -35.4637 -35.4313 -35.4313 -34.1095 -34.1095 -34.1095 -34.1095
   -34.0840 -34.0840 -34.0839 -34.0839 -34.0694 -34.0694 -34.0694 -34.0694
   -34.0015 -34.0015 -33.9857 -33.9857 -33.9590 -33.9590 -28.2092 -28.2091
   -28.2090 -28.2089 -28.2017 -28.2016 -28.2014 -28.2014 -26.9692 -26.9691
   -26.9690 -26.9689 -26.9623 -26.9622 -26.9620 -26.9619 -26.9590 -26.9590
   -26.9587 -26.9587  -9.1741  -9.1741  -8.9718  -8.9718  -8.7965  -8.7965
    -7.2752  -7.2751  -6.7535  -6.7535  -3.0317  -3.0317  -1.8313  -1.8310
    -1.6093  -1.6092  -1.3030  -1.3027  -0.8163  -0.8159  -0.3186  -0.3182
     0.2729   0.2735   0.8574   0.8575   1.1279   1.1280

     occupation numbers 
     1.0000   1.0000   1.0000   1.0000   1.0000   1.0000   1.0000   1.0000
     1.0000   1.0000   1.0000   1.0000   1.0000   1.0000   1.0000   1.0000
     1.0000   1.0000   1.0000   1.0000   1.0000   1.0000   1.0000   1.0000
     1.0000   1.0000   1.0000   1.0000   1.0000   1.0000   1.0000   1.0000
     1.0000   1.0000   1.0000   1.0000   1.0000   1.0000   1.0000   1.0000
     1.0000   1.0000   1.0000   1.0000   1.0000   1.0000   1.0000   1.0000
     1.0000   1.0000   1.0000   1.0000   1.0000   1.0000   1.0000   1.0000
     1.0000   1.0000   1.0000   1.0000   1.0000   1.0000   1.0000   1.0000
     1.0000   1.0000   1.0000   1.0000   1.0000   1.0000   1.0000   1.0000
     1.0000   1.0000   1.0000   1.0000   1.0000   1.0000

          k = 0.4762-0.1782 0.0000 ( 24500 PWs)   bands (ev):

   -35.5687 -35.5686 -35.5686 -35.5686 -35.5378 -35.5378 -35.5378 -35.5377
   -35.4636 -35.4636 -35.4313 -35.4313 -34.1095 -34.1095 -34.1095 -34.1095
   -34.0840 -34.0840 -34.0839 -34.0839 -34.0694 -34.0694 -34.0694 -34.0694
   -34.0015 -34.0015 -33.9857 -33.9857 -33.9591 -33.9591 -28.2093 -28.2091
   -28.2090 -28.2089 -28.2017 -28.2016 -28.2015 -28.2014 -26.9692 -26.9690
   -26.9690 -26.9688 -26.9623 -26.9622 -26.9620 -26.9619 -26.9590 -26.9590
   -26.9588 -26.9587  -9.2655  -9.2655  -9.0045  -9.0045  -8.7256  -8.7255
    -7.2100  -7.2100  -6.7626  -6.7626  -2.9468  -2.9468  -1.8639  -1.8635
    -1.6736  -1.6729  -1.4271  -1.4267  -0.7461  -0.7460  -0.4423  -0.4419
     0.3604   0.3612   0.8383   0.8386   1.2830   1.2832

     occupation numbers 
     1.0000   1.0000   1.0000   1.0000   1.0000   1.0000   1.0000   1.0000
     1.0000   1.0000   1.0000   1.0000   1.0000   1.0000   1.0000   1.0000
     1.0000   1.0000   1.0000   1.0000   1.0000   1.0000   1.0000   1.0000
     1.0000   1.0000   1.0000   1.0000   1.0000   1.0000   1.0000   1.0000
     1.0000   1.0000   1.0000   1.0000   1.0000   1.0000   1.0000   1.0000
     1.0000   1.0000   1.0000   1.0000   1.0000   1.0000   1.0000   1.0000
     1.0000   1.0000   1.0000   1.0000   1.0000   1.0000   1.0000   1.0000
     1.0000   1.0000   1.0000   1.0000   1.0000   1.0000   1.0000   1.0000
     1.0000   1.0000   1.0000   1.0000   1.0000   1.0000   1.0000   1.0000
     1.0000   1.0000   1.0000   1.0000   1.0000   1.0000

          k = 0.4762-0.1215 0.0000 ( 24508 PWs)   bands (ev):

   -35.5687 -35.5686 -35.5686 -35.5686 -35.5378 -35.5378 -35.5378 -35.5377
   -35.4636 -35.4636 -35.4313 -35.4313 -34.1096 -34.1095 -34.1095 -34.1095
   -34.0840 -34.0840 -34.0839 -34.0839 -34.0694 -34.0694 -34.0694 -34.0694
   -34.0015 -34.0015 -33.9857 -33.9857 -33.9591 -33.9591 -28.2094 -28.2092
   -28.2090 -28.2089 -28.2017 -28.2016 -28.2015 -28.2014 -26.9693 -26.9691
   -26.9689 -26.9688 -26.9624 -26.9623 -26.9620 -26.9619 -26.9591 -26.9590
   -26.9588 -26.9587  -9.3358  -9.3358  -9.0349  -9.0349  -8.6719  -8.6719
    -7.1325  -7.1325  -6.7931  -6.7931  -2.8244  -2.8243  -2.0010  -2.0007
    -1.6955  -1.6947  -1.4967  -1.4962  -0.8036  -0.8031  -0.5088  -0.5083
     0.4395   0.4402   0.8982   0.8985   1.4036   1.4038

     occupation numbers 
     1.0000   1.0000   1.0000   1.0000   1.0000   1.0000   1.0000   1.0000
     1.0000   1.0000   1.0000   1.0000   1.0000   1.0000   1.0000   1.0000
     1.0000   1.0000   1.0000   1.0000   1.0000   1.0000   1.0000   1.0000
     1.0000   1.0000   1.0000   1.0000   1.0000   1.0000   1.0000   1.0000
     1.0000   1.0000   1.0000   1.0000   1.0000   1.0000   1.0000   1.0000
     1.0000   1.0000   1.0000   1.0000   1.0000   1.0000   1.0000   1.0000
     1.0000   1.0000   1.0000   1.0000   1.0000   1.0000   1.0000   1.0000
     1.0000   1.0000   1.0000   1.0000   1.0000   1.0000   1.0000   1.0000
     1.0000   1.0000   1.0000   1.0000   1.0000   1.0000   1.0000   1.0000
     1.0000   1.0000   1.0000   1.0000   1.0000   1.0000

          k = 0.4762-0.0649 0.0000 ( 24546 PWs)   bands (ev):

   -35.5687 -35.5686 -35.5686 -35.5686 -35.5378 -35.5378 -35.5378 -35.5378
   -35.4636 -35.4636 -35.4313 -35.4313 -34.1096 -34.1096 -34.1095 -34.1095
   -34.0840 -34.0840 -34.0839 -34.0839 -34.0695 -34.0694 -34.0694 -34.0694
   -34.0015 -34.0015 -33.9857 -33.9857 -33.9591 -33.9591 -28.2094 -28.2093
   -28.2090 -28.2089 -28.2017 -28.2016 -28.2015 -28.2013 -26.9693 -26.9691
   -26.9689 -26.9687 -26.9624 -26.9623 -26.9620 -26.9618 -26.9591 -26.9590
   -26.9589 -26.9588  -9.3814  -9.3814  -9.0582  -9.0581  -8.6411  -8.6411
    -7.0588  -7.0587  -6.8371  -6.8371  -2.6668  -2.6667  -2.2344  -2.2342
    -1.6224  -1.6219  -1.4824  -1.4818  -1.0191  -1.0187  -0.4872  -0.4870
     0.5387   0.5392   1.0120   1.0123   1.3704   1.3706

     occupation numbers 
     1.0000   1.0000   1.0000   1.0000   1.0000   1.0000   1.0000   1.0000
     1.0000   1.0000   1.0000   1.0000   1.0000   1.0000   1.0000   1.0000
     1.0000   1.0000   1.0000   1.0000   1.0000   1.0000   1.0000   1.0000
     1.0000   1.0000   1.0000   1.0000   1.0000   1.0000   1.0000   1.0000
     1.0000   1.0000   1.0000   1.0000   1.0000   1.0000   1.0000   1.0000
     1.0000   1.0000   1.0000   1.0000   1.0000   1.0000   1.0000   1.0000
     1.0000   1.0000   1.0000   1.0000   1.0000   1.0000   1.0000   1.0000
     1.0000   1.0000   1.0000   1.0000   1.0000   1.0000   1.0000   1.0000
     1.0000   1.0000   1.0000   1.0000   1.0000   1.0000   1.0000   1.0000
     1.0000   1.0000   1.0000   1.0000   1.0000   1.0000

          k = 0.4762-0.0082 0.0000 ( 24528 PWs)   bands (ev):

   -35.5687 -35.5687 -35.5686 -35.5686 -35.5378 -35.5378 -35.5378 -35.5378
   -35.4636 -35.4636 -35.4313 -35.4313 -34.1096 -34.1096 -34.1095 -34.1095
   -34.0840 -34.0840 -34.0839 -34.0839 -34.0695 -34.0695 -34.0694 -34.0694
   -34.0014 -34.0014 -33.9857 -33.9857 -33.9591 -33.9591 -28.2095 -28.2093
   -28.2090 -28.2089 -28.2017 -28.2016 -28.2015 -28.2013 -26.9693 -26.9691
   -26.9689 -26.9688 -26.9625 -26.9623 -26.9620 -26.9618 -26.9591 -26.9590
   -26.9589 -26.9588  -9.4005  -9.4004  -9.0711  -9.0711  -8.6359  -8.6358
    -7.0289  -7.0289  -6.8602  -6.8602  -2.5227  -2.5225  -2.4062  -2.4061
    -1.6066  -1.6063  -1.3711  -1.3707  -1.1825  -1.1821  -0.4732  -0.4730
     0.5959   0.5963   1.1114   1.1118   1.2953   1.2956

     occupation numbers 
     1.0000   1.0000   1.0000   1.0000   1.0000   1.0000   1.0000   1.0000
     1.0000   1.0000   1.0000   1.0000   1.0000   1.0000   1.0000   1.0000
     1.0000   1.0000   1.0000   1.0000   1.0000   1.0000   1.0000   1.0000
     1.0000   1.0000   1.0000   1.0000   1.0000   1.0000   1.0000   1.0000
     1.0000   1.0000   1.0000   1.0000   1.0000   1.0000   1.0000   1.0000
     1.0000   1.0000   1.0000   1.0000   1.0000   1.0000   1.0000   1.0000
     1.0000   1.0000   1.0000   1.0000   1.0000   1.0000   1.0000   1.0000
     1.0000   1.0000   1.0000   1.0000   1.0000   1.0000   1.0000   1.0000
     1.0000   1.0000   1.0000   1.0000   1.0000   1.0000   1.0000   1.0000
     1.0000   1.0000   1.0000   1.0000   1.0000   1.0000

          k = 0.4762 0.0484 0.0000 ( 24532 PWs)   bands (ev):

   -35.5687 -35.5687 -35.5686 -35.5686 -35.5378 -35.5378 -35.5378 -35.5378
   -35.4636 -35.4636 -35.4313 -35.4313 -34.1096 -34.1096 -34.1095 -34.1095
   -34.0840 -34.0840 -34.0839 -34.0839 -34.0695 -34.0695 -34.0695 -34.0694
   -34.0014 -34.0014 -33.9857 -33.9857 -33.9592 -33.9592 -28.2095 -28.2093
   -28.2091 -28.2089 -28.2017 -28.2016 -28.2014 -28.2013 -26.9694 -26.9692
   -26.9690 -26.9688 -26.9624 -26.9623 -26.9620 -26.9618 -26.9591 -26.9590
   -26.9589 -26.9587  -9.3920  -9.3920  -9.0725  -9.0725  -8.6564  -8.6564
    -7.0780  -7.0780  -6.8289  -6.8289  -2.6723  -2.6722  -2.2191  -2.2190
    -1.6055  -1.6047  -1.4707  -1.4699  -1.0045  -1.0041  -0.4744  -0.4742
     0.5596   0.5600   1.0368   1.0370   1.4085   1.4087

     occupation numbers 
     1.0000   1.0000   1.0000   1.0000   1.0000   1.0000   1.0000   1.0000
     1.0000   1.0000   1.0000   1.0000   1.0000   1.0000   1.0000   1.0000
     1.0000   1.0000   1.0000   1.0000   1.0000   1.0000   1.0000   1.0000
     1.0000   1.0000   1.0000   1.0000   1.0000   1.0000   1.0000   1.0000
     1.0000   1.0000   1.0000   1.0000   1.0000   1.0000   1.0000   1.0000
     1.0000   1.0000   1.0000   1.0000   1.0000   1.0000   1.0000   1.0000
     1.0000   1.0000   1.0000   1.0000   1.0000   1.0000   1.0000   1.0000
     1.0000   1.0000   1.0000   1.0000   1.0000   1.0000   1.0000   1.0000
     1.0000   1.0000   1.0000   1.0000   1.0000   1.0000   1.0000   1.0000
     1.0000   1.0000   1.0000   1.0000   1.0000   1.0000

          k = 0.4762 0.1050 0.0000 ( 24547 PWs)   bands (ev):

   -35.5687 -35.5687 -35.5686 -35.5686 -35.5378 -35.5378 -35.5378 -35.5378
   -35.4636 -35.4636 -35.4313 -35.4313 -34.1096 -34.1096 -34.1095 -34.1095
   -34.0840 -34.0840 -34.0839 -34.0839 -34.0695 -34.0695 -34.0695 -34.0695
   -34.0014 -34.0014 -33.9857 -33.9857 -33.9592 -33.9592 -28.2095 -28.2093
   -28.2091 -28.2090 -28.2017 -28.2016 -28.2014 -28.2013 -26.9694 -26.9692
   -26.9691 -26.9689 -26.9624 -26.9622 -26.9620 -26.9618 -26.9590 -26.9589
   -26.9588 -26.9587  -9.3566  -9.3566  -9.0627  -9.0627  -8.7004  -8.7004
    -7.1579  -7.1579  -6.7879  -6.7879  -2.8261  -2.8261  -1.9942  -1.9940
    -1.6665  -1.6659  -1.4497  -1.4492  -0.8051  -0.8048  -0.4544  -0.4541
     0.4784   0.4790   0.9390   0.9393   1.4850   1.4851

     occupation numbers 
     1.0000   1.0000   1.0000   1.0000   1.0000   1.0000   1.0000   1.0000
     1.0000   1.0000   1.0000   1.0000   1.0000   1.0000   1.0000   1.0000
     1.0000   1.0000   1.0000   1.0000   1.0000   1.0000   1.0000   1.0000
     1.0000   1.0000   1.0000   1.0000   1.0000   1.0000   1.0000   1.0000
     1.0000   1.0000   1.0000   1.0000   1.0000   1.0000   1.0000   1.0000
     1.0000   1.0000   1.0000   1.0000   1.0000   1.0000   1.0000   1.0000
     1.0000   1.0000   1.0000   1.0000   1.0000   1.0000   1.0000   1.0000
     1.0000   1.0000   1.0000   1.0000   1.0000   1.0000   1.0000   1.0000
     1.0000   1.0000   1.0000   1.0000   1.0000   1.0000   1.0000   1.0000
     1.0000   1.0000   1.0000   1.0000   1.0000   1.0000

          k = 0.4762 0.1617 0.0000 ( 24560 PWs)   bands (ev):

   -35.5687 -35.5686 -35.5686 -35.5686 -35.5378 -35.5378 -35.5378 -35.5378
   -35.4636 -35.4636 -35.4313 -35.4313 -34.1096 -34.1096 -34.1095 -34.1095
   -34.0840 -34.0840 -34.0839 -34.0839 -34.0695 -34.0695 -34.0695 -34.0695
   -34.0014 -34.0014 -33.9857 -33.9857 -33.9592 -33.9592 -28.2095 -28.2093
   -28.2092 -28.2090 -28.2016 -28.2016 -28.2014 -28.2013 -26.9694 -26.9693
   -26.9692 -26.9691 -26.9623 -26.9622 -26.9619 -26.9618 -26.9590 -26.9589
   -26.9587 -26.9587  -9.2957  -9.2957  -9.0442  -9.0442  -8.7635  -8.7635
    -7.2367  -7.2367  -6.7622  -6.7622  -2.9464  -2.9464  -1.8730  -1.8729
    -1.6361  -1.6358  -1.3548  -1.3544  -0.7188  -0.7187  -0.3758  -0.3755
     0.4067   0.4074   0.9035   0.9037   1.3889   1.3890

     occupation numbers 
     1.0000   1.0000   1.0000   1.0000   1.0000   1.0000   1.0000   1.0000
     1.0000   1.0000   1.0000   1.0000   1.0000   1.0000   1.0000   1.0000
     1.0000   1.0000   1.0000   1.0000   1.0000   1.0000   1.0000   1.0000
     1.0000   1.0000   1.0000   1.0000   1.0000   1.0000   1.0000   1.0000
     1.0000   1.0000   1.0000   1.0000   1.0000   1.0000   1.0000   1.0000
     1.0000   1.0000   1.0000   1.0000   1.0000   1.0000   1.0000   1.0000
     1.0000   1.0000   1.0000   1.0000   1.0000   1.0000   1.0000   1.0000
     1.0000   1.0000   1.0000   1.0000   1.0000   1.0000   1.0000   1.0000
     1.0000   1.0000   1.0000   1.0000   1.0000   1.0000   1.0000   1.0000
     1.0000   1.0000   1.0000   1.0000   1.0000   1.0000

          k = 0.4762 0.2183 0.0000 ( 24562 PWs)   bands (ev):

   -35.5687 -35.5687 -35.5686 -35.5686 -35.5378 -35.5378 -35.5378 -35.5378
   -35.4636 -35.4636 -35.4313 -35.4313 -34.1096 -34.1096 -34.1096 -34.1095
   -34.0840 -34.0840 -34.0839 -34.0839 -34.0695 -34.0695 -34.0695 -34.0695
   -34.0014 -34.0014 -33.9857 -33.9857 -33.9592 -33.9592 -28.2094 -28.2093
   -28.2092 -28.2091 -28.2016 -28.2016 -28.2013 -28.2013 -26.9694 -26.9693
   -26.9693 -26.9692 -26.9623 -26.9622 -26.9619 -26.9619 -26.9590 -26.9589
   -26.9587 -26.9586  -9.2124  -9.2124  -9.0204  -9.0204  -8.8394  -8.8394
    -7.3011  -7.3011  -6.7563  -6.7563  -3.0297  -3.0297  -1.8348  -1.8346
    -1.5964  -1.5961  -1.2144  -1.2141  -0.7227  -0.7226  -0.2768  -0.2764
     0.3263   0.3270   0.9478   0.9480   1.2330   1.2331

     occupation numbers 
     1.0000   1.0000   1.0000   1.0000   1.0000   1.0000   1.0000   1.0000
     1.0000   1.0000   1.0000   1.0000   1.0000   1.0000   1.0000   1.0000
     1.0000   1.0000   1.0000   1.0000   1.0000   1.0000   1.0000   1.0000
     1.0000   1.0000   1.0000   1.0000   1.0000   1.0000   1.0000   1.0000
     1.0000   1.0000   1.0000   1.0000   1.0000   1.0000   1.0000   1.0000
     1.0000   1.0000   1.0000   1.0000   1.0000   1.0000   1.0000   1.0000
     1.0000   1.0000   1.0000   1.0000   1.0000   1.0000   1.0000   1.0000
     1.0000   1.0000   1.0000   1.0000   1.0000   1.0000   1.0000   1.0000
     1.0000   1.0000   1.0000   1.0000   1.0000   1.0000   1.0000   1.0000
     1.0000   1.0000   1.0000   1.0000   1.0000   1.0000

     highest occupied level (ev):     1.7291

!    total energy              =    -806.67217424 Ry
     estimated scf accuracy    <       0.00000005 Ry

     The total energy is the sum of the following terms:
     one-electron contribution =   -3382.52454131 Ry
     hartree contribution      =    1686.21521097 Ry
     xc contribution           =     -87.15704367 Ry
     ewald contribution        =     976.89120674 Ry
     Dispersion Correction     =      -0.09700698 Ry

     convergence has been achieved in  12 iterations

     Writing all to output data dir tmp/Sb2Te3-uatsx-c5-soc-3.0.save/ :
     XML data file, charge density, pseudopotentials, collected wavefunctions

     init_run     :     59.00s CPU     32.04s WALL (       1 calls)
     electrons    :   3230.73s CPU   1711.61s WALL (       1 calls)

     Called by init_run:
     wfcinit      :     57.71s CPU     30.76s WALL (       1 calls)
     wfcinit:wfcr :     54.83s CPU     28.59s WALL (     221 calls)
     potinit      :      0.26s CPU      0.23s WALL (       1 calls)
     hinit0       :      0.84s CPU      0.86s WALL (       1 calls)

     Called by electrons:
     c_bands      :   2905.83s CPU   1545.86s WALL (      13 calls)
     sum_band     :    323.05s CPU    164.28s WALL (      13 calls)
     v_of_rho     :      0.97s CPU      0.67s WALL (      13 calls)
     v_h          :      0.09s CPU      0.05s WALL (      13 calls)
     v_xc         :      0.88s CPU      0.62s WALL (      13 calls)
     mix_rho      :      0.49s CPU      0.32s WALL (      13 calls)
     energy_londo :      0.02s CPU      0.01s WALL (       1 calls)

     Called by c_bands:
     init_us_2    :     12.93s CPU      8.06s WALL (    5967 calls)
     cegterg      :   2804.90s CPU   1485.44s WALL (    2873 calls)

     Called by sum_band:
     sum_band:wei :      0.00s CPU      0.00s WALL (      13 calls)
     sum_band:loo :    322.76s CPU    164.11s WALL (      13 calls)
     sum_band:buf :      5.44s CPU      3.08s WALL (    2873 calls)
     sum_band:ini :      7.46s CPU      3.88s WALL (    2873 calls)

     Called by *egterg:
     cdiaghg      :    225.14s CPU    144.76s WALL (   18046 calls)
     cegterg:over :    141.69s CPU     75.36s WALL (   15394 calls)
     cegterg:upda :     67.26s CPU     32.33s WALL (   15394 calls)
     cegterg:last :    101.64s CPU     51.37s WALL (    7765 calls)
     h_psi        :   2198.87s CPU   1131.85s WALL (   18488 calls)
     g_psi        :      8.73s CPU      5.39s WALL (   15394 calls)

     Called by h_psi:
     h_psi:calbec :    131.93s CPU     68.65s WALL (   18488 calls)
     vloc_psi     :   1968.57s CPU   1004.24s WALL (   18488 calls)
     add_vuspsi   :     92.76s CPU     55.48s WALL (   18488 calls)

     General routines
     calbec       :    131.82s CPU     68.61s WALL (   18488 calls)
     fft          :      2.09s CPU      1.66s WALL (     301 calls)
     ffts         :      0.24s CPU      0.20s WALL (     104 calls)
     fftw         :   1762.30s CPU    877.92s WALL ( 3326524 calls)
     interpolate  :      0.42s CPU      0.31s WALL (      52 calls)

     Parallel routines

     PWSCF        :  55m12.00s CPU  31m 0.99s WALL


   This run was terminated on:  21:36:42  22Aug2025            

=------------------------------------------------------------------------------=
   JOB DONE.
=------------------------------------------------------------------------------=
