
     Program PWSCF v.7.4.1 starts on 14Aug2025 at 14:31: 1 

     This program is part of the open-source Quantum ESPRESSO suite
     for quantum simulation of materials; please cite
         "P. Giannozzi et al., J. Phys.:Condens. Matter 21 395502 (2009);
         "P. Giannozzi et al., J. Phys.:Condens. Matter 29 465901 (2017);
         "P. Giannozzi et al., J. Chem. Phys. 152 154105 (2020);
          URL http://www.quantum-espresso.org", 
     in publications or presentations arising from this work. More details at
     http://www.quantum-espresso.org/quote

     Parallel version (MPI & OpenMP), running on      48 processor cores
     Number of MPI processes:                24
     Threads/MPI process:                     2

     MPI processes distributed on     2 nodes
     114059 MiB available memory on the printing compute node when the environment starts

     Waiting for input...
     Reading input from standard input

     Current dimensions of program PWSCF are:
     Max number of different atomic species (ntypx) = 10
     Max number of k-points (npk) =  40000
     Max angular momentum in pseudopotentials (lmaxx) =  4
Error reading attribute index: expected integer, found *
Error reading attribute index: expected integer, found *

     IMPORTANT: XC functional enforced from input :
     Exchange-correlation= PBE
                           (   1   4   3   4   0   0   0)
     Any further DFT definition will be discarded
     Please, verify this is what you really want

     Message from routine setup:
     no reason to have ecutrho>4*ecutwfc

     R & G space division:  proc/nbgrp/npool/nimage =      24
     Subspace diagonalization in iterative solution of the eigenvalue problem:
     a serial algorithm will be used


     Parallelization info
     --------------------
     sticks:   dense  smooth     PW     G-vecs:    dense   smooth      PW
     Min          96      38     11                19112     4832     805
     Max          97      39     12                19125     4855     818
     Sum        2311     925    283               458817   116185   19467

     Using Slab Decomposition



     bravais-lattice index     =            0
     lattice parameter (alat)  =       8.2271  a.u.
     unit-cell volume          =    2430.6623 (a.u.)^3
     number of atoms/cell      =            5
     number of atomic types    =            2
     number of electrons       =        78.00
     number of Kohn-Sham states=           78
     kinetic-energy cutoff     =      50.0000  Ry
     charge density cutoff     =     500.0000  Ry
     scf convergence threshold =      1.0E-07
     mixing beta               =       0.7000
     number of iterations used =            8  plain     mixing
     Exchange-correlation= PBE
                           (   1   4   3   4   0   0   0)
     Non magnetic calculation with spin-orbit


     celldm(1)=   8.227090  celldm(2)=   0.000000  celldm(3)=   0.000000
     celldm(4)=   0.000000  celldm(5)=   0.000000  celldm(6)=   0.000000

     crystal axes: (cart. coord. in units of alat)
               a(1) = (   1.000000   0.000000   0.000000 )  
               a(2) = (  -0.495050   0.857443   0.000000 )  
               a(3) = (   0.000000   0.000000   5.090739 )  

     reciprocal axes: (cart. coord. in units 2 pi/alat)
               b(1) = (  1.000000  0.577356 -0.000000 )  
               b(2) = (  0.000000  1.166259  0.000000 )  
               b(3) = (  0.000000 -0.000000  0.196435 )  


     PseudoPot. # 1 for Sb read from file:
     /zfs-home/202401017n1/pseudos/Sb_ONCV_PBE_FR-1.1.upf
     MD5 check sum: 7dc1726f2158e3c51e4807d42b9c5c65
     Pseudo is Norm-conserving, Zval = 15.0
     Generated using ONCVPSP code by D. R. Hamann
     Using radial grid of  602 points, 10 beta functions with: 
                l(1) =   0
                l(2) =   0
                l(3) =   1
                l(4) =   1
                l(5) =   1
                l(6) =   1
                l(7) =   2
                l(8) =   2
                l(9) =   2
               l(10) =   2

     PseudoPot. # 2 for Te read from file:
     /zfs-home/202401017n1/pseudos/Te_ONCV_PBE_FR-1.1.upf
     MD5 check sum: c6e17480449037a9a9d16e6377b5c7c4
     Pseudo is Norm-conserving, Zval = 16.0
     Generated using ONCVPSP code by D. R. Hamann
     Using radial grid of  602 points, 10 beta functions with: 
                l(1) =   0
                l(2) =   0
                l(3) =   1
                l(4) =   1
                l(5) =   1
                l(6) =   1
                l(7) =   2
                l(8) =   2
                l(9) =   2
               l(10) =   2

     atomic species   valence    mass     pseudopotential
     Sb               15.00   121.76000     Sb( 1.00)
     Te               16.00   127.60000     Te( 1.00)

     No symmetry found


                                    s                        frac. trans.

      isym =  1     identity                                     

 cryst.   s( 1) = (     1          0          0      )
                  (     0          1          0      )
                  (     0          0          1      )

 cart.    s( 1) = (  1.0000000  0.0000000  0.0000000 )
                  (  0.0000000  1.0000000  0.0000000 )
                  (  0.0000000  0.0000000  1.0000000 )


   Cartesian axes

     site n.     atom                  positions (alat units)
         1        Sb     tau(   1) = (   0.5788554   0.4207610   3.0040749  )
         2        Te     tau(   2) = (   0.5752577   0.4138624   1.6972962  )
         3        Sb     tau(   3) = (   0.0743102   0.1298379   2.0866212  )
         4        Te     tau(   4) = (   0.0782247   0.1361538   3.3933943  )
         5        Te     tau(   5) = (   0.0792404   0.7036244   2.5453648  )

   Crystallographic axes

     site n.     atom                  positions (cryst. coord.)
         1        Sb     tau(   1) = (  0.8217842  0.4907162  0.5901058  )
         2        Te     tau(   2) = (  0.8142035  0.4826706  0.3334086  )
         3        Sb     tau(   3) = (  0.1492728  0.1514246  0.4098857  )
         4        Te     tau(   4) = (  0.1568340  0.1587906  0.6665818  )
         5        Te     tau(   5) = (  0.4854821  0.8206082  0.4999990  )

     number of k points=   221
                       cart. coord. in units 2pi/alat
        k(    1) = (   0.0000000   0.0000000   0.0000000), wk =   0.0022676
        k(    2) = (   0.0000000   0.0555361   0.0000000), wk =   0.0045351
        k(    3) = (   0.0000000   0.1110723   0.0000000), wk =   0.0045351
        k(    4) = (   0.0000000   0.1666084   0.0000000), wk =   0.0045351
        k(    5) = (   0.0000000   0.2221445   0.0000000), wk =   0.0045351
        k(    6) = (   0.0000000   0.2776807   0.0000000), wk =   0.0045351
        k(    7) = (   0.0000000   0.3332168   0.0000000), wk =   0.0045351
        k(    8) = (   0.0000000   0.3887529   0.0000000), wk =   0.0045351
        k(    9) = (   0.0000000   0.4442891   0.0000000), wk =   0.0045351
        k(   10) = (   0.0000000   0.4998252   0.0000000), wk =   0.0045351
        k(   11) = (   0.0000000   0.5553613   0.0000000), wk =   0.0045351
        k(   12) = (   0.0476190   0.0274931   0.0000000), wk =   0.0045351
        k(   13) = (   0.0476190   0.0830293   0.0000000), wk =   0.0045351
        k(   14) = (   0.0476190   0.1385654   0.0000000), wk =   0.0045351
        k(   15) = (   0.0476190   0.1941015   0.0000000), wk =   0.0045351
        k(   16) = (   0.0476190   0.2496377   0.0000000), wk =   0.0045351
        k(   17) = (   0.0476190   0.3051738   0.0000000), wk =   0.0045351
        k(   18) = (   0.0476190   0.3607099   0.0000000), wk =   0.0045351
        k(   19) = (   0.0476190   0.4162461   0.0000000), wk =   0.0045351
        k(   20) = (   0.0476190   0.4717822   0.0000000), wk =   0.0045351
        k(   21) = (   0.0476190   0.5273183   0.0000000), wk =   0.0045351
        k(   22) = (   0.0476190   0.5828545   0.0000000), wk =   0.0045351
        k(   23) = (   0.0476190  -0.5278682   0.0000000), wk =   0.0045351
        k(   24) = (   0.0476190  -0.4723321   0.0000000), wk =   0.0045351
        k(   25) = (   0.0476190  -0.4167959   0.0000000), wk =   0.0045351
        k(   26) = (   0.0476190  -0.3612598   0.0000000), wk =   0.0045351
        k(   27) = (   0.0476190  -0.3057237   0.0000000), wk =   0.0045351
        k(   28) = (   0.0476190  -0.2501875   0.0000000), wk =   0.0045351
        k(   29) = (   0.0476190  -0.1946514   0.0000000), wk =   0.0045351
        k(   30) = (   0.0476190  -0.1391153   0.0000000), wk =   0.0045351
        k(   31) = (   0.0476190  -0.0835791   0.0000000), wk =   0.0045351
        k(   32) = (   0.0476190  -0.0280430   0.0000000), wk =   0.0045351
        k(   33) = (   0.0952381   0.0549863   0.0000000), wk =   0.0045351
        k(   34) = (   0.0952381   0.1105224   0.0000000), wk =   0.0045351
        k(   35) = (   0.0952381   0.1660585   0.0000000), wk =   0.0045351
        k(   36) = (   0.0952381   0.2215947   0.0000000), wk =   0.0045351
        k(   37) = (   0.0952381   0.2771308   0.0000000), wk =   0.0045351
        k(   38) = (   0.0952381   0.3326669   0.0000000), wk =   0.0045351
        k(   39) = (   0.0952381   0.3882031   0.0000000), wk =   0.0045351
        k(   40) = (   0.0952381   0.4437392   0.0000000), wk =   0.0045351
        k(   41) = (   0.0952381   0.4992753   0.0000000), wk =   0.0045351
        k(   42) = (   0.0952381   0.5548115   0.0000000), wk =   0.0045351
        k(   43) = (   0.0952381   0.6103476   0.0000000), wk =   0.0045351
        k(   44) = (   0.0952381  -0.5003751   0.0000000), wk =   0.0045351
        k(   45) = (   0.0952381  -0.4448389   0.0000000), wk =   0.0045351
        k(   46) = (   0.0952381  -0.3893028   0.0000000), wk =   0.0045351
        k(   47) = (   0.0952381  -0.3337667   0.0000000), wk =   0.0045351
        k(   48) = (   0.0952381  -0.2782305   0.0000000), wk =   0.0045351
        k(   49) = (   0.0952381  -0.2226944   0.0000000), wk =   0.0045351
        k(   50) = (   0.0952381  -0.1671583   0.0000000), wk =   0.0045351
        k(   51) = (   0.0952381  -0.1116221   0.0000000), wk =   0.0045351
        k(   52) = (   0.0952381  -0.0560860   0.0000000), wk =   0.0045351
        k(   53) = (   0.0952381  -0.0005499   0.0000000), wk =   0.0045351
        k(   54) = (   0.1428571   0.0824794   0.0000000), wk =   0.0045351
        k(   55) = (   0.1428571   0.1380155   0.0000000), wk =   0.0045351
        k(   56) = (   0.1428571   0.1935517   0.0000000), wk =   0.0045351
        k(   57) = (   0.1428571   0.2490878   0.0000000), wk =   0.0045351
        k(   58) = (   0.1428571   0.3046239   0.0000000), wk =   0.0045351
        k(   59) = (   0.1428571   0.3601601   0.0000000), wk =   0.0045351
        k(   60) = (   0.1428571   0.4156962   0.0000000), wk =   0.0045351
        k(   61) = (   0.1428571   0.4712323   0.0000000), wk =   0.0045351
        k(   62) = (   0.1428571   0.5267685   0.0000000), wk =   0.0045351
        k(   63) = (   0.1428571   0.5823046   0.0000000), wk =   0.0045351
        k(   64) = (   0.1428571   0.6378408   0.0000000), wk =   0.0045351
        k(   65) = (   0.1428571  -0.4728819   0.0000000), wk =   0.0045351
        k(   66) = (   0.1428571  -0.4173458   0.0000000), wk =   0.0045351
        k(   67) = (   0.1428571  -0.3618097   0.0000000), wk =   0.0045351
        k(   68) = (   0.1428571  -0.3062735   0.0000000), wk =   0.0045351
        k(   69) = (   0.1428571  -0.2507374   0.0000000), wk =   0.0045351
        k(   70) = (   0.1428571  -0.1952013   0.0000000), wk =   0.0045351
        k(   71) = (   0.1428571  -0.1396651   0.0000000), wk =   0.0045351
        k(   72) = (   0.1428571  -0.0841290   0.0000000), wk =   0.0045351
        k(   73) = (   0.1428571  -0.0285929   0.0000000), wk =   0.0045351
        k(   74) = (   0.1428571   0.0269433   0.0000000), wk =   0.0045351
        k(   75) = (   0.1904762   0.1099725   0.0000000), wk =   0.0045351
        k(   76) = (   0.1904762   0.1655087   0.0000000), wk =   0.0045351
        k(   77) = (   0.1904762   0.2210448   0.0000000), wk =   0.0045351
        k(   78) = (   0.1904762   0.2765809   0.0000000), wk =   0.0045351
        k(   79) = (   0.1904762   0.3321171   0.0000000), wk =   0.0045351
        k(   80) = (   0.1904762   0.3876532   0.0000000), wk =   0.0045351
        k(   81) = (   0.1904762   0.4431894   0.0000000), wk =   0.0045351
        k(   82) = (   0.1904762   0.4987255   0.0000000), wk =   0.0045351
        k(   83) = (   0.1904762   0.5542616   0.0000000), wk =   0.0045351
        k(   84) = (   0.1904762   0.6097978   0.0000000), wk =   0.0045351
        k(   85) = (   0.1904762   0.6653339   0.0000000), wk =   0.0045351
        k(   86) = (   0.1904762  -0.4453888   0.0000000), wk =   0.0045351
        k(   87) = (   0.1904762  -0.3898527   0.0000000), wk =   0.0045351
        k(   88) = (   0.1904762  -0.3343165   0.0000000), wk =   0.0045351
        k(   89) = (   0.1904762  -0.2787804   0.0000000), wk =   0.0045351
        k(   90) = (   0.1904762  -0.2232443   0.0000000), wk =   0.0045351
        k(   91) = (   0.1904762  -0.1677081   0.0000000), wk =   0.0045351
        k(   92) = (   0.1904762  -0.1121720   0.0000000), wk =   0.0045351
        k(   93) = (   0.1904762  -0.0566359   0.0000000), wk =   0.0045351
        k(   94) = (   0.1904762  -0.0010997   0.0000000), wk =   0.0045351
        k(   95) = (   0.1904762   0.0544364   0.0000000), wk =   0.0045351
        k(   96) = (   0.2380952   0.1374657   0.0000000), wk =   0.0045351
        k(   97) = (   0.2380952   0.1930018   0.0000000), wk =   0.0045351
        k(   98) = (   0.2380952   0.2485379   0.0000000), wk =   0.0045351
        k(   99) = (   0.2380952   0.3040741   0.0000000), wk =   0.0045351
        k(  100) = (   0.2380952   0.3596102   0.0000000), wk =   0.0045351
        k(  101) = (   0.2380952   0.4151464   0.0000000), wk =   0.0045351
        k(  102) = (   0.2380952   0.4706825   0.0000000), wk =   0.0045351
        k(  103) = (   0.2380952   0.5262186   0.0000000), wk =   0.0045351
        k(  104) = (   0.2380952   0.5817548   0.0000000), wk =   0.0045351
        k(  105) = (   0.2380952   0.6372909   0.0000000), wk =   0.0045351
        k(  106) = (   0.2380952   0.6928270   0.0000000), wk =   0.0045351
        k(  107) = (   0.2380952  -0.4178957   0.0000000), wk =   0.0045351
        k(  108) = (   0.2380952  -0.3623595   0.0000000), wk =   0.0045351
        k(  109) = (   0.2380952  -0.3068234   0.0000000), wk =   0.0045351
        k(  110) = (   0.2380952  -0.2512873   0.0000000), wk =   0.0045351
        k(  111) = (   0.2380952  -0.1957511   0.0000000), wk =   0.0045351
        k(  112) = (   0.2380952  -0.1402150   0.0000000), wk =   0.0045351
        k(  113) = (   0.2380952  -0.0846789   0.0000000), wk =   0.0045351
        k(  114) = (   0.2380952  -0.0291427   0.0000000), wk =   0.0045351
        k(  115) = (   0.2380952   0.0263934   0.0000000), wk =   0.0045351
        k(  116) = (   0.2380952   0.0819295   0.0000000), wk =   0.0045351
        k(  117) = (   0.2857143   0.1649588   0.0000000), wk =   0.0045351
        k(  118) = (   0.2857143   0.2204949   0.0000000), wk =   0.0045351
        k(  119) = (   0.2857143   0.2760311   0.0000000), wk =   0.0045351
        k(  120) = (   0.2857143   0.3315672   0.0000000), wk =   0.0045351
        k(  121) = (   0.2857143   0.3871034   0.0000000), wk =   0.0045351
        k(  122) = (   0.2857143   0.4426395   0.0000000), wk =   0.0045351
        k(  123) = (   0.2857143   0.4981756   0.0000000), wk =   0.0045351
        k(  124) = (   0.2857143   0.5537118   0.0000000), wk =   0.0045351
        k(  125) = (   0.2857143   0.6092479   0.0000000), wk =   0.0045351
        k(  126) = (   0.2857143   0.6647840   0.0000000), wk =   0.0045351
        k(  127) = (   0.2857143   0.7203202   0.0000000), wk =   0.0045351
        k(  128) = (   0.2857143  -0.3904025   0.0000000), wk =   0.0045351
        k(  129) = (   0.2857143  -0.3348664   0.0000000), wk =   0.0045351
        k(  130) = (   0.2857143  -0.2793303   0.0000000), wk =   0.0045351
        k(  131) = (   0.2857143  -0.2237941   0.0000000), wk =   0.0045351
        k(  132) = (   0.2857143  -0.1682580   0.0000000), wk =   0.0045351
        k(  133) = (   0.2857143  -0.1127219   0.0000000), wk =   0.0045351
        k(  134) = (   0.2857143  -0.0571857   0.0000000), wk =   0.0045351
        k(  135) = (   0.2857143  -0.0016496   0.0000000), wk =   0.0045351
        k(  136) = (   0.2857143   0.0538865   0.0000000), wk =   0.0045351
        k(  137) = (   0.2857143   0.1094227   0.0000000), wk =   0.0045351
        k(  138) = (   0.3333333   0.1924520   0.0000000), wk =   0.0045351
        k(  139) = (   0.3333333   0.2479881   0.0000000), wk =   0.0045351
        k(  140) = (   0.3333333   0.3035242   0.0000000), wk =   0.0045351
        k(  141) = (   0.3333333   0.3590604   0.0000000), wk =   0.0045351
        k(  142) = (   0.3333333   0.4145965   0.0000000), wk =   0.0045351
        k(  143) = (   0.3333333   0.4701326   0.0000000), wk =   0.0045351
        k(  144) = (   0.3333333   0.5256688   0.0000000), wk =   0.0045351
        k(  145) = (   0.3333333   0.5812049   0.0000000), wk =   0.0045351
        k(  146) = (   0.3333333   0.6367410   0.0000000), wk =   0.0045351
        k(  147) = (   0.3333333   0.6922772   0.0000000), wk =   0.0045351
        k(  148) = (   0.3333333   0.7478133   0.0000000), wk =   0.0045351
        k(  149) = (   0.3333333  -0.3629094   0.0000000), wk =   0.0045351
        k(  150) = (   0.3333333  -0.3073733   0.0000000), wk =   0.0045351
        k(  151) = (   0.3333333  -0.2518371   0.0000000), wk =   0.0045351
        k(  152) = (   0.3333333  -0.1963010   0.0000000), wk =   0.0045351
        k(  153) = (   0.3333333  -0.1407649   0.0000000), wk =   0.0045351
        k(  154) = (   0.3333333  -0.0852287   0.0000000), wk =   0.0045351
        k(  155) = (   0.3333333  -0.0296926   0.0000000), wk =   0.0045351
        k(  156) = (   0.3333333   0.0258435   0.0000000), wk =   0.0045351
        k(  157) = (   0.3333333   0.0813797   0.0000000), wk =   0.0045351
        k(  158) = (   0.3333333   0.1369158   0.0000000), wk =   0.0045351
        k(  159) = (   0.3809524   0.2199451   0.0000000), wk =   0.0045351
        k(  160) = (   0.3809524   0.2754812   0.0000000), wk =   0.0045351
        k(  161) = (   0.3809524   0.3310174   0.0000000), wk =   0.0045351
        k(  162) = (   0.3809524   0.3865535   0.0000000), wk =   0.0045351
        k(  163) = (   0.3809524   0.4420896   0.0000000), wk =   0.0045351
        k(  164) = (   0.3809524   0.4976258   0.0000000), wk =   0.0045351
        k(  165) = (   0.3809524   0.5531619   0.0000000), wk =   0.0045351
        k(  166) = (   0.3809524   0.6086980   0.0000000), wk =   0.0045351
        k(  167) = (   0.3809524   0.6642342   0.0000000), wk =   0.0045351
        k(  168) = (   0.3809524   0.7197703   0.0000000), wk =   0.0045351
        k(  169) = (   0.3809524   0.7753064   0.0000000), wk =   0.0045351
        k(  170) = (   0.3809524  -0.3354163   0.0000000), wk =   0.0045351
        k(  171) = (   0.3809524  -0.2798801   0.0000000), wk =   0.0045351
        k(  172) = (   0.3809524  -0.2243440   0.0000000), wk =   0.0045351
        k(  173) = (   0.3809524  -0.1688079   0.0000000), wk =   0.0045351
        k(  174) = (   0.3809524  -0.1132717   0.0000000), wk =   0.0045351
        k(  175) = (   0.3809524  -0.0577356   0.0000000), wk =   0.0045351
        k(  176) = (   0.3809524  -0.0021995   0.0000000), wk =   0.0045351
        k(  177) = (   0.3809524   0.0533367   0.0000000), wk =   0.0045351
        k(  178) = (   0.3809524   0.1088728   0.0000000), wk =   0.0045351
        k(  179) = (   0.3809524   0.1644090   0.0000000), wk =   0.0045351
        k(  180) = (   0.4285714   0.2474382   0.0000000), wk =   0.0045351
        k(  181) = (   0.4285714   0.3029744   0.0000000), wk =   0.0045351
        k(  182) = (   0.4285714   0.3585105   0.0000000), wk =   0.0045351
        k(  183) = (   0.4285714   0.4140466   0.0000000), wk =   0.0045351
        k(  184) = (   0.4285714   0.4695828   0.0000000), wk =   0.0045351
        k(  185) = (   0.4285714   0.5251189   0.0000000), wk =   0.0045351
        k(  186) = (   0.4285714   0.5806550   0.0000000), wk =   0.0045351
        k(  187) = (   0.4285714   0.6361912   0.0000000), wk =   0.0045351
        k(  188) = (   0.4285714   0.6917273   0.0000000), wk =   0.0045351
        k(  189) = (   0.4285714   0.7472634   0.0000000), wk =   0.0045351
        k(  190) = (   0.4285714   0.8027996   0.0000000), wk =   0.0045351
        k(  191) = (   0.4285714  -0.3079231   0.0000000), wk =   0.0045351
        k(  192) = (   0.4285714  -0.2523870   0.0000000), wk =   0.0045351
        k(  193) = (   0.4285714  -0.1968509   0.0000000), wk =   0.0045351
        k(  194) = (   0.4285714  -0.1413147   0.0000000), wk =   0.0045351
        k(  195) = (   0.4285714  -0.0857786   0.0000000), wk =   0.0045351
        k(  196) = (   0.4285714  -0.0302424   0.0000000), wk =   0.0045351
        k(  197) = (   0.4285714   0.0252937   0.0000000), wk =   0.0045351
        k(  198) = (   0.4285714   0.0808298   0.0000000), wk =   0.0045351
        k(  199) = (   0.4285714   0.1363660   0.0000000), wk =   0.0045351
        k(  200) = (   0.4285714   0.1919021   0.0000000), wk =   0.0045351
        k(  201) = (   0.4761905   0.2749314   0.0000000), wk =   0.0045351
        k(  202) = (   0.4761905   0.3304675   0.0000000), wk =   0.0045351
        k(  203) = (   0.4761905   0.3860036   0.0000000), wk =   0.0045351
        k(  204) = (   0.4761905   0.4415398   0.0000000), wk =   0.0045351
        k(  205) = (   0.4761905   0.4970759   0.0000000), wk =   0.0045351
        k(  206) = (   0.4761905   0.5526120   0.0000000), wk =   0.0045351
        k(  207) = (   0.4761905   0.6081482   0.0000000), wk =   0.0045351
        k(  208) = (   0.4761905   0.6636843   0.0000000), wk =   0.0045351
        k(  209) = (   0.4761905   0.7192204   0.0000000), wk =   0.0045351
        k(  210) = (   0.4761905   0.7747566   0.0000000), wk =   0.0045351
        k(  211) = (   0.4761905   0.8302927   0.0000000), wk =   0.0045351
        k(  212) = (   0.4761905  -0.2804300   0.0000000), wk =   0.0045351
        k(  213) = (   0.4761905  -0.2248939   0.0000000), wk =   0.0045351
        k(  214) = (   0.4761905  -0.1693577   0.0000000), wk =   0.0045351
        k(  215) = (   0.4761905  -0.1138216   0.0000000), wk =   0.0045351
        k(  216) = (   0.4761905  -0.0582854   0.0000000), wk =   0.0045351
        k(  217) = (   0.4761905  -0.0027493   0.0000000), wk =   0.0045351
        k(  218) = (   0.4761905   0.0527868   0.0000000), wk =   0.0045351
        k(  219) = (   0.4761905   0.1083230   0.0000000), wk =   0.0045351
        k(  220) = (   0.4761905   0.1638591   0.0000000), wk =   0.0045351
        k(  221) = (   0.4761905   0.2193952   0.0000000), wk =   0.0045351

                       cryst. coord.
        k(    1) = (   0.0000000   0.0000000   0.0000000), wk =   0.0022676
        k(    2) = (   0.0000000   0.0476190   0.0000000), wk =   0.0045351
        k(    3) = (   0.0000000   0.0952381   0.0000000), wk =   0.0045351
        k(    4) = (   0.0000000   0.1428571   0.0000000), wk =   0.0045351
        k(    5) = (   0.0000000   0.1904762   0.0000000), wk =   0.0045351
        k(    6) = (   0.0000000   0.2380952   0.0000000), wk =   0.0045351
        k(    7) = (   0.0000000   0.2857143   0.0000000), wk =   0.0045351
        k(    8) = (   0.0000000   0.3333333   0.0000000), wk =   0.0045351
        k(    9) = (   0.0000000   0.3809524   0.0000000), wk =   0.0045351
        k(   10) = (   0.0000000   0.4285714   0.0000000), wk =   0.0045351
        k(   11) = (   0.0000000   0.4761905   0.0000000), wk =   0.0045351
        k(   12) = (   0.0476190   0.0000000   0.0000000), wk =   0.0045351
        k(   13) = (   0.0476190   0.0476190   0.0000000), wk =   0.0045351
        k(   14) = (   0.0476190   0.0952381   0.0000000), wk =   0.0045351
        k(   15) = (   0.0476190   0.1428571   0.0000000), wk =   0.0045351
        k(   16) = (   0.0476190   0.1904762   0.0000000), wk =   0.0045351
        k(   17) = (   0.0476190   0.2380952   0.0000000), wk =   0.0045351
        k(   18) = (   0.0476190   0.2857143   0.0000000), wk =   0.0045351
        k(   19) = (   0.0476190   0.3333333   0.0000000), wk =   0.0045351
        k(   20) = (   0.0476190   0.3809524   0.0000000), wk =   0.0045351
        k(   21) = (   0.0476190   0.4285714   0.0000000), wk =   0.0045351
        k(   22) = (   0.0476190   0.4761905   0.0000000), wk =   0.0045351
        k(   23) = (   0.0476190  -0.4761905   0.0000000), wk =   0.0045351
        k(   24) = (   0.0476190  -0.4285714   0.0000000), wk =   0.0045351
        k(   25) = (   0.0476190  -0.3809524   0.0000000), wk =   0.0045351
        k(   26) = (   0.0476190  -0.3333333   0.0000000), wk =   0.0045351
        k(   27) = (   0.0476190  -0.2857143   0.0000000), wk =   0.0045351
        k(   28) = (   0.0476190  -0.2380952   0.0000000), wk =   0.0045351
        k(   29) = (   0.0476190  -0.1904762   0.0000000), wk =   0.0045351
        k(   30) = (   0.0476190  -0.1428571   0.0000000), wk =   0.0045351
        k(   31) = (   0.0476190  -0.0952381   0.0000000), wk =   0.0045351
        k(   32) = (   0.0476190  -0.0476190   0.0000000), wk =   0.0045351
        k(   33) = (   0.0952381   0.0000000   0.0000000), wk =   0.0045351
        k(   34) = (   0.0952381   0.0476190   0.0000000), wk =   0.0045351
        k(   35) = (   0.0952381   0.0952381   0.0000000), wk =   0.0045351
        k(   36) = (   0.0952381   0.1428571   0.0000000), wk =   0.0045351
        k(   37) = (   0.0952381   0.1904762   0.0000000), wk =   0.0045351
        k(   38) = (   0.0952381   0.2380952   0.0000000), wk =   0.0045351
        k(   39) = (   0.0952381   0.2857143   0.0000000), wk =   0.0045351
        k(   40) = (   0.0952381   0.3333333   0.0000000), wk =   0.0045351
        k(   41) = (   0.0952381   0.3809524   0.0000000), wk =   0.0045351
        k(   42) = (   0.0952381   0.4285714   0.0000000), wk =   0.0045351
        k(   43) = (   0.0952381   0.4761905   0.0000000), wk =   0.0045351
        k(   44) = (   0.0952381  -0.4761905   0.0000000), wk =   0.0045351
        k(   45) = (   0.0952381  -0.4285714   0.0000000), wk =   0.0045351
        k(   46) = (   0.0952381  -0.3809524   0.0000000), wk =   0.0045351
        k(   47) = (   0.0952381  -0.3333333   0.0000000), wk =   0.0045351
        k(   48) = (   0.0952381  -0.2857143   0.0000000), wk =   0.0045351
        k(   49) = (   0.0952381  -0.2380952   0.0000000), wk =   0.0045351
        k(   50) = (   0.0952381  -0.1904762   0.0000000), wk =   0.0045351
        k(   51) = (   0.0952381  -0.1428571   0.0000000), wk =   0.0045351
        k(   52) = (   0.0952381  -0.0952381   0.0000000), wk =   0.0045351
        k(   53) = (   0.0952381  -0.0476190   0.0000000), wk =   0.0045351
        k(   54) = (   0.1428571  -0.0000000   0.0000000), wk =   0.0045351
        k(   55) = (   0.1428571   0.0476190   0.0000000), wk =   0.0045351
        k(   56) = (   0.1428571   0.0952381   0.0000000), wk =   0.0045351
        k(   57) = (   0.1428571   0.1428571   0.0000000), wk =   0.0045351
        k(   58) = (   0.1428571   0.1904762   0.0000000), wk =   0.0045351
        k(   59) = (   0.1428571   0.2380952   0.0000000), wk =   0.0045351
        k(   60) = (   0.1428571   0.2857143   0.0000000), wk =   0.0045351
        k(   61) = (   0.1428571   0.3333333   0.0000000), wk =   0.0045351
        k(   62) = (   0.1428571   0.3809524   0.0000000), wk =   0.0045351
        k(   63) = (   0.1428571   0.4285714   0.0000000), wk =   0.0045351
        k(   64) = (   0.1428571   0.4761905   0.0000000), wk =   0.0045351
        k(   65) = (   0.1428571  -0.4761905   0.0000000), wk =   0.0045351
        k(   66) = (   0.1428571  -0.4285714   0.0000000), wk =   0.0045351
        k(   67) = (   0.1428571  -0.3809524   0.0000000), wk =   0.0045351
        k(   68) = (   0.1428571  -0.3333333   0.0000000), wk =   0.0045351
        k(   69) = (   0.1428571  -0.2857143   0.0000000), wk =   0.0045351
        k(   70) = (   0.1428571  -0.2380952   0.0000000), wk =   0.0045351
        k(   71) = (   0.1428571  -0.1904762   0.0000000), wk =   0.0045351
        k(   72) = (   0.1428571  -0.1428571   0.0000000), wk =   0.0045351
        k(   73) = (   0.1428571  -0.0952381   0.0000000), wk =   0.0045351
        k(   74) = (   0.1428571  -0.0476190   0.0000000), wk =   0.0045351
        k(   75) = (   0.1904762   0.0000000   0.0000000), wk =   0.0045351
        k(   76) = (   0.1904762   0.0476190   0.0000000), wk =   0.0045351
        k(   77) = (   0.1904762   0.0952381   0.0000000), wk =   0.0045351
        k(   78) = (   0.1904762   0.1428571   0.0000000), wk =   0.0045351
        k(   79) = (   0.1904762   0.1904762   0.0000000), wk =   0.0045351
        k(   80) = (   0.1904762   0.2380952   0.0000000), wk =   0.0045351
        k(   81) = (   0.1904762   0.2857143   0.0000000), wk =   0.0045351
        k(   82) = (   0.1904762   0.3333333   0.0000000), wk =   0.0045351
        k(   83) = (   0.1904762   0.3809524   0.0000000), wk =   0.0045351
        k(   84) = (   0.1904762   0.4285714   0.0000000), wk =   0.0045351
        k(   85) = (   0.1904762   0.4761905   0.0000000), wk =   0.0045351
        k(   86) = (   0.1904762  -0.4761905   0.0000000), wk =   0.0045351
        k(   87) = (   0.1904762  -0.4285714   0.0000000), wk =   0.0045351
        k(   88) = (   0.1904762  -0.3809524   0.0000000), wk =   0.0045351
        k(   89) = (   0.1904762  -0.3333333   0.0000000), wk =   0.0045351
        k(   90) = (   0.1904762  -0.2857143   0.0000000), wk =   0.0045351
        k(   91) = (   0.1904762  -0.2380952   0.0000000), wk =   0.0045351
        k(   92) = (   0.1904762  -0.1904762   0.0000000), wk =   0.0045351
        k(   93) = (   0.1904762  -0.1428571   0.0000000), wk =   0.0045351
        k(   94) = (   0.1904762  -0.0952381   0.0000000), wk =   0.0045351
        k(   95) = (   0.1904762  -0.0476190   0.0000000), wk =   0.0045351
        k(   96) = (   0.2380952   0.0000000   0.0000000), wk =   0.0045351
        k(   97) = (   0.2380952   0.0476190   0.0000000), wk =   0.0045351
        k(   98) = (   0.2380952   0.0952381   0.0000000), wk =   0.0045351
        k(   99) = (   0.2380952   0.1428571   0.0000000), wk =   0.0045351
        k(  100) = (   0.2380952   0.1904762   0.0000000), wk =   0.0045351
        k(  101) = (   0.2380952   0.2380952   0.0000000), wk =   0.0045351
        k(  102) = (   0.2380952   0.2857143   0.0000000), wk =   0.0045351
        k(  103) = (   0.2380952   0.3333333   0.0000000), wk =   0.0045351
        k(  104) = (   0.2380952   0.3809524   0.0000000), wk =   0.0045351
        k(  105) = (   0.2380952   0.4285714   0.0000000), wk =   0.0045351
        k(  106) = (   0.2380952   0.4761905   0.0000000), wk =   0.0045351
        k(  107) = (   0.2380952  -0.4761905   0.0000000), wk =   0.0045351
        k(  108) = (   0.2380952  -0.4285714   0.0000000), wk =   0.0045351
        k(  109) = (   0.2380952  -0.3809524   0.0000000), wk =   0.0045351
        k(  110) = (   0.2380952  -0.3333333   0.0000000), wk =   0.0045351
        k(  111) = (   0.2380952  -0.2857143   0.0000000), wk =   0.0045351
        k(  112) = (   0.2380952  -0.2380952   0.0000000), wk =   0.0045351
        k(  113) = (   0.2380952  -0.1904762   0.0000000), wk =   0.0045351
        k(  114) = (   0.2380952  -0.1428571   0.0000000), wk =   0.0045351
        k(  115) = (   0.2380952  -0.0952381   0.0000000), wk =   0.0045351
        k(  116) = (   0.2380952  -0.0476190   0.0000000), wk =   0.0045351
        k(  117) = (   0.2857143  -0.0000000   0.0000000), wk =   0.0045351
        k(  118) = (   0.2857143   0.0476190   0.0000000), wk =   0.0045351
        k(  119) = (   0.2857143   0.0952381   0.0000000), wk =   0.0045351
        k(  120) = (   0.2857143   0.1428571   0.0000000), wk =   0.0045351
        k(  121) = (   0.2857143   0.1904762   0.0000000), wk =   0.0045351
        k(  122) = (   0.2857143   0.2380952   0.0000000), wk =   0.0045351
        k(  123) = (   0.2857143   0.2857143   0.0000000), wk =   0.0045351
        k(  124) = (   0.2857143   0.3333333   0.0000000), wk =   0.0045351
        k(  125) = (   0.2857143   0.3809524   0.0000000), wk =   0.0045351
        k(  126) = (   0.2857143   0.4285714   0.0000000), wk =   0.0045351
        k(  127) = (   0.2857143   0.4761905   0.0000000), wk =   0.0045351
        k(  128) = (   0.2857143  -0.4761905   0.0000000), wk =   0.0045351
        k(  129) = (   0.2857143  -0.4285714   0.0000000), wk =   0.0045351
        k(  130) = (   0.2857143  -0.3809524   0.0000000), wk =   0.0045351
        k(  131) = (   0.2857143  -0.3333333   0.0000000), wk =   0.0045351
        k(  132) = (   0.2857143  -0.2857143   0.0000000), wk =   0.0045351
        k(  133) = (   0.2857143  -0.2380952   0.0000000), wk =   0.0045351
        k(  134) = (   0.2857143  -0.1904762   0.0000000), wk =   0.0045351
        k(  135) = (   0.2857143  -0.1428571   0.0000000), wk =   0.0045351
        k(  136) = (   0.2857143  -0.0952381   0.0000000), wk =   0.0045351
        k(  137) = (   0.2857143  -0.0476190   0.0000000), wk =   0.0045351
        k(  138) = (   0.3333333   0.0000000   0.0000000), wk =   0.0045351
        k(  139) = (   0.3333333   0.0476190   0.0000000), wk =   0.0045351
        k(  140) = (   0.3333333   0.0952381   0.0000000), wk =   0.0045351
        k(  141) = (   0.3333333   0.1428571   0.0000000), wk =   0.0045351
        k(  142) = (   0.3333333   0.1904762   0.0000000), wk =   0.0045351
        k(  143) = (   0.3333333   0.2380952   0.0000000), wk =   0.0045351
        k(  144) = (   0.3333333   0.2857143   0.0000000), wk =   0.0045351
        k(  145) = (   0.3333333   0.3333333   0.0000000), wk =   0.0045351
        k(  146) = (   0.3333333   0.3809524   0.0000000), wk =   0.0045351
        k(  147) = (   0.3333333   0.4285714   0.0000000), wk =   0.0045351
        k(  148) = (   0.3333333   0.4761905   0.0000000), wk =   0.0045351
        k(  149) = (   0.3333333  -0.4761905   0.0000000), wk =   0.0045351
        k(  150) = (   0.3333333  -0.4285714   0.0000000), wk =   0.0045351
        k(  151) = (   0.3333333  -0.3809524   0.0000000), wk =   0.0045351
        k(  152) = (   0.3333333  -0.3333333   0.0000000), wk =   0.0045351
        k(  153) = (   0.3333333  -0.2857143   0.0000000), wk =   0.0045351
        k(  154) = (   0.3333333  -0.2380952   0.0000000), wk =   0.0045351
        k(  155) = (   0.3333333  -0.1904762   0.0000000), wk =   0.0045351
        k(  156) = (   0.3333333  -0.1428571   0.0000000), wk =   0.0045351
        k(  157) = (   0.3333333  -0.0952381   0.0000000), wk =   0.0045351
        k(  158) = (   0.3333333  -0.0476190   0.0000000), wk =   0.0045351
        k(  159) = (   0.3809524   0.0000000   0.0000000), wk =   0.0045351
        k(  160) = (   0.3809524   0.0476190   0.0000000), wk =   0.0045351
        k(  161) = (   0.3809524   0.0952381   0.0000000), wk =   0.0045351
        k(  162) = (   0.3809524   0.1428571   0.0000000), wk =   0.0045351
        k(  163) = (   0.3809524   0.1904762   0.0000000), wk =   0.0045351
        k(  164) = (   0.3809524   0.2380952   0.0000000), wk =   0.0045351
        k(  165) = (   0.3809524   0.2857143   0.0000000), wk =   0.0045351
        k(  166) = (   0.3809524   0.3333333   0.0000000), wk =   0.0045351
        k(  167) = (   0.3809524   0.3809524   0.0000000), wk =   0.0045351
        k(  168) = (   0.3809524   0.4285714   0.0000000), wk =   0.0045351
        k(  169) = (   0.3809524   0.4761905   0.0000000), wk =   0.0045351
        k(  170) = (   0.3809524  -0.4761905   0.0000000), wk =   0.0045351
        k(  171) = (   0.3809524  -0.4285714   0.0000000), wk =   0.0045351
        k(  172) = (   0.3809524  -0.3809524   0.0000000), wk =   0.0045351
        k(  173) = (   0.3809524  -0.3333333   0.0000000), wk =   0.0045351
        k(  174) = (   0.3809524  -0.2857143   0.0000000), wk =   0.0045351
        k(  175) = (   0.3809524  -0.2380952   0.0000000), wk =   0.0045351
        k(  176) = (   0.3809524  -0.1904762   0.0000000), wk =   0.0045351
        k(  177) = (   0.3809524  -0.1428571   0.0000000), wk =   0.0045351
        k(  178) = (   0.3809524  -0.0952381   0.0000000), wk =   0.0045351
        k(  179) = (   0.3809524  -0.0476190   0.0000000), wk =   0.0045351
        k(  180) = (   0.4285714  -0.0000000   0.0000000), wk =   0.0045351
        k(  181) = (   0.4285714   0.0476190   0.0000000), wk =   0.0045351
        k(  182) = (   0.4285714   0.0952381   0.0000000), wk =   0.0045351
        k(  183) = (   0.4285714   0.1428571   0.0000000), wk =   0.0045351
        k(  184) = (   0.4285714   0.1904762   0.0000000), wk =   0.0045351
        k(  185) = (   0.4285714   0.2380952   0.0000000), wk =   0.0045351
        k(  186) = (   0.4285714   0.2857143   0.0000000), wk =   0.0045351
        k(  187) = (   0.4285714   0.3333333   0.0000000), wk =   0.0045351
        k(  188) = (   0.4285714   0.3809524   0.0000000), wk =   0.0045351
        k(  189) = (   0.4285714   0.4285714   0.0000000), wk =   0.0045351
        k(  190) = (   0.4285714   0.4761905   0.0000000), wk =   0.0045351
        k(  191) = (   0.4285714  -0.4761905   0.0000000), wk =   0.0045351
        k(  192) = (   0.4285714  -0.4285714   0.0000000), wk =   0.0045351
        k(  193) = (   0.4285714  -0.3809524   0.0000000), wk =   0.0045351
        k(  194) = (   0.4285714  -0.3333333   0.0000000), wk =   0.0045351
        k(  195) = (   0.4285714  -0.2857143   0.0000000), wk =   0.0045351
        k(  196) = (   0.4285714  -0.2380952   0.0000000), wk =   0.0045351
        k(  197) = (   0.4285714  -0.1904762   0.0000000), wk =   0.0045351
        k(  198) = (   0.4285714  -0.1428571   0.0000000), wk =   0.0045351
        k(  199) = (   0.4285714  -0.0952381   0.0000000), wk =   0.0045351
        k(  200) = (   0.4285714  -0.0476190   0.0000000), wk =   0.0045351
        k(  201) = (   0.4761905   0.0000000   0.0000000), wk =   0.0045351
        k(  202) = (   0.4761905   0.0476190   0.0000000), wk =   0.0045351
        k(  203) = (   0.4761905   0.0952381   0.0000000), wk =   0.0045351
        k(  204) = (   0.4761905   0.1428571   0.0000000), wk =   0.0045351
        k(  205) = (   0.4761905   0.1904762   0.0000000), wk =   0.0045351
        k(  206) = (   0.4761905   0.2380952   0.0000000), wk =   0.0045351
        k(  207) = (   0.4761905   0.2857143   0.0000000), wk =   0.0045351
        k(  208) = (   0.4761905   0.3333333   0.0000000), wk =   0.0045351
        k(  209) = (   0.4761905   0.3809524   0.0000000), wk =   0.0045351
        k(  210) = (   0.4761905   0.4285714   0.0000000), wk =   0.0045351
        k(  211) = (   0.4761905   0.4761905   0.0000000), wk =   0.0045351
        k(  212) = (   0.4761905  -0.4761905   0.0000000), wk =   0.0045351
        k(  213) = (   0.4761905  -0.4285714   0.0000000), wk =   0.0045351
        k(  214) = (   0.4761905  -0.3809524   0.0000000), wk =   0.0045351
        k(  215) = (   0.4761905  -0.3333333   0.0000000), wk =   0.0045351
        k(  216) = (   0.4761905  -0.2857143   0.0000000), wk =   0.0045351
        k(  217) = (   0.4761905  -0.2380952   0.0000000), wk =   0.0045351
        k(  218) = (   0.4761905  -0.1904762   0.0000000), wk =   0.0045351
        k(  219) = (   0.4761905  -0.1428571   0.0000000), wk =   0.0045351
        k(  220) = (   0.4761905  -0.0952381   0.0000000), wk =   0.0045351
        k(  221) = (   0.4761905  -0.0476190   0.0000000), wk =   0.0045351

     Dense  grid:   458817 G-vectors     FFT dimensions: (  60,  60, 300)

     Smooth grid:   116185 G-vectors     FFT dimensions: (  40,  40, 192)

     Dynamical RAM for                 wfc:       1.44 MB

     Dynamical RAM for     wfc (w. buffer):     319.18 MB

     Dynamical RAM for           str. fact:       0.58 MB

     Dynamical RAM for           local pot:       0.00 MB

     Dynamical RAM for          nlocal pot:       1.57 MB

     Dynamical RAM for                qrad:       9.40 MB

     Dynamical RAM for          rho,v,vnew:       7.78 MB

     Dynamical RAM for               rhoin:       2.59 MB

     Dynamical RAM for            rho*nmix:      18.67 MB

     Dynamical RAM for           G-vectors:       1.13 MB

     Dynamical RAM for          h,s,v(r/c):       1.11 MB

     Dynamical RAM for          <psi|beta>:       0.40 MB

     Dynamical RAM for                 psi:       2.88 MB

     Dynamical RAM for                hpsi:       2.88 MB

     Dynamical RAM for      wfcinit/wfcrot:       2.30 MB

     Estimated static dynamical RAM per process >     345.97 MB

     Estimated max dynamical RAM per process >     371.91 MB

     Estimated total dynamical RAM >       8.72 GB

     Initial potential from superposition of free atoms

     starting charge      77.7613, renormalised to      78.0000

     negative rho (up, down):  3.878E-04 0.000E+00
     Starting wfcs are random

     total cpu time spent up to now is       19.7 secs

     Self-consistent Calculation

     iteration #  1     ecut=    50.00 Ry     beta= 0.70
     Davidson diagonalization with overlap

---- Real-time Memory Report at c_bands before calling an iterative solver
           551 MiB given to the printing process from OS
             0 MiB allocation reported by mallinfo(arena+hblkhd)
        109724 MiB available memory on the node where the printing process lives
------------------
     ethr =  1.00E-02,  avg # of iterations = 12.3

     Threshold (ethr) on eigenvalues was too large:
     Diagonalizing with lowered threshold

     Davidson diagonalization with overlap

---- Real-time Memory Report at c_bands before calling an iterative solver
           560 MiB given to the printing process from OS
             0 MiB allocation reported by mallinfo(arena+hblkhd)
        109625 MiB available memory on the node where the printing process lives
------------------
     ethr =  1.15E-04,  avg # of iterations =  6.0

     negative rho (up, down):  1.673E-05 0.000E+00

     total cpu time spent up to now is      321.7 secs

     total energy              =    -806.53987781 Ry
     estimated scf accuracy    <       0.07767511 Ry

     iteration #  2     ecut=    50.00 Ry     beta= 0.70
     Davidson diagonalization with overlap

---- Real-time Memory Report at c_bands before calling an iterative solver
           560 MiB given to the printing process from OS
             0 MiB allocation reported by mallinfo(arena+hblkhd)
        109624 MiB available memory on the node where the printing process lives
------------------
     ethr =  9.96E-05,  avg # of iterations =  5.0

     negative rho (up, down):  2.718E-05 0.000E+00

     total cpu time spent up to now is      402.6 secs

     total energy              =    -806.50234575 Ry
     estimated scf accuracy    <       0.36669011 Ry

     iteration #  3     ecut=    50.00 Ry     beta= 0.70
     Davidson diagonalization with overlap

---- Real-time Memory Report at c_bands before calling an iterative solver
           561 MiB given to the printing process from OS
             0 MiB allocation reported by mallinfo(arena+hblkhd)
        109610 MiB available memory on the node where the printing process lives
------------------
     ethr =  9.96E-05,  avg # of iterations =  5.2

     negative rho (up, down):  2.323E-05 0.000E+00

     total cpu time spent up to now is      478.3 secs

     total energy              =    -806.54799487 Ry
     estimated scf accuracy    <       0.23325123 Ry

     iteration #  4     ecut=    50.00 Ry     beta= 0.70
     Davidson diagonalization with overlap

---- Real-time Memory Report at c_bands before calling an iterative solver
           562 MiB given to the printing process from OS
             0 MiB allocation reported by mallinfo(arena+hblkhd)
        109604 MiB available memory on the node where the printing process lives
------------------
     ethr =  9.96E-05,  avg # of iterations =  3.4

     negative rho (up, down):  3.932E-06 0.000E+00

     total cpu time spent up to now is      543.5 secs

     total energy              =    -806.57235858 Ry
     estimated scf accuracy    <       0.00306010 Ry

     iteration #  5     ecut=    50.00 Ry     beta= 0.70
     Davidson diagonalization with overlap

---- Real-time Memory Report at c_bands before calling an iterative solver
           562 MiB given to the printing process from OS
             0 MiB allocation reported by mallinfo(arena+hblkhd)
        109592 MiB available memory on the node where the printing process lives
------------------
     ethr =  3.92E-06,  avg # of iterations =  6.6

     negative rho (up, down):  2.701E-06 0.000E+00

     total cpu time spent up to now is      624.0 secs

     total energy              =    -806.57087313 Ry
     estimated scf accuracy    <       0.04842462 Ry

     iteration #  6     ecut=    50.00 Ry     beta= 0.70
     Davidson diagonalization with overlap

---- Real-time Memory Report at c_bands before calling an iterative solver
           563 MiB given to the printing process from OS
             0 MiB allocation reported by mallinfo(arena+hblkhd)
        109583 MiB available memory on the node where the printing process lives
------------------
     ethr =  3.92E-06,  avg # of iterations =  6.7

     negative rho (up, down):  1.537E-08 0.000E+00

     total cpu time spent up to now is      696.1 secs

     total energy              =    -806.57330624 Ry
     estimated scf accuracy    <       0.00285077 Ry

     iteration #  7     ecut=    50.00 Ry     beta= 0.70
     Davidson diagonalization with overlap

---- Real-time Memory Report at c_bands before calling an iterative solver
           564 MiB given to the printing process from OS
             0 MiB allocation reported by mallinfo(arena+hblkhd)
        109573 MiB available memory on the node where the printing process lives
------------------
     ethr =  3.65E-06,  avg # of iterations =  2.6

     total cpu time spent up to now is      753.4 secs

     total energy              =    -806.57353382 Ry
     estimated scf accuracy    <       0.00010356 Ry

     iteration #  8     ecut=    50.00 Ry     beta= 0.70
     Davidson diagonalization with overlap

---- Real-time Memory Report at c_bands before calling an iterative solver
           564 MiB given to the printing process from OS
             0 MiB allocation reported by mallinfo(arena+hblkhd)
        109565 MiB available memory on the node where the printing process lives
------------------
     ethr =  1.33E-07,  avg # of iterations =  5.7

     total cpu time spent up to now is      828.2 secs

     total energy              =    -806.57356556 Ry
     estimated scf accuracy    <       0.00014241 Ry

     iteration #  9     ecut=    50.00 Ry     beta= 0.70
     Davidson diagonalization with overlap

---- Real-time Memory Report at c_bands before calling an iterative solver
           565 MiB given to the printing process from OS
             0 MiB allocation reported by mallinfo(arena+hblkhd)
        109558 MiB available memory on the node where the printing process lives
------------------
     ethr =  1.33E-07,  avg # of iterations =  2.0

     total cpu time spent up to now is      883.2 secs

     total energy              =    -806.57356331 Ry
     estimated scf accuracy    <       0.00004758 Ry

     iteration # 10     ecut=    50.00 Ry     beta= 0.70
     Davidson diagonalization with overlap

---- Real-time Memory Report at c_bands before calling an iterative solver
           566 MiB given to the printing process from OS
             0 MiB allocation reported by mallinfo(arena+hblkhd)
        109549 MiB available memory on the node where the printing process lives
------------------
     ethr =  6.10E-08,  avg # of iterations =  3.6

     total cpu time spent up to now is      943.1 secs

     total energy              =    -806.57356667 Ry
     estimated scf accuracy    <       0.00000243 Ry

     iteration # 11     ecut=    50.00 Ry     beta= 0.70
     Davidson diagonalization with overlap

---- Real-time Memory Report at c_bands before calling an iterative solver
           566 MiB given to the printing process from OS
             0 MiB allocation reported by mallinfo(arena+hblkhd)
        109542 MiB available memory on the node where the printing process lives
------------------
     ethr =  3.12E-09,  avg # of iterations =  5.8

     total cpu time spent up to now is     1017.2 secs

     total energy              =    -806.57356734 Ry
     estimated scf accuracy    <       0.00000335 Ry

     iteration # 12     ecut=    50.00 Ry     beta= 0.70
     Davidson diagonalization with overlap

---- Real-time Memory Report at c_bands before calling an iterative solver
           566 MiB given to the printing process from OS
             0 MiB allocation reported by mallinfo(arena+hblkhd)
        109539 MiB available memory on the node where the printing process lives
------------------
     ethr =  3.12E-09,  avg # of iterations =  2.6

     total cpu time spent up to now is     1074.2 secs

     total energy              =    -806.57356748 Ry
     estimated scf accuracy    <       0.00000029 Ry

     iteration # 13     ecut=    50.00 Ry     beta= 0.70
     Davidson diagonalization with overlap

---- Real-time Memory Report at c_bands before calling an iterative solver
           566 MiB given to the printing process from OS
             0 MiB allocation reported by mallinfo(arena+hblkhd)
        109539 MiB available memory on the node where the printing process lives
------------------
     ethr =  3.72E-10,  avg # of iterations =  5.8

     total cpu time spent up to now is     1145.7 secs

     total energy              =    -806.57356753 Ry
     estimated scf accuracy    <       0.00000019 Ry

     iteration # 14     ecut=    50.00 Ry     beta= 0.70
     Davidson diagonalization with overlap

---- Real-time Memory Report at c_bands before calling an iterative solver
           567 MiB given to the printing process from OS
             0 MiB allocation reported by mallinfo(arena+hblkhd)
        109538 MiB available memory on the node where the printing process lives
------------------
     ethr =  2.47E-10,  avg # of iterations =  2.1

     total cpu time spent up to now is     1200.8 secs

     End of self-consistent calculation

          k = 0.0000 0.0000 0.0000 ( 14485 PWs)   bands (ev):

   -35.4329 -35.4329 -35.4327 -35.4327 -35.4068 -35.4068 -35.4065 -35.4065
   -35.3194 -35.3194 -35.2839 -35.2839 -33.9731 -33.9731 -33.9729 -33.9729
   -33.9510 -33.9510 -33.9507 -33.9507 -33.9392 -33.9392 -33.9390 -33.9390
   -33.8569 -33.8569 -33.8415 -33.8415 -33.8108 -33.8108 -28.0571 -28.0571
   -28.0568 -28.0568 -28.0483 -28.0483 -28.0481 -28.0481 -26.8181 -26.8181
   -26.8177 -26.8177 -26.8080 -26.8080 -26.8078 -26.8078 -26.8068 -26.8068
   -26.8066 -26.8066 -10.5840 -10.5840 -10.0586 -10.0586  -8.9726  -8.9726
    -6.2131  -6.2131  -4.7960  -4.7960  -0.4440  -0.4440   0.0774   0.0774
     0.3209   0.3209   0.5916   0.5916   0.6810   0.6810   0.7909   0.7909
     1.0062   1.0062   1.3916   1.3916   1.5324   1.5324

     occupation numbers 
     1.0000   1.0000   1.0000   1.0000   1.0000   1.0000   1.0000   1.0000
     1.0000   1.0000   1.0000   1.0000   1.0000   1.0000   1.0000   1.0000
     1.0000   1.0000   1.0000   1.0000   1.0000   1.0000   1.0000   1.0000
     1.0000   1.0000   1.0000   1.0000   1.0000   1.0000   1.0000   1.0000
     1.0000   1.0000   1.0000   1.0000   1.0000   1.0000   1.0000   1.0000
     1.0000   1.0000   1.0000   1.0000   1.0000   1.0000   1.0000   1.0000
     1.0000   1.0000   1.0000   1.0000   1.0000   1.0000   1.0000   1.0000
     1.0000   1.0000   1.0000   1.0000   1.0000   1.0000   1.0000   1.0000
     1.0000   1.0000   1.0000   1.0000   1.0000   1.0000   1.0000   1.0000
     1.0000   1.0000   1.0000   1.0000   1.0000   1.0000

          k = 0.0000 0.0555 0.0000 ( 14480 PWs)   bands (ev):

   -35.4329 -35.4329 -35.4326 -35.4326 -35.4068 -35.4068 -35.4065 -35.4065
   -35.3194 -35.3194 -35.2839 -35.2839 -33.9731 -33.9731 -33.9729 -33.9729
   -33.9510 -33.9510 -33.9507 -33.9507 -33.9392 -33.9392 -33.9390 -33.9390
   -33.8568 -33.8568 -33.8415 -33.8415 -33.8108 -33.8108 -28.0571 -28.0571
   -28.0568 -28.0568 -28.0483 -28.0483 -28.0481 -28.0481 -26.8180 -26.8180
   -26.8177 -26.8177 -26.8080 -26.8080 -26.8078 -26.8078 -26.8068 -26.8068
   -26.8066 -26.8065 -10.5640 -10.5640 -10.0401 -10.0401  -8.9610  -8.9610
    -6.2146  -6.2146  -4.8276  -4.8276  -0.4716  -0.4715  -0.1088  -0.1082
     0.2937   0.2949   0.4006   0.4024   0.5178   0.5192   0.8201   0.8233
     1.0933   1.0945   1.3107   1.3117   1.6852   1.6862

     occupation numbers 
     1.0000   1.0000   1.0000   1.0000   1.0000   1.0000   1.0000   1.0000
     1.0000   1.0000   1.0000   1.0000   1.0000   1.0000   1.0000   1.0000
     1.0000   1.0000   1.0000   1.0000   1.0000   1.0000   1.0000   1.0000
     1.0000   1.0000   1.0000   1.0000   1.0000   1.0000   1.0000   1.0000
     1.0000   1.0000   1.0000   1.0000   1.0000   1.0000   1.0000   1.0000
     1.0000   1.0000   1.0000   1.0000   1.0000   1.0000   1.0000   1.0000
     1.0000   1.0000   1.0000   1.0000   1.0000   1.0000   1.0000   1.0000
     1.0000   1.0000   1.0000   1.0000   1.0000   1.0000   1.0000   1.0000
     1.0000   1.0000   1.0000   1.0000   1.0000   1.0000   1.0000   1.0000
     1.0000   1.0000   1.0000   1.0000   1.0000   1.0000

          k = 0.0000 0.1111 0.0000 ( 14508 PWs)   bands (ev):

   -35.4329 -35.4328 -35.4326 -35.4326 -35.4068 -35.4068 -35.4065 -35.4065
   -35.3194 -35.3194 -35.2839 -35.2839 -33.9731 -33.9730 -33.9728 -33.9728
   -33.9510 -33.9510 -33.9507 -33.9507 -33.9392 -33.9391 -33.9390 -33.9389
   -33.8568 -33.8568 -33.8415 -33.8415 -33.8108 -33.8108 -28.0570 -28.0570
   -28.0567 -28.0567 -28.0484 -28.0483 -28.0482 -28.0481 -26.8179 -26.8179
   -26.8176 -26.8176 -26.8081 -26.8081 -26.8079 -26.8078 -26.8068 -26.8067
   -26.8066 -26.8065 -10.5045 -10.5045  -9.9853  -9.9853  -8.9271  -8.9270
    -6.2212  -6.2211  -4.9230  -4.9230  -0.6109  -0.6107  -0.4414  -0.4408
     0.0026   0.0046   0.1783   0.1789   0.3688   0.3697   0.6292   0.6301
     1.0760   1.0772   1.4986   1.4992   1.7881   1.7892

     occupation numbers 
     1.0000   1.0000   1.0000   1.0000   1.0000   1.0000   1.0000   1.0000
     1.0000   1.0000   1.0000   1.0000   1.0000   1.0000   1.0000   1.0000
     1.0000   1.0000   1.0000   1.0000   1.0000   1.0000   1.0000   1.0000
     1.0000   1.0000   1.0000   1.0000   1.0000   1.0000   1.0000   1.0000
     1.0000   1.0000   1.0000   1.0000   1.0000   1.0000   1.0000   1.0000
     1.0000   1.0000   1.0000   1.0000   1.0000   1.0000   1.0000   1.0000
     1.0000   1.0000   1.0000   1.0000   1.0000   1.0000   1.0000   1.0000
     1.0000   1.0000   1.0000   1.0000   1.0000   1.0000   1.0000   1.0000
     1.0000   1.0000   1.0000   1.0000   1.0000   1.0000   1.0000   1.0000
     1.0000   1.0000   1.0000   1.0000   1.0000   1.0000

          k = 0.0000 0.1666 0.0000 ( 14497 PWs)   bands (ev):

   -35.4328 -35.4328 -35.4326 -35.4326 -35.4068 -35.4068 -35.4065 -35.4065
   -35.3194 -35.3194 -35.2839 -35.2839 -33.9730 -33.9730 -33.9727 -33.9727
   -33.9510 -33.9510 -33.9507 -33.9507 -33.9391 -33.9391 -33.9389 -33.9389
   -33.8568 -33.8568 -33.8415 -33.8415 -33.8107 -33.8107 -28.0569 -28.0569
   -28.0567 -28.0566 -28.0484 -28.0483 -28.0482 -28.0481 -26.8177 -26.8177
   -26.8174 -26.8174 -26.8082 -26.8081 -26.8080 -26.8079 -26.8068 -26.8067
   -26.8065 -26.8064 -10.4060 -10.4060  -9.8953  -9.8953  -8.8732  -8.8731
    -6.2389  -6.2389  -5.0812  -5.0812  -1.0231  -1.0226  -0.6250  -0.6245
    -0.3559  -0.3543  -0.0230  -0.0225   0.1328   0.1333   0.4565   0.4575
     1.0755   1.0767   1.5096   1.5105   1.7444   1.7457

     occupation numbers 
     1.0000   1.0000   1.0000   1.0000   1.0000   1.0000   1.0000   1.0000
     1.0000   1.0000   1.0000   1.0000   1.0000   1.0000   1.0000   1.0000
     1.0000   1.0000   1.0000   1.0000   1.0000   1.0000   1.0000   1.0000
     1.0000   1.0000   1.0000   1.0000   1.0000   1.0000   1.0000   1.0000
     1.0000   1.0000   1.0000   1.0000   1.0000   1.0000   1.0000   1.0000
     1.0000   1.0000   1.0000   1.0000   1.0000   1.0000   1.0000   1.0000
     1.0000   1.0000   1.0000   1.0000   1.0000   1.0000   1.0000   1.0000
     1.0000   1.0000   1.0000   1.0000   1.0000   1.0000   1.0000   1.0000
     1.0000   1.0000   1.0000   1.0000   1.0000   1.0000   1.0000   1.0000
     1.0000   1.0000   1.0000   1.0000   1.0000   1.0000

          k = 0.0000 0.2221 0.0000 ( 14501 PWs)   bands (ev):

   -35.4327 -35.4327 -35.4325 -35.4325 -35.4068 -35.4067 -35.4065 -35.4065
   -35.3194 -35.3194 -35.2838 -35.2838 -33.9729 -33.9728 -33.9726 -33.9726
   -33.9510 -33.9510 -33.9507 -33.9507 -33.9391 -33.9390 -33.9389 -33.9388
   -33.8568 -33.8568 -33.8415 -33.8415 -33.8106 -33.8106 -28.0568 -28.0568
   -28.0565 -28.0565 -28.0485 -28.0483 -28.0482 -28.0481 -26.8174 -26.8174
   -26.8172 -26.8172 -26.8083 -26.8083 -26.8081 -26.8081 -26.8068 -26.8066
   -26.8065 -26.8063 -10.2700 -10.2700  -9.7723  -9.7723  -8.8039  -8.8038
    -6.2782  -6.2782  -5.2972  -5.2972  -1.4823  -1.4818  -0.7804  -0.7797
    -0.7250  -0.7240  -0.2633  -0.2629  -0.0584  -0.0577   0.3700   0.3713
     0.9631   0.9649   1.2451   1.2467   1.8536   1.8545

     occupation numbers 
     1.0000   1.0000   1.0000   1.0000   1.0000   1.0000   1.0000   1.0000
     1.0000   1.0000   1.0000   1.0000   1.0000   1.0000   1.0000   1.0000
     1.0000   1.0000   1.0000   1.0000   1.0000   1.0000   1.0000   1.0000
     1.0000   1.0000   1.0000   1.0000   1.0000   1.0000   1.0000   1.0000
     1.0000   1.0000   1.0000   1.0000   1.0000   1.0000   1.0000   1.0000
     1.0000   1.0000   1.0000   1.0000   1.0000   1.0000   1.0000   1.0000
     1.0000   1.0000   1.0000   1.0000   1.0000   1.0000   1.0000   1.0000
     1.0000   1.0000   1.0000   1.0000   1.0000   1.0000   1.0000   1.0000
     1.0000   1.0000   1.0000   1.0000   1.0000   1.0000   1.0000   1.0000
     1.0000   1.0000   1.0000   1.0000   1.0000   1.0000

          k = 0.0000 0.2777 0.0000 ( 14496 PWs)   bands (ev):

   -35.4327 -35.4327 -35.4324 -35.4324 -35.4068 -35.4067 -35.4065 -35.4065
   -35.3194 -35.3194 -35.2837 -35.2837 -33.9727 -33.9727 -33.9725 -33.9725
   -33.9510 -33.9510 -33.9507 -33.9507 -33.9390 -33.9390 -33.9388 -33.9388
   -33.8567 -33.8567 -33.8415 -33.8415 -33.8104 -33.8104 -28.0567 -28.0566
   -28.0564 -28.0564 -28.0485 -28.0484 -28.0483 -28.0481 -26.8172 -26.8172
   -26.8169 -26.8169 -26.8085 -26.8084 -26.8083 -26.8082 -26.8067 -26.8065
   -26.8064 -26.8062 -10.0987 -10.0987  -9.6199  -9.6199  -8.7261  -8.7260
    -6.3523  -6.3522  -5.5573  -5.5573  -1.9013  -1.9009  -1.0860  -1.0850
    -0.9136  -0.9126  -0.4884  -0.4880  -0.2219  -0.2213   0.3286   0.3300
     0.6780   0.6791   1.1388   1.1397   1.8165   1.8174

     occupation numbers 
     1.0000   1.0000   1.0000   1.0000   1.0000   1.0000   1.0000   1.0000
     1.0000   1.0000   1.0000   1.0000   1.0000   1.0000   1.0000   1.0000
     1.0000   1.0000   1.0000   1.0000   1.0000   1.0000   1.0000   1.0000
     1.0000   1.0000   1.0000   1.0000   1.0000   1.0000   1.0000   1.0000
     1.0000   1.0000   1.0000   1.0000   1.0000   1.0000   1.0000   1.0000
     1.0000   1.0000   1.0000   1.0000   1.0000   1.0000   1.0000   1.0000
     1.0000   1.0000   1.0000   1.0000   1.0000   1.0000   1.0000   1.0000
     1.0000   1.0000   1.0000   1.0000   1.0000   1.0000   1.0000   1.0000
     1.0000   1.0000   1.0000   1.0000   1.0000   1.0000   1.0000   1.0000
     1.0000   1.0000   1.0000   1.0000   1.0000   1.0000

          k = 0.0000 0.3332 0.0000 ( 14523 PWs)   bands (ev):

   -35.4326 -35.4326 -35.4323 -35.4323 -35.4067 -35.4067 -35.4065 -35.4064
   -35.3194 -35.3194 -35.2836 -35.2836 -33.9726 -33.9726 -33.9724 -33.9724
   -33.9510 -33.9510 -33.9507 -33.9507 -33.9390 -33.9389 -33.9388 -33.9387
   -33.8567 -33.8567 -33.8415 -33.8415 -33.8103 -33.8103 -28.0565 -28.0565
   -28.0563 -28.0563 -28.0486 -28.0484 -28.0483 -28.0481 -26.8169 -26.8169
   -26.8167 -26.8167 -26.8086 -26.8086 -26.8084 -26.8084 -26.8066 -26.8065
   -26.8063 -26.8061  -9.8953  -9.8953  -9.4440  -9.4440  -8.6504  -8.6503
    -6.4743  -6.4742  -5.8380  -5.8379  -2.2571  -2.2567  -1.3890  -1.3882
    -1.0375  -1.0364  -0.6668  -0.6662  -0.3836  -0.3831   0.2425   0.2434
     0.4564   0.4567   1.0790   1.0795   1.6633   1.6641

     occupation numbers 
     1.0000   1.0000   1.0000   1.0000   1.0000   1.0000   1.0000   1.0000
     1.0000   1.0000   1.0000   1.0000   1.0000   1.0000   1.0000   1.0000
     1.0000   1.0000   1.0000   1.0000   1.0000   1.0000   1.0000   1.0000
     1.0000   1.0000   1.0000   1.0000   1.0000   1.0000   1.0000   1.0000
     1.0000   1.0000   1.0000   1.0000   1.0000   1.0000   1.0000   1.0000
     1.0000   1.0000   1.0000   1.0000   1.0000   1.0000   1.0000   1.0000
     1.0000   1.0000   1.0000   1.0000   1.0000   1.0000   1.0000   1.0000
     1.0000   1.0000   1.0000   1.0000   1.0000   1.0000   1.0000   1.0000
     1.0000   1.0000   1.0000   1.0000   1.0000   1.0000   1.0000   1.0000
     1.0000   1.0000   1.0000   1.0000   1.0000   1.0000

          k = 0.0000 0.3888 0.0000 ( 14540 PWs)   bands (ev):

   -35.4325 -35.4325 -35.4323 -35.4323 -35.4067 -35.4067 -35.4065 -35.4064
   -35.3193 -35.3193 -35.2836 -35.2836 -33.9725 -33.9725 -33.9723 -33.9722
   -33.9510 -33.9510 -33.9507 -33.9507 -33.9389 -33.9389 -33.9387 -33.9386
   -33.8566 -33.8566 -33.8415 -33.8415 -33.8102 -33.8102 -28.0564 -28.0564
   -28.0562 -28.0562 -28.0486 -28.0485 -28.0483 -28.0482 -26.8167 -26.8167
   -26.8165 -26.8164 -26.8087 -26.8087 -26.8085 -26.8085 -26.8065 -26.8064
   -26.8061 -26.8060  -9.6650  -9.6650  -9.2540  -9.2540  -8.5919  -8.5918
    -6.6487  -6.6486  -6.1085  -6.1085  -2.5433  -2.5430  -1.6110  -1.6104
    -1.1590  -1.1578  -0.8034  -0.8026  -0.5352  -0.5347   0.0540   0.0547
     0.4045   0.4053   1.0342   1.0348   1.4775   1.4781

     occupation numbers 
     1.0000   1.0000   1.0000   1.0000   1.0000   1.0000   1.0000   1.0000
     1.0000   1.0000   1.0000   1.0000   1.0000   1.0000   1.0000   1.0000
     1.0000   1.0000   1.0000   1.0000   1.0000   1.0000   1.0000   1.0000
     1.0000   1.0000   1.0000   1.0000   1.0000   1.0000   1.0000   1.0000
     1.0000   1.0000   1.0000   1.0000   1.0000   1.0000   1.0000   1.0000
     1.0000   1.0000   1.0000   1.0000   1.0000   1.0000   1.0000   1.0000
     1.0000   1.0000   1.0000   1.0000   1.0000   1.0000   1.0000   1.0000
     1.0000   1.0000   1.0000   1.0000   1.0000   1.0000   1.0000   1.0000
     1.0000   1.0000   1.0000   1.0000   1.0000   1.0000   1.0000   1.0000
     1.0000   1.0000   1.0000   1.0000   1.0000   1.0000

          k = 0.0000 0.4443 0.0000 ( 14541 PWs)   bands (ev):

   -35.4325 -35.4325 -35.4322 -35.4322 -35.4067 -35.4067 -35.4064 -35.4064
   -35.3193 -35.3193 -35.2835 -35.2835 -33.9724 -33.9724 -33.9722 -33.9722
   -33.9510 -33.9510 -33.9507 -33.9507 -33.9389 -33.9388 -33.9386 -33.9386
   -33.8566 -33.8566 -33.8415 -33.8415 -33.8101 -33.8101 -28.0563 -28.0563
   -28.0561 -28.0560 -28.0486 -28.0485 -28.0483 -28.0482 -26.8165 -26.8165
   -26.8163 -26.8163 -26.8088 -26.8088 -26.8086 -26.8086 -26.8064 -26.8063
   -26.8060 -26.8060  -9.4162  -9.4161  -9.0652  -9.0652  -8.5711  -8.5711
    -6.8564  -6.8563  -6.3418  -6.3418  -2.7615  -2.7613  -1.7340  -1.7335
    -1.2867  -1.2856  -0.9264  -0.9257  -0.6523  -0.6519  -0.0813  -0.0807
     0.3740   0.3748   1.0051   1.0056   1.3191   1.3196

     occupation numbers 
     1.0000   1.0000   1.0000   1.0000   1.0000   1.0000   1.0000   1.0000
     1.0000   1.0000   1.0000   1.0000   1.0000   1.0000   1.0000   1.0000
     1.0000   1.0000   1.0000   1.0000   1.0000   1.0000   1.0000   1.0000
     1.0000   1.0000   1.0000   1.0000   1.0000   1.0000   1.0000   1.0000
     1.0000   1.0000   1.0000   1.0000   1.0000   1.0000   1.0000   1.0000
     1.0000   1.0000   1.0000   1.0000   1.0000   1.0000   1.0000   1.0000
     1.0000   1.0000   1.0000   1.0000   1.0000   1.0000   1.0000   1.0000
     1.0000   1.0000   1.0000   1.0000   1.0000   1.0000   1.0000   1.0000
     1.0000   1.0000   1.0000   1.0000   1.0000   1.0000   1.0000   1.0000
     1.0000   1.0000   1.0000   1.0000   1.0000   1.0000

          k = 0.0000 0.4998 0.0000 ( 14528 PWs)   bands (ev):

   -35.4324 -35.4324 -35.4322 -35.4322 -35.4067 -35.4067 -35.4064 -35.4064
   -35.3193 -35.3193 -35.2835 -35.2835 -33.9723 -33.9723 -33.9721 -33.9721
   -33.9510 -33.9510 -33.9507 -33.9507 -33.9388 -33.9388 -33.9386 -33.9386
   -33.8566 -33.8566 -33.8415 -33.8415 -33.8100 -33.8100 -28.0562 -28.0562
   -28.0560 -28.0560 -28.0486 -28.0485 -28.0483 -28.0483 -26.8164 -26.8164
   -26.8162 -26.8162 -26.8089 -26.8089 -26.8087 -26.8087 -26.8063 -26.8062
   -26.8059 -26.8059  -9.1622  -9.1621  -8.9032  -8.9032  -8.6123  -8.6122
    -7.0488  -7.0487  -6.5177  -6.5177  -2.9118  -2.9116  -1.7569  -1.7564
    -1.4246  -1.4236  -1.0382  -1.0378  -0.7197  -0.7194  -0.1364  -0.1359
     0.3283   0.3290   0.9846   0.9851   1.2210   1.2212

     occupation numbers 
     1.0000   1.0000   1.0000   1.0000   1.0000   1.0000   1.0000   1.0000
     1.0000   1.0000   1.0000   1.0000   1.0000   1.0000   1.0000   1.0000
     1.0000   1.0000   1.0000   1.0000   1.0000   1.0000   1.0000   1.0000
     1.0000   1.0000   1.0000   1.0000   1.0000   1.0000   1.0000   1.0000
     1.0000   1.0000   1.0000   1.0000   1.0000   1.0000   1.0000   1.0000
     1.0000   1.0000   1.0000   1.0000   1.0000   1.0000   1.0000   1.0000
     1.0000   1.0000   1.0000   1.0000   1.0000   1.0000   1.0000   1.0000
     1.0000   1.0000   1.0000   1.0000   1.0000   1.0000   1.0000   1.0000
     1.0000   1.0000   1.0000   1.0000   1.0000   1.0000   1.0000   1.0000
     1.0000   1.0000   1.0000   1.0000   1.0000   1.0000

          k = 0.0000 0.5554 0.0000 ( 14542 PWs)   bands (ev):

   -35.4324 -35.4324 -35.4321 -35.4321 -35.4067 -35.4067 -35.4064 -35.4064
   -35.3193 -35.3193 -35.2835 -35.2835 -33.9723 -33.9723 -33.9720 -33.9720
   -33.9510 -33.9510 -33.9507 -33.9507 -33.9388 -33.9388 -33.9386 -33.9386
   -33.8566 -33.8566 -33.8415 -33.8415 -33.8100 -33.8100 -28.0562 -28.0562
   -28.0559 -28.0559 -28.0486 -28.0486 -28.0483 -28.0483 -26.8163 -26.8163
   -26.8161 -26.8161 -26.8089 -26.8089 -26.8087 -26.8087 -26.8062 -26.8062
   -26.8059 -26.8059  -8.9247  -8.9247  -8.8052  -8.8052  -8.7319  -8.7318
    -7.1662  -7.1662  -6.6149  -6.6149  -2.9894  -2.9893  -1.6982  -1.6977
    -1.5636  -1.5629  -1.1030  -1.1028  -0.7490  -0.7489  -0.1445  -0.1443
     0.2889   0.2891   0.9692   0.9693   1.1831   1.1832

     occupation numbers 
     1.0000   1.0000   1.0000   1.0000   1.0000   1.0000   1.0000   1.0000
     1.0000   1.0000   1.0000   1.0000   1.0000   1.0000   1.0000   1.0000
     1.0000   1.0000   1.0000   1.0000   1.0000   1.0000   1.0000   1.0000
     1.0000   1.0000   1.0000   1.0000   1.0000   1.0000   1.0000   1.0000
     1.0000   1.0000   1.0000   1.0000   1.0000   1.0000   1.0000   1.0000
     1.0000   1.0000   1.0000   1.0000   1.0000   1.0000   1.0000   1.0000
     1.0000   1.0000   1.0000   1.0000   1.0000   1.0000   1.0000   1.0000
     1.0000   1.0000   1.0000   1.0000   1.0000   1.0000   1.0000   1.0000
     1.0000   1.0000   1.0000   1.0000   1.0000   1.0000   1.0000   1.0000
     1.0000   1.0000   1.0000   1.0000   1.0000   1.0000

          k = 0.0476 0.0275 0.0000 ( 14477 PWs)   bands (ev):

   -35.4329 -35.4329 -35.4326 -35.4326 -35.4068 -35.4068 -35.4065 -35.4065
   -35.3194 -35.3194 -35.2839 -35.2839 -33.9731 -33.9731 -33.9729 -33.9729
   -33.9510 -33.9510 -33.9507 -33.9507 -33.9392 -33.9392 -33.9390 -33.9390
   -33.8568 -33.8568 -33.8415 -33.8415 -33.8108 -33.8108 -28.0571 -28.0571
   -28.0568 -28.0568 -28.0483 -28.0483 -28.0481 -28.0481 -26.8180 -26.8180
   -26.8177 -26.8177 -26.8081 -26.8080 -26.8078 -26.8078 -26.8068 -26.8068
   -26.8066 -26.8065 -10.5644 -10.5644 -10.0406 -10.0406  -8.9614  -8.9614
    -6.2151  -6.2151  -4.8288  -4.8288  -0.4741  -0.4740  -0.1281  -0.1276
     0.3002   0.3015   0.3853   0.3888   0.5442   0.5463   0.8329   0.8379
     1.0959   1.0986   1.3139   1.3162   1.6812   1.6825

     occupation numbers 
     1.0000   1.0000   1.0000   1.0000   1.0000   1.0000   1.0000   1.0000
     1.0000   1.0000   1.0000   1.0000   1.0000   1.0000   1.0000   1.0000
     1.0000   1.0000   1.0000   1.0000   1.0000   1.0000   1.0000   1.0000
     1.0000   1.0000   1.0000   1.0000   1.0000   1.0000   1.0000   1.0000
     1.0000   1.0000   1.0000   1.0000   1.0000   1.0000   1.0000   1.0000
     1.0000   1.0000   1.0000   1.0000   1.0000   1.0000   1.0000   1.0000
     1.0000   1.0000   1.0000   1.0000   1.0000   1.0000   1.0000   1.0000
     1.0000   1.0000   1.0000   1.0000   1.0000   1.0000   1.0000   1.0000
     1.0000   1.0000   1.0000   1.0000   1.0000   1.0000   1.0000   1.0000
     1.0000   1.0000   1.0000   1.0000   1.0000   1.0000

          k = 0.0476 0.0830 0.0000 ( 14485 PWs)   bands (ev):

   -35.4329 -35.4329 -35.4326 -35.4326 -35.4068 -35.4068 -35.4065 -35.4065
   -35.3194 -35.3194 -35.2839 -35.2839 -33.9731 -33.9731 -33.9728 -33.9728
   -33.9510 -33.9510 -33.9507 -33.9507 -33.9392 -33.9392 -33.9390 -33.9389
   -33.8568 -33.8568 -33.8415 -33.8415 -33.8108 -33.8108 -28.0571 -28.0571
   -28.0568 -28.0568 -28.0484 -28.0483 -28.0481 -28.0481 -26.8179 -26.8179
   -26.8176 -26.8176 -26.8081 -26.8080 -26.8079 -26.8078 -26.8068 -26.8067
   -26.8066 -26.8065 -10.5249 -10.5249 -10.0042 -10.0041  -8.9388  -8.9388
    -6.2194  -6.2194  -4.8929  -4.8929  -0.5503  -0.5501  -0.3693  -0.3686
     0.0367   0.0390   0.2730   0.2746   0.4408   0.4423   0.7174   0.7195
     1.0765   1.0771   1.4250   1.4259   1.7913   1.7923

     occupation numbers 
     1.0000   1.0000   1.0000   1.0000   1.0000   1.0000   1.0000   1.0000
     1.0000   1.0000   1.0000   1.0000   1.0000   1.0000   1.0000   1.0000
     1.0000   1.0000   1.0000   1.0000   1.0000   1.0000   1.0000   1.0000
     1.0000   1.0000   1.0000   1.0000   1.0000   1.0000   1.0000   1.0000
     1.0000   1.0000   1.0000   1.0000   1.0000   1.0000   1.0000   1.0000
     1.0000   1.0000   1.0000   1.0000   1.0000   1.0000   1.0000   1.0000
     1.0000   1.0000   1.0000   1.0000   1.0000   1.0000   1.0000   1.0000
     1.0000   1.0000   1.0000   1.0000   1.0000   1.0000   1.0000   1.0000
     1.0000   1.0000   1.0000   1.0000   1.0000   1.0000   1.0000   1.0000
     1.0000   1.0000   1.0000   1.0000   1.0000   1.0000

          k = 0.0476 0.1386 0.0000 ( 14502 PWs)   bands (ev):

   -35.4328 -35.4328 -35.4326 -35.4326 -35.4068 -35.4068 -35.4065 -35.4065
   -35.3194 -35.3194 -35.2839 -35.2839 -33.9730 -33.9730 -33.9728 -33.9728
   -33.9510 -33.9510 -33.9507 -33.9507 -33.9392 -33.9391 -33.9389 -33.9389
   -33.8568 -33.8568 -33.8415 -33.8415 -33.8107 -33.8107 -28.0570 -28.0570
   -28.0567 -28.0567 -28.0484 -28.0483 -28.0482 -28.0481 -26.8178 -26.8178
   -26.8175 -26.8175 -26.8082 -26.8081 -26.8080 -26.8079 -26.8068 -26.8067
   -26.8065 -26.8064 -10.4461 -10.4461  -9.9319  -9.9319  -8.8950  -8.8950
    -6.2317  -6.2317  -5.0204  -5.0204  -0.8365  -0.8359  -0.5802  -0.5798
    -0.3150  -0.3135   0.0368   0.0383   0.3198   0.3210   0.5440   0.5449
     0.9993   1.0003   1.6164   1.6177   1.7403   1.7419

     occupation numbers 
     1.0000   1.0000   1.0000   1.0000   1.0000   1.0000   1.0000   1.0000
     1.0000   1.0000   1.0000   1.0000   1.0000   1.0000   1.0000   1.0000
     1.0000   1.0000   1.0000   1.0000   1.0000   1.0000   1.0000   1.0000
     1.0000   1.0000   1.0000   1.0000   1.0000   1.0000   1.0000   1.0000
     1.0000   1.0000   1.0000   1.0000   1.0000   1.0000   1.0000   1.0000
     1.0000   1.0000   1.0000   1.0000   1.0000   1.0000   1.0000   1.0000
     1.0000   1.0000   1.0000   1.0000   1.0000   1.0000   1.0000   1.0000
     1.0000   1.0000   1.0000   1.0000   1.0000   1.0000   1.0000   1.0000
     1.0000   1.0000   1.0000   1.0000   1.0000   1.0000   1.0000   1.0000
     1.0000   1.0000   1.0000   1.0000   1.0000   1.0000

          k = 0.0476 0.1941 0.0000 ( 14496 PWs)   bands (ev):

   -35.4328 -35.4328 -35.4325 -35.4325 -35.4068 -35.4067 -35.4065 -35.4065
   -35.3194 -35.3194 -35.2838 -35.2838 -33.9729 -33.9729 -33.9727 -33.9727
   -33.9510 -33.9510 -33.9507 -33.9507 -33.9391 -33.9391 -33.9389 -33.9388
   -33.8568 -33.8568 -33.8415 -33.8415 -33.8106 -33.8106 -28.0569 -28.0568
   -28.0566 -28.0566 -28.0485 -28.0483 -28.0482 -28.0481 -26.8176 -26.8175
   -26.8173 -26.8172 -26.8083 -26.8082 -26.8081 -26.8080 -26.8068 -26.8066
   -26.8065 -26.8063 -10.3290 -10.3290  -9.8255  -9.8255  -8.8334  -8.8333
    -6.2599  -6.2599  -5.2084  -5.2084  -1.2653  -1.2646  -0.7570  -0.7569
    -0.6429  -0.6422  -0.1865  -0.1850   0.1128   0.1143   0.3721   0.3734
     0.9745   0.9754   1.4289   1.4298   1.8257   1.8265

     occupation numbers 
     1.0000   1.0000   1.0000   1.0000   1.0000   1.0000   1.0000   1.0000
     1.0000   1.0000   1.0000   1.0000   1.0000   1.0000   1.0000   1.0000
     1.0000   1.0000   1.0000   1.0000   1.0000   1.0000   1.0000   1.0000
     1.0000   1.0000   1.0000   1.0000   1.0000   1.0000   1.0000   1.0000
     1.0000   1.0000   1.0000   1.0000   1.0000   1.0000   1.0000   1.0000
     1.0000   1.0000   1.0000   1.0000   1.0000   1.0000   1.0000   1.0000
     1.0000   1.0000   1.0000   1.0000   1.0000   1.0000   1.0000   1.0000
     1.0000   1.0000   1.0000   1.0000   1.0000   1.0000   1.0000   1.0000
     1.0000   1.0000   1.0000   1.0000   1.0000   1.0000   1.0000   1.0000
     1.0000   1.0000   1.0000   1.0000   1.0000   1.0000

          k = 0.0476 0.2496 0.0000 ( 14500 PWs)   bands (ev):

   -35.4327 -35.4327 -35.4325 -35.4324 -35.4068 -35.4067 -35.4065 -35.4065
   -35.3194 -35.3194 -35.2838 -35.2838 -33.9728 -33.9728 -33.9726 -33.9725
   -33.9510 -33.9510 -33.9507 -33.9507 -33.9391 -33.9390 -33.9388 -33.9388
   -33.8567 -33.8567 -33.8415 -33.8415 -33.8105 -33.8105 -28.0568 -28.0567
   -28.0565 -28.0564 -28.0485 -28.0484 -28.0482 -28.0481 -26.8173 -26.8173
   -26.8170 -26.8170 -26.8084 -26.8083 -26.8082 -26.8081 -26.8067 -26.8066
   -26.8064 -26.8063 -10.1754 -10.1754  -9.6878  -9.6878  -8.7595  -8.7594
    -6.3158  -6.3157  -5.4480  -5.4480  -1.6933  -1.6927  -1.0376  -1.0371
    -0.8360  -0.8351  -0.4146  -0.4128  -0.1282  -0.1269   0.2874   0.2881
     0.8849   0.8854   1.1867   1.1872   1.8487   1.8496

     occupation numbers 
     1.0000   1.0000   1.0000   1.0000   1.0000   1.0000   1.0000   1.0000
     1.0000   1.0000   1.0000   1.0000   1.0000   1.0000   1.0000   1.0000
     1.0000   1.0000   1.0000   1.0000   1.0000   1.0000   1.0000   1.0000
     1.0000   1.0000   1.0000   1.0000   1.0000   1.0000   1.0000   1.0000
     1.0000   1.0000   1.0000   1.0000   1.0000   1.0000   1.0000   1.0000
     1.0000   1.0000   1.0000   1.0000   1.0000   1.0000   1.0000   1.0000
     1.0000   1.0000   1.0000   1.0000   1.0000   1.0000   1.0000   1.0000
     1.0000   1.0000   1.0000   1.0000   1.0000   1.0000   1.0000   1.0000
     1.0000   1.0000   1.0000   1.0000   1.0000   1.0000   1.0000   1.0000
     1.0000   1.0000   1.0000   1.0000   1.0000   1.0000

          k = 0.0476 0.3052 0.0000 ( 14521 PWs)   bands (ev):

   -35.4326 -35.4326 -35.4324 -35.4324 -35.4067 -35.4067 -35.4065 -35.4064
   -35.3194 -35.3194 -35.2837 -35.2837 -33.9727 -33.9726 -33.9724 -33.9724
   -33.9510 -33.9510 -33.9507 -33.9507 -33.9390 -33.9389 -33.9388 -33.9387
   -33.8567 -33.8567 -33.8415 -33.8415 -33.8104 -33.8104 -28.0566 -28.0565
   -28.0564 -28.0563 -28.0485 -28.0484 -28.0483 -28.0481 -26.8171 -26.8170
   -26.8168 -26.8167 -26.8086 -26.8085 -26.8084 -26.8083 -26.8066 -26.8065
   -26.8063 -26.8062  -9.9880  -9.9880  -9.5234  -9.5234  -8.6819  -8.6818
    -6.4124  -6.4124  -5.7211  -5.7210  -2.0763  -2.0758  -1.3191  -1.3185
    -0.9760  -0.9747  -0.6460  -0.6442  -0.3171  -0.3162   0.2172   0.2177
     0.6870   0.6879   1.0672   1.0677   1.7594   1.7602

     occupation numbers 
     1.0000   1.0000   1.0000   1.0000   1.0000   1.0000   1.0000   1.0000
     1.0000   1.0000   1.0000   1.0000   1.0000   1.0000   1.0000   1.0000
     1.0000   1.0000   1.0000   1.0000   1.0000   1.0000   1.0000   1.0000
     1.0000   1.0000   1.0000   1.0000   1.0000   1.0000   1.0000   1.0000
     1.0000   1.0000   1.0000   1.0000   1.0000   1.0000   1.0000   1.0000
     1.0000   1.0000   1.0000   1.0000   1.0000   1.0000   1.0000   1.0000
     1.0000   1.0000   1.0000   1.0000   1.0000   1.0000   1.0000   1.0000
     1.0000   1.0000   1.0000   1.0000   1.0000   1.0000   1.0000   1.0000
     1.0000   1.0000   1.0000   1.0000   1.0000   1.0000   1.0000   1.0000
     1.0000   1.0000   1.0000   1.0000   1.0000   1.0000

          k = 0.0476 0.3607 0.0000 ( 14536 PWs)   bands (ev):

   -35.4326 -35.4325 -35.4323 -35.4323 -35.4067 -35.4067 -35.4065 -35.4064
   -35.3193 -35.3193 -35.2836 -35.2836 -33.9725 -33.9725 -33.9723 -33.9723
   -33.9510 -33.9510 -33.9507 -33.9507 -33.9389 -33.9389 -33.9387 -33.9387
   -33.8566 -33.8566 -33.8415 -33.8415 -33.8102 -33.8102 -28.0565 -28.0564
   -28.0563 -28.0562 -28.0486 -28.0484 -28.0483 -28.0482 -26.8168 -26.8167
   -26.8166 -26.8165 -26.8087 -26.8086 -26.8085 -26.8084 -26.8065 -26.8064
   -26.8062 -26.8061  -9.7709  -9.7709  -9.3396  -9.3396  -8.6129  -8.6128
    -6.5599  -6.5598  -6.0001  -6.0001  -2.3964  -2.3960  -1.5427  -1.5422
    -1.1179  -1.1166  -0.8394  -0.8377  -0.4520  -0.4513   0.0962   0.0973
     0.5191   0.5209   1.0168   1.0174   1.6039   1.6047

     occupation numbers 
     1.0000   1.0000   1.0000   1.0000   1.0000   1.0000   1.0000   1.0000
     1.0000   1.0000   1.0000   1.0000   1.0000   1.0000   1.0000   1.0000
     1.0000   1.0000   1.0000   1.0000   1.0000   1.0000   1.0000   1.0000
     1.0000   1.0000   1.0000   1.0000   1.0000   1.0000   1.0000   1.0000
     1.0000   1.0000   1.0000   1.0000   1.0000   1.0000   1.0000   1.0000
     1.0000   1.0000   1.0000   1.0000   1.0000   1.0000   1.0000   1.0000
     1.0000   1.0000   1.0000   1.0000   1.0000   1.0000   1.0000   1.0000
     1.0000   1.0000   1.0000   1.0000   1.0000   1.0000   1.0000   1.0000
     1.0000   1.0000   1.0000   1.0000   1.0000   1.0000   1.0000   1.0000
     1.0000   1.0000   1.0000   1.0000   1.0000   1.0000

          k = 0.0476 0.4162 0.0000 ( 14542 PWs)   bands (ev):

   -35.4325 -35.4325 -35.4322 -35.4322 -35.4067 -35.4067 -35.4065 -35.4064
   -35.3193 -35.3193 -35.2835 -35.2835 -33.9724 -33.9724 -33.9722 -33.9722
   -33.9510 -33.9510 -33.9507 -33.9507 -33.9389 -33.9388 -33.9387 -33.9386
   -33.8566 -33.8566 -33.8415 -33.8415 -33.8101 -33.8101 -28.0564 -28.0563
   -28.0562 -28.0560 -28.0486 -28.0485 -28.0483 -28.0482 -26.8166 -26.8165
   -26.8164 -26.8163 -26.8089 -26.8087 -26.8086 -26.8085 -26.8064 -26.8063
   -26.8061 -26.8060  -9.5306  -9.5306  -9.1484  -9.1484  -8.5701  -8.5701
    -6.7538  -6.7537  -6.2545  -6.2545  -2.6487  -2.6485  -1.6895  -1.6892
    -1.2666  -1.2656  -0.9843  -0.9830  -0.5502  -0.5496  -0.0603  -0.0588
     0.4353   0.4373   0.9925   0.9930   1.4379   1.4385

     occupation numbers 
     1.0000   1.0000   1.0000   1.0000   1.0000   1.0000   1.0000   1.0000
     1.0000   1.0000   1.0000   1.0000   1.0000   1.0000   1.0000   1.0000
     1.0000   1.0000   1.0000   1.0000   1.0000   1.0000   1.0000   1.0000
     1.0000   1.0000   1.0000   1.0000   1.0000   1.0000   1.0000   1.0000
     1.0000   1.0000   1.0000   1.0000   1.0000   1.0000   1.0000   1.0000
[...]
   -26.8162 -26.8161 -26.8091 -26.8090 -26.8088 -26.8087 -26.8062 -26.8062
   -26.8059 -26.8058  -8.8356  -8.8355  -8.8167  -8.8167  -8.7971  -8.7970
    -7.1937  -7.1937  -6.6509  -6.6509  -2.9841  -2.9841  -1.6947  -1.6920
    -1.6076  -1.6046  -1.1741  -1.1738  -0.6956  -0.6944  -0.2057  -0.2043
     0.3639   0.3651   0.9800   0.9803   1.2461   1.2464

     occupation numbers 
     1.0000   1.0000   1.0000   1.0000   1.0000   1.0000   1.0000   1.0000
     1.0000   1.0000   1.0000   1.0000   1.0000   1.0000   1.0000   1.0000
     1.0000   1.0000   1.0000   1.0000   1.0000   1.0000   1.0000   1.0000
     1.0000   1.0000   1.0000   1.0000   1.0000   1.0000   1.0000   1.0000
     1.0000   1.0000   1.0000   1.0000   1.0000   1.0000   1.0000   1.0000
     1.0000   1.0000   1.0000   1.0000   1.0000   1.0000   1.0000   1.0000
     1.0000   1.0000   1.0000   1.0000   1.0000   1.0000   1.0000   1.0000
     1.0000   1.0000   1.0000   1.0000   1.0000   1.0000   1.0000   1.0000
     1.0000   1.0000   1.0000   1.0000   1.0000   1.0000   1.0000   1.0000
     1.0000   1.0000   1.0000   1.0000   1.0000   1.0000

          k = 0.4762-0.2804 0.0000 ( 14532 PWs)   bands (ev):

   -35.4324 -35.4324 -35.4322 -35.4322 -35.4067 -35.4067 -35.4064 -35.4064
   -35.3193 -35.3193 -35.2835 -35.2835 -33.9723 -33.9723 -33.9721 -33.9721
   -33.9510 -33.9510 -33.9507 -33.9507 -33.9388 -33.9388 -33.9386 -33.9386
   -33.8565 -33.8565 -33.8415 -33.8415 -33.8100 -33.8100 -28.0562 -28.0562
   -28.0560 -28.0560 -28.0486 -28.0485 -28.0483 -28.0483 -26.8164 -26.8164
   -26.8162 -26.8162 -26.8090 -26.8090 -26.8087 -26.8087 -26.8062 -26.8062
   -26.8058 -26.8058  -8.9392  -8.9391  -8.8219  -8.8218  -8.7459  -8.7458
    -7.1759  -7.1759  -6.6168  -6.6168  -2.9880  -2.9879  -1.6971  -1.6965
    -1.5626  -1.5619  -1.0737  -1.0735  -0.7118  -0.7117  -0.1306  -0.1304
     0.3082   0.3085   0.9963   0.9965   1.2245   1.2245

     occupation numbers 
     1.0000   1.0000   1.0000   1.0000   1.0000   1.0000   1.0000   1.0000
     1.0000   1.0000   1.0000   1.0000   1.0000   1.0000   1.0000   1.0000
     1.0000   1.0000   1.0000   1.0000   1.0000   1.0000   1.0000   1.0000
     1.0000   1.0000   1.0000   1.0000   1.0000   1.0000   1.0000   1.0000
     1.0000   1.0000   1.0000   1.0000   1.0000   1.0000   1.0000   1.0000
     1.0000   1.0000   1.0000   1.0000   1.0000   1.0000   1.0000   1.0000
     1.0000   1.0000   1.0000   1.0000   1.0000   1.0000   1.0000   1.0000
     1.0000   1.0000   1.0000   1.0000   1.0000   1.0000   1.0000   1.0000
     1.0000   1.0000   1.0000   1.0000   1.0000   1.0000   1.0000   1.0000
     1.0000   1.0000   1.0000   1.0000   1.0000   1.0000

          k = 0.4762-0.2249 0.0000 ( 14518 PWs)   bands (ev):

   -35.4324 -35.4324 -35.4322 -35.4322 -35.4067 -35.4067 -35.4064 -35.4064
   -35.3193 -35.3193 -35.2835 -35.2835 -33.9723 -33.9723 -33.9721 -33.9721
   -33.9510 -33.9510 -33.9507 -33.9507 -33.9388 -33.9388 -33.9386 -33.9386
   -33.8565 -33.8565 -33.8415 -33.8415 -33.8100 -33.8100 -28.0563 -28.0562
   -28.0561 -28.0559 -28.0486 -28.0485 -28.0483 -28.0482 -26.8165 -26.8163
   -26.8163 -26.8161 -26.8091 -26.8089 -26.8088 -26.8087 -26.8062 -26.8062
   -26.8059 -26.8058  -9.0442  -9.0442  -8.8507  -8.8506  -8.6668  -8.6667
    -7.1319  -7.1319  -6.6019  -6.6018  -2.9452  -2.9451  -1.7435  -1.7429
    -1.5172  -1.5167  -1.1516  -1.1509  -0.6694  -0.6683  -0.1997  -0.1982
     0.3765   0.3782   0.9902   0.9905   1.2670   1.2674

     occupation numbers 
     1.0000   1.0000   1.0000   1.0000   1.0000   1.0000   1.0000   1.0000
     1.0000   1.0000   1.0000   1.0000   1.0000   1.0000   1.0000   1.0000
     1.0000   1.0000   1.0000   1.0000   1.0000   1.0000   1.0000   1.0000
     1.0000   1.0000   1.0000   1.0000   1.0000   1.0000   1.0000   1.0000
     1.0000   1.0000   1.0000   1.0000   1.0000   1.0000   1.0000   1.0000
     1.0000   1.0000   1.0000   1.0000   1.0000   1.0000   1.0000   1.0000
     1.0000   1.0000   1.0000   1.0000   1.0000   1.0000   1.0000   1.0000
     1.0000   1.0000   1.0000   1.0000   1.0000   1.0000   1.0000   1.0000
     1.0000   1.0000   1.0000   1.0000   1.0000   1.0000   1.0000   1.0000
     1.0000   1.0000   1.0000   1.0000   1.0000   1.0000

          k = 0.4762-0.1694 0.0000 ( 14535 PWs)   bands (ev):

   -35.4324 -35.4324 -35.4322 -35.4321 -35.4067 -35.4067 -35.4064 -35.4064
   -35.3193 -35.3193 -35.2835 -35.2835 -33.9723 -33.9723 -33.9721 -33.9721
   -33.9510 -33.9510 -33.9507 -33.9507 -33.9388 -33.9388 -33.9386 -33.9386
   -33.8565 -33.8565 -33.8415 -33.8415 -33.8100 -33.8100 -28.0564 -28.0562
   -28.0561 -28.0559 -28.0486 -28.0485 -28.0483 -28.0482 -26.8165 -26.8163
   -26.8162 -26.8160 -26.8091 -26.8090 -26.8088 -26.8086 -26.8063 -26.8062
   -26.8059 -26.8059  -9.1330  -9.1330  -8.8811  -8.8811  -8.5960  -8.5959
    -7.0666  -7.0666  -6.6077  -6.6077  -2.8598  -2.8597  -1.7706  -1.7694
    -1.5778  -1.5764  -1.2783  -1.2776  -0.6411  -0.6410  -0.3007  -0.2995
     0.4566   0.4587   0.9612   0.9618   1.4255   1.4261

     occupation numbers 
     1.0000   1.0000   1.0000   1.0000   1.0000   1.0000   1.0000   1.0000
     1.0000   1.0000   1.0000   1.0000   1.0000   1.0000   1.0000   1.0000
     1.0000   1.0000   1.0000   1.0000   1.0000   1.0000   1.0000   1.0000
     1.0000   1.0000   1.0000   1.0000   1.0000   1.0000   1.0000   1.0000
     1.0000   1.0000   1.0000   1.0000   1.0000   1.0000   1.0000   1.0000
     1.0000   1.0000   1.0000   1.0000   1.0000   1.0000   1.0000   1.0000
     1.0000   1.0000   1.0000   1.0000   1.0000   1.0000   1.0000   1.0000
     1.0000   1.0000   1.0000   1.0000   1.0000   1.0000   1.0000   1.0000
     1.0000   1.0000   1.0000   1.0000   1.0000   1.0000   1.0000   1.0000
     1.0000   1.0000   1.0000   1.0000   1.0000   1.0000

          k = 0.4762-0.1138 0.0000 ( 14530 PWs)   bands (ev):

   -35.4324 -35.4324 -35.4322 -35.4321 -35.4067 -35.4067 -35.4064 -35.4064
   -35.3193 -35.3193 -35.2835 -35.2835 -33.9723 -33.9723 -33.9721 -33.9721
   -33.9510 -33.9510 -33.9507 -33.9507 -33.9389 -33.9388 -33.9386 -33.9386
   -33.8565 -33.8565 -33.8415 -33.8415 -33.8101 -33.8101 -28.0564 -28.0562
   -28.0560 -28.0558 -28.0486 -28.0485 -28.0483 -28.0482 -26.8165 -26.8163
   -26.8161 -26.8159 -26.8092 -26.8090 -26.8088 -26.8086 -26.8063 -26.8062
   -26.8060 -26.8059  -9.2001  -9.2001  -8.9081  -8.9080  -8.5408  -8.5408
    -6.9891  -6.9890  -6.6340  -6.6339  -2.7365  -2.7363  -1.9007  -1.9000
    -1.5924  -1.5910  -1.3642  -1.3633  -0.7269  -0.7255  -0.3589  -0.3576
     0.5306   0.5325   1.0094   1.0101   1.5403   1.5408

     occupation numbers 
     1.0000   1.0000   1.0000   1.0000   1.0000   1.0000   1.0000   1.0000
     1.0000   1.0000   1.0000   1.0000   1.0000   1.0000   1.0000   1.0000
     1.0000   1.0000   1.0000   1.0000   1.0000   1.0000   1.0000   1.0000
     1.0000   1.0000   1.0000   1.0000   1.0000   1.0000   1.0000   1.0000
     1.0000   1.0000   1.0000   1.0000   1.0000   1.0000   1.0000   1.0000
     1.0000   1.0000   1.0000   1.0000   1.0000   1.0000   1.0000   1.0000
     1.0000   1.0000   1.0000   1.0000   1.0000   1.0000   1.0000   1.0000
     1.0000   1.0000   1.0000   1.0000   1.0000   1.0000   1.0000   1.0000
     1.0000   1.0000   1.0000   1.0000   1.0000   1.0000   1.0000   1.0000
     1.0000   1.0000   1.0000   1.0000   1.0000   1.0000

          k = 0.4762-0.0583 0.0000 ( 14518 PWs)   bands (ev):

   -35.4325 -35.4324 -35.4322 -35.4321 -35.4067 -35.4067 -35.4064 -35.4064
   -35.3193 -35.3193 -35.2835 -35.2835 -33.9724 -33.9723 -33.9721 -33.9721
   -33.9510 -33.9509 -33.9508 -33.9507 -33.9389 -33.9388 -33.9386 -33.9386
   -33.8565 -33.8565 -33.8415 -33.8415 -33.8101 -33.8101 -28.0565 -28.0563
   -28.0560 -28.0558 -28.0486 -28.0485 -28.0484 -28.0482 -26.8165 -26.8163
   -26.8161 -26.8159 -26.8092 -26.8091 -26.8088 -26.8086 -26.8064 -26.8062
   -26.8061 -26.8059  -9.2424  -9.2424  -8.9271  -8.9271  -8.5067  -8.5066
    -6.9150  -6.9149  -6.6737  -6.6737  -2.5783  -2.5780  -2.1328  -2.1326
    -1.4948  -1.4938  -1.3869  -1.3858  -0.9339  -0.9327  -0.3598  -0.3592
     0.6242   0.6257   1.1114   1.1124   1.4967   1.4972

     occupation numbers 
     1.0000   1.0000   1.0000   1.0000   1.0000   1.0000   1.0000   1.0000
     1.0000   1.0000   1.0000   1.0000   1.0000   1.0000   1.0000   1.0000
     1.0000   1.0000   1.0000   1.0000   1.0000   1.0000   1.0000   1.0000
     1.0000   1.0000   1.0000   1.0000   1.0000   1.0000   1.0000   1.0000
     1.0000   1.0000   1.0000   1.0000   1.0000   1.0000   1.0000   1.0000
     1.0000   1.0000   1.0000   1.0000   1.0000   1.0000   1.0000   1.0000
     1.0000   1.0000   1.0000   1.0000   1.0000   1.0000   1.0000   1.0000
     1.0000   1.0000   1.0000   1.0000   1.0000   1.0000   1.0000   1.0000
     1.0000   1.0000   1.0000   1.0000   1.0000   1.0000   1.0000   1.0000
     1.0000   1.0000   1.0000   1.0000   1.0000   1.0000

          k = 0.4762-0.0027 0.0000 ( 14507 PWs)   bands (ev):

   -35.4325 -35.4324 -35.4322 -35.4321 -35.4067 -35.4067 -35.4064 -35.4064
   -35.3193 -35.3193 -35.2835 -35.2835 -33.9724 -33.9723 -33.9721 -33.9721
   -33.9510 -33.9509 -33.9507 -33.9507 -33.9389 -33.9388 -33.9386 -33.9386
   -33.8565 -33.8565 -33.8415 -33.8415 -33.8101 -33.8101 -28.0565 -28.0563
   -28.0560 -28.0558 -28.0486 -28.0485 -28.0484 -28.0482 -26.8165 -26.8163
   -26.8161 -26.8159 -26.8093 -26.8091 -26.8088 -26.8085 -26.8064 -26.8062
   -26.8061 -26.8059  -9.2579  -9.2578  -8.9353  -8.9353  -8.4968  -8.4967
    -6.8809  -6.8808  -6.6972  -6.6971  -2.4324  -2.4321  -2.3094  -2.3091
    -1.4767  -1.4761  -1.2850  -1.2838  -1.1023  -1.1011  -0.3537  -0.3534
     0.6754   0.6763   1.1897   1.1907   1.4206   1.4213

     occupation numbers 
     1.0000   1.0000   1.0000   1.0000   1.0000   1.0000   1.0000   1.0000
     1.0000   1.0000   1.0000   1.0000   1.0000   1.0000   1.0000   1.0000
     1.0000   1.0000   1.0000   1.0000   1.0000   1.0000   1.0000   1.0000
     1.0000   1.0000   1.0000   1.0000   1.0000   1.0000   1.0000   1.0000
     1.0000   1.0000   1.0000   1.0000   1.0000   1.0000   1.0000   1.0000
     1.0000   1.0000   1.0000   1.0000   1.0000   1.0000   1.0000   1.0000
     1.0000   1.0000   1.0000   1.0000   1.0000   1.0000   1.0000   1.0000
     1.0000   1.0000   1.0000   1.0000   1.0000   1.0000   1.0000   1.0000
     1.0000   1.0000   1.0000   1.0000   1.0000   1.0000   1.0000   1.0000
     1.0000   1.0000   1.0000   1.0000   1.0000   1.0000

          k = 0.4762 0.0528 0.0000 ( 14509 PWs)   bands (ev):

   -35.4325 -35.4324 -35.4322 -35.4321 -35.4067 -35.4067 -35.4064 -35.4064
   -35.3193 -35.3193 -35.2835 -35.2835 -33.9724 -33.9723 -33.9721 -33.9721
   -33.9510 -33.9509 -33.9507 -33.9507 -33.9389 -33.9388 -33.9386 -33.9386
   -33.8565 -33.8565 -33.8415 -33.8415 -33.8101 -33.8101 -28.0565 -28.0563
   -28.0560 -28.0558 -28.0486 -28.0485 -28.0483 -28.0482 -26.8165 -26.8163
   -26.8161 -26.8159 -26.8092 -26.8091 -26.8088 -26.8086 -26.8064 -26.8062
   -26.8061 -26.8059  -9.2460  -9.2459  -8.9317  -8.9317  -8.5118  -8.5118
    -6.9220  -6.9219  -6.6713  -6.6713  -2.5802  -2.5800  -2.1274  -2.1272
    -1.4920  -1.4899  -1.3818  -1.3793  -0.9289  -0.9281  -0.3545  -0.3541
     0.6310   0.6318   1.1194   1.1198   1.5106   1.5110

     occupation numbers 
     1.0000   1.0000   1.0000   1.0000   1.0000   1.0000   1.0000   1.0000
     1.0000   1.0000   1.0000   1.0000   1.0000   1.0000   1.0000   1.0000
     1.0000   1.0000   1.0000   1.0000   1.0000   1.0000   1.0000   1.0000
     1.0000   1.0000   1.0000   1.0000   1.0000   1.0000   1.0000   1.0000
     1.0000   1.0000   1.0000   1.0000   1.0000   1.0000   1.0000   1.0000
     1.0000   1.0000   1.0000   1.0000   1.0000   1.0000   1.0000   1.0000
     1.0000   1.0000   1.0000   1.0000   1.0000   1.0000   1.0000   1.0000
     1.0000   1.0000   1.0000   1.0000   1.0000   1.0000   1.0000   1.0000
     1.0000   1.0000   1.0000   1.0000   1.0000   1.0000   1.0000   1.0000
     1.0000   1.0000   1.0000   1.0000   1.0000   1.0000

          k = 0.4762 0.1083 0.0000 ( 14527 PWs)   bands (ev):

   -35.4325 -35.4324 -35.4322 -35.4321 -35.4067 -35.4067 -35.4064 -35.4064
   -35.3193 -35.3193 -35.2835 -35.2835 -33.9724 -33.9723 -33.9721 -33.9721
   -33.9510 -33.9509 -33.9507 -33.9507 -33.9389 -33.9388 -33.9386 -33.9386
   -33.8565 -33.8565 -33.8415 -33.8415 -33.8101 -33.8101 -28.0565 -28.0563
   -28.0561 -28.0559 -28.0486 -28.0485 -28.0483 -28.0482 -26.8166 -26.8164
   -26.8162 -26.8160 -26.8092 -26.8090 -26.8088 -26.8086 -26.8063 -26.8062
   -26.8060 -26.8059  -9.2072  -9.2071  -8.9171  -8.9171  -8.5504  -8.5503
    -6.9987  -6.9987  -6.6328  -6.6328  -2.7370  -2.7369  -1.8981  -1.8979
    -1.5848  -1.5838  -1.3468  -1.3455  -0.7265  -0.7258  -0.3397  -0.3392
     0.5432   0.5443   1.0227   1.0233   1.5690   1.5694

     occupation numbers 
     1.0000   1.0000   1.0000   1.0000   1.0000   1.0000   1.0000   1.0000
     1.0000   1.0000   1.0000   1.0000   1.0000   1.0000   1.0000   1.0000
     1.0000   1.0000   1.0000   1.0000   1.0000   1.0000   1.0000   1.0000
     1.0000   1.0000   1.0000   1.0000   1.0000   1.0000   1.0000   1.0000
     1.0000   1.0000   1.0000   1.0000   1.0000   1.0000   1.0000   1.0000
     1.0000   1.0000   1.0000   1.0000   1.0000   1.0000   1.0000   1.0000
     1.0000   1.0000   1.0000   1.0000   1.0000   1.0000   1.0000   1.0000
     1.0000   1.0000   1.0000   1.0000   1.0000   1.0000   1.0000   1.0000
     1.0000   1.0000   1.0000   1.0000   1.0000   1.0000   1.0000   1.0000
     1.0000   1.0000   1.0000   1.0000   1.0000   1.0000

          k = 0.4762 0.1639 0.0000 ( 14514 PWs)   bands (ev):

   -35.4324 -35.4324 -35.4322 -35.4322 -35.4067 -35.4067 -35.4064 -35.4064
   -35.3193 -35.3193 -35.2835 -35.2835 -33.9723 -33.9723 -33.9721 -33.9721
   -33.9510 -33.9510 -33.9507 -33.9507 -33.9389 -33.9388 -33.9386 -33.9386
   -33.8565 -33.8565 -33.8415 -33.8415 -33.8101 -33.8101 -28.0564 -28.0562
   -28.0561 -28.0559 -28.0486 -28.0485 -28.0483 -28.0482 -26.8166 -26.8164
   -26.8163 -26.8161 -26.8091 -26.8090 -26.8088 -26.8086 -26.8063 -26.8062
   -26.8059 -26.8058  -9.1432  -9.1431  -8.8938  -8.8938  -8.6088  -8.6087
    -7.0772  -7.0771  -6.6083  -6.6083  -2.8594  -2.8593  -1.7744  -1.7739
    -1.5661  -1.5653  -1.2527  -1.2520  -0.6318  -0.6314  -0.2769  -0.2763
     0.4714   0.4729   0.9827   0.9833   1.4630   1.4634

     occupation numbers 
     1.0000   1.0000   1.0000   1.0000   1.0000   1.0000   1.0000   1.0000
     1.0000   1.0000   1.0000   1.0000   1.0000   1.0000   1.0000   1.0000
     1.0000   1.0000   1.0000   1.0000   1.0000   1.0000   1.0000   1.0000
     1.0000   1.0000   1.0000   1.0000   1.0000   1.0000   1.0000   1.0000
     1.0000   1.0000   1.0000   1.0000   1.0000   1.0000   1.0000   1.0000
     1.0000   1.0000   1.0000   1.0000   1.0000   1.0000   1.0000   1.0000
     1.0000   1.0000   1.0000   1.0000   1.0000   1.0000   1.0000   1.0000
     1.0000   1.0000   1.0000   1.0000   1.0000   1.0000   1.0000   1.0000
     1.0000   1.0000   1.0000   1.0000   1.0000   1.0000   1.0000   1.0000
     1.0000   1.0000   1.0000   1.0000   1.0000   1.0000

          k = 0.4762 0.2194 0.0000 ( 14534 PWs)   bands (ev):

   -35.4324 -35.4324 -35.4322 -35.4322 -35.4067 -35.4067 -35.4064 -35.4064
   -35.3193 -35.3193 -35.2835 -35.2835 -33.9723 -33.9723 -33.9721 -33.9721
   -33.9510 -33.9510 -33.9507 -33.9507 -33.9389 -33.9388 -33.9386 -33.9386
   -33.8565 -33.8565 -33.8415 -33.8415 -33.8101 -33.8101 -28.0564 -28.0562
   -28.0561 -28.0560 -28.0486 -28.0485 -28.0483 -28.0482 -26.8165 -26.8164
   -26.8163 -26.8162 -26.8091 -26.8090 -26.8088 -26.8087 -26.8062 -26.8062
   -26.8059 -26.8058  -9.0572  -9.0572  -8.8663  -8.8663  -8.6813  -8.6812
    -7.1424  -7.1424  -6.6038  -6.6038  -2.9442  -2.9441  -1.7452  -1.7445
    -1.5155  -1.5144  -1.1197  -1.1191  -0.6375  -0.6372  -0.1842  -0.1834
     0.3931   0.3946   1.0198   1.0203   1.3054   1.3056

     occupation numbers 
     1.0000   1.0000   1.0000   1.0000   1.0000   1.0000   1.0000   1.0000
     1.0000   1.0000   1.0000   1.0000   1.0000   1.0000   1.0000   1.0000
     1.0000   1.0000   1.0000   1.0000   1.0000   1.0000   1.0000   1.0000
     1.0000   1.0000   1.0000   1.0000   1.0000   1.0000   1.0000   1.0000
     1.0000   1.0000   1.0000   1.0000   1.0000   1.0000   1.0000   1.0000
     1.0000   1.0000   1.0000   1.0000   1.0000   1.0000   1.0000   1.0000
     1.0000   1.0000   1.0000   1.0000   1.0000   1.0000   1.0000   1.0000
     1.0000   1.0000   1.0000   1.0000   1.0000   1.0000   1.0000   1.0000
     1.0000   1.0000   1.0000   1.0000   1.0000   1.0000   1.0000   1.0000
     1.0000   1.0000   1.0000   1.0000   1.0000   1.0000

     highest occupied level (ev):     1.8773

!    total energy              =    -806.57356750 Ry
     estimated scf accuracy    <       0.00000004 Ry

     The total energy is the sum of the following terms:
     one-electron contribution =   -3396.46450314 Ry
     hartree contribution      =    1693.59367910 Ry
     xc contribution           =     -87.18367613 Ry
     ewald contribution        =     983.48093266 Ry

     convergence has been achieved in  14 iterations

     Writing all to output data dir tmp/Sb2Te3-uatsx-c2-soc-1.0.save/ :
     XML data file, charge density, pseudopotentials, collected wavefunctions

     init_run     :     35.93s CPU     19.57s WALL (       1 calls)
     electrons    :   2191.70s CPU   1181.19s WALL (       1 calls)

     Called by init_run:
     wfcinit      :     34.77s CPU     18.42s WALL (       1 calls)
     wfcinit:wfcr :     32.86s CPU     17.10s WALL (     221 calls)
     potinit      :      0.50s CPU      0.48s WALL (       1 calls)
     hinit0       :      0.55s CPU      0.56s WALL (       1 calls)

     Called by electrons:
     c_bands      :   1982.24s CPU   1074.23s WALL (      15 calls)
     sum_band     :    208.29s CPU    106.13s WALL (      15 calls)
     v_of_rho     :      0.62s CPU      0.42s WALL (      15 calls)
     v_h          :      0.05s CPU      0.03s WALL (      15 calls)
     v_xc         :      0.57s CPU      0.39s WALL (      15 calls)
     mix_rho      :      0.31s CPU      0.20s WALL (      15 calls)

     Called by c_bands:
     init_us_2    :     11.41s CPU      5.80s WALL (    6851 calls)
     cegterg      :   1914.03s CPU   1026.23s WALL (    3315 calls)

     Called by sum_band:
     sum_band:wei :      0.00s CPU      0.00s WALL (      15 calls)
     sum_band:loo :    208.09s CPU    106.02s WALL (      15 calls)
     sum_band:buf :      3.69s CPU      2.15s WALL (    3315 calls)
     sum_band:ini :      5.51s CPU      2.76s WALL (    3315 calls)

     Called by *egterg:
     cdiaghg      :    246.54s CPU    159.12s WALL (   19788 calls)
     cegterg:over :     80.41s CPU     42.45s WALL (   16694 calls)
     cegterg:upda :     48.51s CPU     22.80s WALL (   16694 calls)
     cegterg:last :     68.58s CPU     34.21s WALL (    8667 calls)
     h_psi        :   1449.16s CPU    754.58s WALL (   20230 calls)
     g_psi        :      6.30s CPU      3.79s WALL (   16694 calls)

     Called by h_psi:
     h_psi:calbec :     78.76s CPU     38.70s WALL (   20230 calls)
     vloc_psi     :   1283.09s CPU    665.64s WALL (   20230 calls)
     add_vuspsi   :     83.28s CPU     47.85s WALL (   20230 calls)

     General routines
     calbec       :     78.65s CPU     38.65s WALL (   20230 calls)
     fft          :      1.31s CPU      1.06s WALL (     349 calls)
     ffts         :      0.48s CPU      0.45s WALL (     120 calls)
     fftw         :   1082.12s CPU    564.13s WALL ( 3727404 calls)
     interpolate  :      0.58s CPU      0.51s WALL (      60 calls)

     Parallel routines

     PWSCF        :  37m21.25s CPU  21m22.77s WALL


   This run was terminated on:  14:52:24  14Aug2025            

=------------------------------------------------------------------------------=
   JOB DONE.
=------------------------------------------------------------------------------=
