
     Program PWSCF v.7.4.1 starts on 14Aug2025 at 16:23: 1 

     This program is part of the open-source Quantum ESPRESSO suite
     for quantum simulation of materials; please cite
         "P. Giannozzi et al., J. Phys.:Condens. Matter 21 395502 (2009);
         "P. Giannozzi et al., J. Phys.:Condens. Matter 29 465901 (2017);
         "P. Giannozzi et al., J. Chem. Phys. 152 154105 (2020);
          URL http://www.quantum-espresso.org", 
     in publications or presentations arising from this work. More details at
     http://www.quantum-espresso.org/quote

     Parallel version (MPI & OpenMP), running on      48 processor cores
     Number of MPI processes:                24
     Threads/MPI process:                     2

     MPI processes distributed on     2 nodes
     94433 MiB available memory on the printing compute node when the environment starts

     Waiting for input...
     Reading input from standard input

     Current dimensions of program PWSCF are:
     Max number of different atomic species (ntypx) = 10
     Max number of k-points (npk) =  40000
     Max angular momentum in pseudopotentials (lmaxx) =  4
Error reading attribute index: expected integer, found *
Error reading attribute index: expected integer, found *

     IMPORTANT: XC functional enforced from input :
     Exchange-correlation= PBE
                           (   1   4   3   4   0   0   0)
     Any further DFT definition will be discarded
     Please, verify this is what you really want

     Message from routine setup:
     no reason to have ecutrho>4*ecutwfc

     R & G space division:  proc/nbgrp/npool/nimage =      24
     Subspace diagonalization in iterative solution of the eigenvalue problem:
     a serial algorithm will be used


     Parallelization info
     --------------------
     sticks:   dense  smooth     PW     G-vecs:    dense   smooth      PW
     Min          97      39     12                19481     4929     824
     Max          98      40     13                19500     4946     829
     Sum        2349     941    291               467835   118417   19817

     Using Slab Decomposition



     bravais-lattice index     =            0
     lattice parameter (alat)  =       8.3900  a.u.
     unit-cell volume          =    2478.7943 (a.u.)^3
     number of atoms/cell      =            5
     number of atomic types    =            2
     number of electrons       =        78.00
     number of Kohn-Sham states=           78
     kinetic-energy cutoff     =      50.0000  Ry
     charge density cutoff     =     500.0000  Ry
     scf convergence threshold =      1.0E-07
     mixing beta               =       0.7000
     number of iterations used =            8  plain     mixing
     Exchange-correlation= PBE
                           (   1   4   3   4   0   0   0)
     Non magnetic calculation with spin-orbit


     celldm(1)=   8.390002  celldm(2)=   0.000000  celldm(3)=   0.000000
     celldm(4)=   0.000000  celldm(5)=   0.000000  celldm(6)=   0.000000

     crystal axes: (cart. coord. in units of alat)
               a(1) = (   1.000000   0.000000   0.000000 )  
               a(2) = (  -0.485437   0.840793   0.000000 )  
               a(3) = (   0.000000   0.000000   4.991890 )  

     reciprocal axes: (cart. coord. in units 2 pi/alat)
               b(1) = (  1.000000  0.577356 -0.000000 )  
               b(2) = (  0.000000  1.189353  0.000000 )  
               b(3) = (  0.000000 -0.000000  0.200325 )  


     PseudoPot. # 1 for Sb read from file:
     /zfs-home/202401017n1/pseudos/Sb_ONCV_PBE_FR-1.1.upf
     MD5 check sum: 7dc1726f2158e3c51e4807d42b9c5c65
     Pseudo is Norm-conserving, Zval = 15.0
     Generated using ONCVPSP code by D. R. Hamann
     Using radial grid of  602 points, 10 beta functions with: 
                l(1) =   0
                l(2) =   0
                l(3) =   1
                l(4) =   1
                l(5) =   1
                l(6) =   1
                l(7) =   2
                l(8) =   2
                l(9) =   2
               l(10) =   2

     PseudoPot. # 2 for Te read from file:
     /zfs-home/202401017n1/pseudos/Te_ONCV_PBE_FR-1.1.upf
     MD5 check sum: c6e17480449037a9a9d16e6377b5c7c4
     Pseudo is Norm-conserving, Zval = 16.0
     Generated using ONCVPSP code by D. R. Hamann
     Using radial grid of  602 points, 10 beta functions with: 
                l(1) =   0
                l(2) =   0
                l(3) =   1
                l(4) =   1
                l(5) =   1
                l(6) =   1
                l(7) =   2
                l(8) =   2
                l(9) =   2
               l(10) =   2

     atomic species   valence    mass     pseudopotential
     Sb               15.00   121.76000     Sb( 1.00)
     Te               16.00   127.60000     Te( 1.00)

     No symmetry found


                                    s                        frac. trans.

      isym =  1     identity                                     

 cryst.   s( 1) = (     1          0          0      )
                  (     0          1          0      )
                  (     0          0          1      )

 cart.    s( 1) = (  1.0000000  0.0000000  0.0000000 )
                  (  0.0000000  1.0000000  0.0000000 )
                  (  0.0000000  0.0000000  1.0000000 )


   Cartesian axes

     site n.     atom                  positions (alat units)
         1        Sb     tau(   1) = (   0.5867812   0.4172984   2.9417443  )
         2        Te     tau(   2) = (   0.5754457   0.3979752   1.6726131  )
         3        Sb     tau(   3) = (   0.0727921   0.1220272   2.0501240  )
         4        Te     tau(   4) = (   0.0840698   0.1416820   3.3192296  )
         5        Te     tau(   5) = (   0.0870265   0.6902229   2.4959189  )

   Crystallographic axes

     site n.     atom                  positions (cryst. coord.)
         1        Sb     tau(   1) = (  0.8277109  0.4963151  0.5893047  )
         2        Te     tau(   2) = (  0.8052190  0.4733330  0.3350661  )
         3        Sb     tau(   3) = (  0.1432452  0.1451335  0.4106909  )
         4        Te     tau(   4) = (  0.1658708  0.1685099  0.6649244  )
         5        Te     tau(   5) = (  0.4855307  0.8209187  0.4999948  )

     number of k points=   221
                       cart. coord. in units 2pi/alat
        k(    1) = (   0.0000000   0.0000000   0.0000000), wk =   0.0022676
        k(    2) = (   0.0000000   0.0566359   0.0000000), wk =   0.0045351
        k(    3) = (   0.0000000   0.1132717   0.0000000), wk =   0.0045351
        k(    4) = (   0.0000000   0.1699076   0.0000000), wk =   0.0045351
        k(    5) = (   0.0000000   0.2265434   0.0000000), wk =   0.0045351
        k(    6) = (   0.0000000   0.2831793   0.0000000), wk =   0.0045351
        k(    7) = (   0.0000000   0.3398152   0.0000000), wk =   0.0045351
        k(    8) = (   0.0000000   0.3964510   0.0000000), wk =   0.0045351
        k(    9) = (   0.0000000   0.4530869   0.0000000), wk =   0.0045351
        k(   10) = (   0.0000000   0.5097227   0.0000000), wk =   0.0045351
        k(   11) = (   0.0000000   0.5663586   0.0000000), wk =   0.0045351
        k(   12) = (   0.0476190   0.0274931   0.0000000), wk =   0.0045351
        k(   13) = (   0.0476190   0.0841290   0.0000000), wk =   0.0045351
        k(   14) = (   0.0476190   0.1407649   0.0000000), wk =   0.0045351
        k(   15) = (   0.0476190   0.1974007   0.0000000), wk =   0.0045351
        k(   16) = (   0.0476190   0.2540366   0.0000000), wk =   0.0045351
        k(   17) = (   0.0476190   0.3106724   0.0000000), wk =   0.0045351
        k(   18) = (   0.0476190   0.3673083   0.0000000), wk =   0.0045351
        k(   19) = (   0.0476190   0.4239442   0.0000000), wk =   0.0045351
        k(   20) = (   0.0476190   0.4805800   0.0000000), wk =   0.0045351
        k(   21) = (   0.0476190   0.5372159   0.0000000), wk =   0.0045351
        k(   22) = (   0.0476190   0.5938517   0.0000000), wk =   0.0045351
        k(   23) = (   0.0476190  -0.5388655   0.0000000), wk =   0.0045351
        k(   24) = (   0.0476190  -0.4822296   0.0000000), wk =   0.0045351
        k(   25) = (   0.0476190  -0.4255937   0.0000000), wk =   0.0045351
        k(   26) = (   0.0476190  -0.3689579   0.0000000), wk =   0.0045351
        k(   27) = (   0.0476190  -0.3123220   0.0000000), wk =   0.0045351
        k(   28) = (   0.0476190  -0.2556862   0.0000000), wk =   0.0045351
        k(   29) = (   0.0476190  -0.1990503   0.0000000), wk =   0.0045351
        k(   30) = (   0.0476190  -0.1424144   0.0000000), wk =   0.0045351
        k(   31) = (   0.0476190  -0.0857786   0.0000000), wk =   0.0045351
        k(   32) = (   0.0476190  -0.0291427   0.0000000), wk =   0.0045351
        k(   33) = (   0.0952381   0.0549863   0.0000000), wk =   0.0045351
        k(   34) = (   0.0952381   0.1116221   0.0000000), wk =   0.0045351
        k(   35) = (   0.0952381   0.1682580   0.0000000), wk =   0.0045351
        k(   36) = (   0.0952381   0.2248939   0.0000000), wk =   0.0045351
        k(   37) = (   0.0952381   0.2815297   0.0000000), wk =   0.0045351
        k(   38) = (   0.0952381   0.3381656   0.0000000), wk =   0.0045351
        k(   39) = (   0.0952381   0.3948014   0.0000000), wk =   0.0045351
        k(   40) = (   0.0952381   0.4514373   0.0000000), wk =   0.0045351
        k(   41) = (   0.0952381   0.5080732   0.0000000), wk =   0.0045351
        k(   42) = (   0.0952381   0.5647090   0.0000000), wk =   0.0045351
        k(   43) = (   0.0952381   0.6213449   0.0000000), wk =   0.0045351
        k(   44) = (   0.0952381  -0.5113723   0.0000000), wk =   0.0045351
        k(   45) = (   0.0952381  -0.4547365   0.0000000), wk =   0.0045351
        k(   46) = (   0.0952381  -0.3981006   0.0000000), wk =   0.0045351
        k(   47) = (   0.0952381  -0.3414647   0.0000000), wk =   0.0045351
        k(   48) = (   0.0952381  -0.2848289   0.0000000), wk =   0.0045351
        k(   49) = (   0.0952381  -0.2281930   0.0000000), wk =   0.0045351
        k(   50) = (   0.0952381  -0.1715572   0.0000000), wk =   0.0045351
        k(   51) = (   0.0952381  -0.1149213   0.0000000), wk =   0.0045351
        k(   52) = (   0.0952381  -0.0582854   0.0000000), wk =   0.0045351
        k(   53) = (   0.0952381  -0.0016496   0.0000000), wk =   0.0045351
        k(   54) = (   0.1428571   0.0824794   0.0000000), wk =   0.0045351
        k(   55) = (   0.1428571   0.1391153   0.0000000), wk =   0.0045351
        k(   56) = (   0.1428571   0.1957511   0.0000000), wk =   0.0045351
        k(   57) = (   0.1428571   0.2523870   0.0000000), wk =   0.0045351
        k(   58) = (   0.1428571   0.3090228   0.0000000), wk =   0.0045351
        k(   59) = (   0.1428571   0.3656587   0.0000000), wk =   0.0045351
        k(   60) = (   0.1428571   0.4222946   0.0000000), wk =   0.0045351
        k(   61) = (   0.1428571   0.4789304   0.0000000), wk =   0.0045351
        k(   62) = (   0.1428571   0.5355663   0.0000000), wk =   0.0045351
        k(   63) = (   0.1428571   0.5922021   0.0000000), wk =   0.0045351
        k(   64) = (   0.1428571   0.6488380   0.0000000), wk =   0.0045351
        k(   65) = (   0.1428571  -0.4838792   0.0000000), wk =   0.0045351
        k(   66) = (   0.1428571  -0.4272433   0.0000000), wk =   0.0045351
        k(   67) = (   0.1428571  -0.3706075   0.0000000), wk =   0.0045351
        k(   68) = (   0.1428571  -0.3139716   0.0000000), wk =   0.0045351
        k(   69) = (   0.1428571  -0.2573358   0.0000000), wk =   0.0045351
        k(   70) = (   0.1428571  -0.2006999   0.0000000), wk =   0.0045351
        k(   71) = (   0.1428571  -0.1440640   0.0000000), wk =   0.0045351
        k(   72) = (   0.1428571  -0.0874282   0.0000000), wk =   0.0045351
        k(   73) = (   0.1428571  -0.0307923   0.0000000), wk =   0.0045351
        k(   74) = (   0.1428571   0.0258435   0.0000000), wk =   0.0045351
        k(   75) = (   0.1904762   0.1099725   0.0000000), wk =   0.0045351
        k(   76) = (   0.1904762   0.1666084   0.0000000), wk =   0.0045351
        k(   77) = (   0.1904762   0.2232443   0.0000000), wk =   0.0045351
        k(   78) = (   0.1904762   0.2798801   0.0000000), wk =   0.0045351
        k(   79) = (   0.1904762   0.3365160   0.0000000), wk =   0.0045351
        k(   80) = (   0.1904762   0.3931518   0.0000000), wk =   0.0045351
        k(   81) = (   0.1904762   0.4497877   0.0000000), wk =   0.0045351
        k(   82) = (   0.1904762   0.5064236   0.0000000), wk =   0.0045351
        k(   83) = (   0.1904762   0.5630594   0.0000000), wk =   0.0045351
        k(   84) = (   0.1904762   0.6196953   0.0000000), wk =   0.0045351
        k(   85) = (   0.1904762   0.6763311   0.0000000), wk =   0.0045351
        k(   86) = (   0.1904762  -0.4563861   0.0000000), wk =   0.0045351
        k(   87) = (   0.1904762  -0.3997502   0.0000000), wk =   0.0045351
        k(   88) = (   0.1904762  -0.3431143   0.0000000), wk =   0.0045351
        k(   89) = (   0.1904762  -0.2864785   0.0000000), wk =   0.0045351
        k(   90) = (   0.1904762  -0.2298426   0.0000000), wk =   0.0045351
        k(   91) = (   0.1904762  -0.1732068   0.0000000), wk =   0.0045351
        k(   92) = (   0.1904762  -0.1165709   0.0000000), wk =   0.0045351
        k(   93) = (   0.1904762  -0.0599350   0.0000000), wk =   0.0045351
        k(   94) = (   0.1904762  -0.0032992   0.0000000), wk =   0.0045351
        k(   95) = (   0.1904762   0.0533367   0.0000000), wk =   0.0045351
        k(   96) = (   0.2380952   0.1374657   0.0000000), wk =   0.0045351
        k(   97) = (   0.2380952   0.1941015   0.0000000), wk =   0.0045351
        k(   98) = (   0.2380952   0.2507374   0.0000000), wk =   0.0045351
        k(   99) = (   0.2380952   0.3073733   0.0000000), wk =   0.0045351
        k(  100) = (   0.2380952   0.3640091   0.0000000), wk =   0.0045351
        k(  101) = (   0.2380952   0.4206450   0.0000000), wk =   0.0045351
        k(  102) = (   0.2380952   0.4772808   0.0000000), wk =   0.0045351
        k(  103) = (   0.2380952   0.5339167   0.0000000), wk =   0.0045351
        k(  104) = (   0.2380952   0.5905526   0.0000000), wk =   0.0045351
        k(  105) = (   0.2380952   0.6471884   0.0000000), wk =   0.0045351
        k(  106) = (   0.2380952   0.7038243   0.0000000), wk =   0.0045351
        k(  107) = (   0.2380952  -0.4288929   0.0000000), wk =   0.0045351
        k(  108) = (   0.2380952  -0.3722571   0.0000000), wk =   0.0045351
        k(  109) = (   0.2380952  -0.3156212   0.0000000), wk =   0.0045351
        k(  110) = (   0.2380952  -0.2589853   0.0000000), wk =   0.0045351
        k(  111) = (   0.2380952  -0.2023495   0.0000000), wk =   0.0045351
        k(  112) = (   0.2380952  -0.1457136   0.0000000), wk =   0.0045351
        k(  113) = (   0.2380952  -0.0890778   0.0000000), wk =   0.0045351
        k(  114) = (   0.2380952  -0.0324419   0.0000000), wk =   0.0045351
        k(  115) = (   0.2380952   0.0241940   0.0000000), wk =   0.0045351
        k(  116) = (   0.2380952   0.0808298   0.0000000), wk =   0.0045351
        k(  117) = (   0.2857143   0.1649588   0.0000000), wk =   0.0045351
        k(  118) = (   0.2857143   0.2215947   0.0000000), wk =   0.0045351
        k(  119) = (   0.2857143   0.2782305   0.0000000), wk =   0.0045351
        k(  120) = (   0.2857143   0.3348664   0.0000000), wk =   0.0045351
        k(  121) = (   0.2857143   0.3915023   0.0000000), wk =   0.0045351
        k(  122) = (   0.2857143   0.4481381   0.0000000), wk =   0.0045351
        k(  123) = (   0.2857143   0.5047740   0.0000000), wk =   0.0045351
        k(  124) = (   0.2857143   0.5614098   0.0000000), wk =   0.0045351
        k(  125) = (   0.2857143   0.6180457   0.0000000), wk =   0.0045351
        k(  126) = (   0.2857143   0.6746816   0.0000000), wk =   0.0045351
        k(  127) = (   0.2857143   0.7313174   0.0000000), wk =   0.0045351
        k(  128) = (   0.2857143  -0.4013998   0.0000000), wk =   0.0045351
        k(  129) = (   0.2857143  -0.3447639   0.0000000), wk =   0.0045351
        k(  130) = (   0.2857143  -0.2881281   0.0000000), wk =   0.0045351
        k(  131) = (   0.2857143  -0.2314922   0.0000000), wk =   0.0045351
        k(  132) = (   0.2857143  -0.1748563   0.0000000), wk =   0.0045351
        k(  133) = (   0.2857143  -0.1182205   0.0000000), wk =   0.0045351
        k(  134) = (   0.2857143  -0.0615846   0.0000000), wk =   0.0045351
        k(  135) = (   0.2857143  -0.0049488   0.0000000), wk =   0.0045351
        k(  136) = (   0.2857143   0.0516871   0.0000000), wk =   0.0045351
        k(  137) = (   0.2857143   0.1083230   0.0000000), wk =   0.0045351
        k(  138) = (   0.3333333   0.1924520   0.0000000), wk =   0.0045351
        k(  139) = (   0.3333333   0.2490878   0.0000000), wk =   0.0045351
        k(  140) = (   0.3333333   0.3057237   0.0000000), wk =   0.0045351
        k(  141) = (   0.3333333   0.3623595   0.0000000), wk =   0.0045351
        k(  142) = (   0.3333333   0.4189954   0.0000000), wk =   0.0045351
        k(  143) = (   0.3333333   0.4756313   0.0000000), wk =   0.0045351
        k(  144) = (   0.3333333   0.5322671   0.0000000), wk =   0.0045351
        k(  145) = (   0.3333333   0.5889030   0.0000000), wk =   0.0045351
        k(  146) = (   0.3333333   0.6455388   0.0000000), wk =   0.0045351
        k(  147) = (   0.3333333   0.7021747   0.0000000), wk =   0.0045351
        k(  148) = (   0.3333333   0.7588106   0.0000000), wk =   0.0045351
        k(  149) = (   0.3333333  -0.3739066   0.0000000), wk =   0.0045351
        k(  150) = (   0.3333333  -0.3172708   0.0000000), wk =   0.0045351
        k(  151) = (   0.3333333  -0.2606349   0.0000000), wk =   0.0045351
        k(  152) = (   0.3333333  -0.2039991   0.0000000), wk =   0.0045351
        k(  153) = (   0.3333333  -0.1473632   0.0000000), wk =   0.0045351
        k(  154) = (   0.3333333  -0.0907273   0.0000000), wk =   0.0045351
        k(  155) = (   0.3333333  -0.0340915   0.0000000), wk =   0.0045351
        k(  156) = (   0.3333333   0.0225444   0.0000000), wk =   0.0045351
        k(  157) = (   0.3333333   0.0791802   0.0000000), wk =   0.0045351
        k(  158) = (   0.3333333   0.1358161   0.0000000), wk =   0.0045351
        k(  159) = (   0.3809524   0.2199451   0.0000000), wk =   0.0045351
        k(  160) = (   0.3809524   0.2765809   0.0000000), wk =   0.0045351
        k(  161) = (   0.3809524   0.3332168   0.0000000), wk =   0.0045351
        k(  162) = (   0.3809524   0.3898527   0.0000000), wk =   0.0045351
        k(  163) = (   0.3809524   0.4464885   0.0000000), wk =   0.0045351
        k(  164) = (   0.3809524   0.5031244   0.0000000), wk =   0.0045351
        k(  165) = (   0.3809524   0.5597602   0.0000000), wk =   0.0045351
        k(  166) = (   0.3809524   0.6163961   0.0000000), wk =   0.0045351
        k(  167) = (   0.3809524   0.6730320   0.0000000), wk =   0.0045351
        k(  168) = (   0.3809524   0.7296678   0.0000000), wk =   0.0045351
        k(  169) = (   0.3809524   0.7863037   0.0000000), wk =   0.0045351
        k(  170) = (   0.3809524  -0.3464135   0.0000000), wk =   0.0045351
        k(  171) = (   0.3809524  -0.2897777   0.0000000), wk =   0.0045351
        k(  172) = (   0.3809524  -0.2331418   0.0000000), wk =   0.0045351
        k(  173) = (   0.3809524  -0.1765059   0.0000000), wk =   0.0045351
        k(  174) = (   0.3809524  -0.1198701   0.0000000), wk =   0.0045351
        k(  175) = (   0.3809524  -0.0632342   0.0000000), wk =   0.0045351
        k(  176) = (   0.3809524  -0.0065984   0.0000000), wk =   0.0045351
        k(  177) = (   0.3809524   0.0500375   0.0000000), wk =   0.0045351
        k(  178) = (   0.3809524   0.1066734   0.0000000), wk =   0.0045351
        k(  179) = (   0.3809524   0.1633092   0.0000000), wk =   0.0045351
        k(  180) = (   0.4285714   0.2474382   0.0000000), wk =   0.0045351
        k(  181) = (   0.4285714   0.3040741   0.0000000), wk =   0.0045351
        k(  182) = (   0.4285714   0.3607099   0.0000000), wk =   0.0045351
        k(  183) = (   0.4285714   0.4173458   0.0000000), wk =   0.0045351
        k(  184) = (   0.4285714   0.4739817   0.0000000), wk =   0.0045351
        k(  185) = (   0.4285714   0.5306175   0.0000000), wk =   0.0045351
        k(  186) = (   0.4285714   0.5872534   0.0000000), wk =   0.0045351
        k(  187) = (   0.4285714   0.6438892   0.0000000), wk =   0.0045351
        k(  188) = (   0.4285714   0.7005251   0.0000000), wk =   0.0045351
        k(  189) = (   0.4285714   0.7571610   0.0000000), wk =   0.0045351
        k(  190) = (   0.4285714   0.8137968   0.0000000), wk =   0.0045351
        k(  191) = (   0.4285714  -0.3189204   0.0000000), wk =   0.0045351
        k(  192) = (   0.4285714  -0.2622845   0.0000000), wk =   0.0045351
        k(  193) = (   0.4285714  -0.2056487   0.0000000), wk =   0.0045351
        k(  194) = (   0.4285714  -0.1490128   0.0000000), wk =   0.0045351
        k(  195) = (   0.4285714  -0.0923769   0.0000000), wk =   0.0045351
        k(  196) = (   0.4285714  -0.0357411   0.0000000), wk =   0.0045351
        k(  197) = (   0.4285714   0.0208948   0.0000000), wk =   0.0045351
        k(  198) = (   0.4285714   0.0775306   0.0000000), wk =   0.0045351
        k(  199) = (   0.4285714   0.1341665   0.0000000), wk =   0.0045351
        k(  200) = (   0.4285714   0.1908024   0.0000000), wk =   0.0045351
        k(  201) = (   0.4761905   0.2749314   0.0000000), wk =   0.0045351
        k(  202) = (   0.4761905   0.3315672   0.0000000), wk =   0.0045351
        k(  203) = (   0.4761905   0.3882031   0.0000000), wk =   0.0045351
        k(  204) = (   0.4761905   0.4448389   0.0000000), wk =   0.0045351
        k(  205) = (   0.4761905   0.5014748   0.0000000), wk =   0.0045351
        k(  206) = (   0.4761905   0.5581107   0.0000000), wk =   0.0045351
        k(  207) = (   0.4761905   0.6147465   0.0000000), wk =   0.0045351
        k(  208) = (   0.4761905   0.6713824   0.0000000), wk =   0.0045351
        k(  209) = (   0.4761905   0.7280182   0.0000000), wk =   0.0045351
        k(  210) = (   0.4761905   0.7846541   0.0000000), wk =   0.0045351
        k(  211) = (   0.4761905   0.8412900   0.0000000), wk =   0.0045351
        k(  212) = (   0.4761905  -0.2914272   0.0000000), wk =   0.0045351
        k(  213) = (   0.4761905  -0.2347914   0.0000000), wk =   0.0045351
        k(  214) = (   0.4761905  -0.1781555   0.0000000), wk =   0.0045351
        k(  215) = (   0.4761905  -0.1215197   0.0000000), wk =   0.0045351
        k(  216) = (   0.4761905  -0.0648838   0.0000000), wk =   0.0045351
        k(  217) = (   0.4761905  -0.0082479   0.0000000), wk =   0.0045351
        k(  218) = (   0.4761905   0.0483879   0.0000000), wk =   0.0045351
        k(  219) = (   0.4761905   0.1050238   0.0000000), wk =   0.0045351
        k(  220) = (   0.4761905   0.1616596   0.0000000), wk =   0.0045351
        k(  221) = (   0.4761905   0.2182955   0.0000000), wk =   0.0045351

                       cryst. coord.
        k(    1) = (   0.0000000   0.0000000   0.0000000), wk =   0.0022676
        k(    2) = (   0.0000000   0.0476190   0.0000000), wk =   0.0045351
        k(    3) = (   0.0000000   0.0952381   0.0000000), wk =   0.0045351
        k(    4) = (   0.0000000   0.1428571   0.0000000), wk =   0.0045351
        k(    5) = (   0.0000000   0.1904762   0.0000000), wk =   0.0045351
        k(    6) = (   0.0000000   0.2380952   0.0000000), wk =   0.0045351
        k(    7) = (   0.0000000   0.2857143   0.0000000), wk =   0.0045351
        k(    8) = (   0.0000000   0.3333333   0.0000000), wk =   0.0045351
        k(    9) = (   0.0000000   0.3809524   0.0000000), wk =   0.0045351
        k(   10) = (   0.0000000   0.4285714   0.0000000), wk =   0.0045351
        k(   11) = (   0.0000000   0.4761905   0.0000000), wk =   0.0045351
        k(   12) = (   0.0476190   0.0000000   0.0000000), wk =   0.0045351
        k(   13) = (   0.0476190   0.0476190   0.0000000), wk =   0.0045351
        k(   14) = (   0.0476190   0.0952381   0.0000000), wk =   0.0045351
        k(   15) = (   0.0476190   0.1428571   0.0000000), wk =   0.0045351
        k(   16) = (   0.0476190   0.1904762   0.0000000), wk =   0.0045351
        k(   17) = (   0.0476190   0.2380952   0.0000000), wk =   0.0045351
        k(   18) = (   0.0476190   0.2857143   0.0000000), wk =   0.0045351
        k(   19) = (   0.0476190   0.3333333   0.0000000), wk =   0.0045351
        k(   20) = (   0.0476190   0.3809524   0.0000000), wk =   0.0045351
        k(   21) = (   0.0476190   0.4285714   0.0000000), wk =   0.0045351
        k(   22) = (   0.0476190   0.4761905   0.0000000), wk =   0.0045351
        k(   23) = (   0.0476190  -0.4761905   0.0000000), wk =   0.0045351
        k(   24) = (   0.0476190  -0.4285714   0.0000000), wk =   0.0045351
        k(   25) = (   0.0476190  -0.3809524   0.0000000), wk =   0.0045351
        k(   26) = (   0.0476190  -0.3333333   0.0000000), wk =   0.0045351
        k(   27) = (   0.0476190  -0.2857143   0.0000000), wk =   0.0045351
        k(   28) = (   0.0476190  -0.2380952   0.0000000), wk =   0.0045351
        k(   29) = (   0.0476190  -0.1904762   0.0000000), wk =   0.0045351
        k(   30) = (   0.0476190  -0.1428571   0.0000000), wk =   0.0045351
        k(   31) = (   0.0476190  -0.0952381   0.0000000), wk =   0.0045351
        k(   32) = (   0.0476190  -0.0476190   0.0000000), wk =   0.0045351
        k(   33) = (   0.0952381   0.0000000   0.0000000), wk =   0.0045351
        k(   34) = (   0.0952381   0.0476190   0.0000000), wk =   0.0045351
        k(   35) = (   0.0952381   0.0952381   0.0000000), wk =   0.0045351
        k(   36) = (   0.0952381   0.1428571   0.0000000), wk =   0.0045351
        k(   37) = (   0.0952381   0.1904762   0.0000000), wk =   0.0045351
        k(   38) = (   0.0952381   0.2380952   0.0000000), wk =   0.0045351
        k(   39) = (   0.0952381   0.2857143   0.0000000), wk =   0.0045351
        k(   40) = (   0.0952381   0.3333333   0.0000000), wk =   0.0045351
        k(   41) = (   0.0952381   0.3809524   0.0000000), wk =   0.0045351
        k(   42) = (   0.0952381   0.4285714   0.0000000), wk =   0.0045351
        k(   43) = (   0.0952381   0.4761905   0.0000000), wk =   0.0045351
        k(   44) = (   0.0952381  -0.4761905   0.0000000), wk =   0.0045351
        k(   45) = (   0.0952381  -0.4285714   0.0000000), wk =   0.0045351
        k(   46) = (   0.0952381  -0.3809524   0.0000000), wk =   0.0045351
        k(   47) = (   0.0952381  -0.3333333   0.0000000), wk =   0.0045351
        k(   48) = (   0.0952381  -0.2857143   0.0000000), wk =   0.0045351
        k(   49) = (   0.0952381  -0.2380952   0.0000000), wk =   0.0045351
        k(   50) = (   0.0952381  -0.1904762   0.0000000), wk =   0.0045351
        k(   51) = (   0.0952381  -0.1428571   0.0000000), wk =   0.0045351
        k(   52) = (   0.0952381  -0.0952381   0.0000000), wk =   0.0045351
        k(   53) = (   0.0952381  -0.0476190   0.0000000), wk =   0.0045351
        k(   54) = (   0.1428571  -0.0000000   0.0000000), wk =   0.0045351
        k(   55) = (   0.1428571   0.0476190   0.0000000), wk =   0.0045351
        k(   56) = (   0.1428571   0.0952381   0.0000000), wk =   0.0045351
        k(   57) = (   0.1428571   0.1428571   0.0000000), wk =   0.0045351
        k(   58) = (   0.1428571   0.1904762   0.0000000), wk =   0.0045351
        k(   59) = (   0.1428571   0.2380952   0.0000000), wk =   0.0045351
        k(   60) = (   0.1428571   0.2857143   0.0000000), wk =   0.0045351
        k(   61) = (   0.1428571   0.3333333   0.0000000), wk =   0.0045351
        k(   62) = (   0.1428571   0.3809524   0.0000000), wk =   0.0045351
        k(   63) = (   0.1428571   0.4285714   0.0000000), wk =   0.0045351
        k(   64) = (   0.1428571   0.4761905   0.0000000), wk =   0.0045351
        k(   65) = (   0.1428571  -0.4761905   0.0000000), wk =   0.0045351
        k(   66) = (   0.1428571  -0.4285714   0.0000000), wk =   0.0045351
        k(   67) = (   0.1428571  -0.3809524   0.0000000), wk =   0.0045351
        k(   68) = (   0.1428571  -0.3333333   0.0000000), wk =   0.0045351
        k(   69) = (   0.1428571  -0.2857143   0.0000000), wk =   0.0045351
        k(   70) = (   0.1428571  -0.2380952   0.0000000), wk =   0.0045351
        k(   71) = (   0.1428571  -0.1904762   0.0000000), wk =   0.0045351
        k(   72) = (   0.1428571  -0.1428571   0.0000000), wk =   0.0045351
        k(   73) = (   0.1428571  -0.0952381   0.0000000), wk =   0.0045351
        k(   74) = (   0.1428571  -0.0476190   0.0000000), wk =   0.0045351
        k(   75) = (   0.1904762   0.0000000   0.0000000), wk =   0.0045351
        k(   76) = (   0.1904762   0.0476190   0.0000000), wk =   0.0045351
        k(   77) = (   0.1904762   0.0952381   0.0000000), wk =   0.0045351
        k(   78) = (   0.1904762   0.1428571   0.0000000), wk =   0.0045351
        k(   79) = (   0.1904762   0.1904762   0.0000000), wk =   0.0045351
        k(   80) = (   0.1904762   0.2380952   0.0000000), wk =   0.0045351
        k(   81) = (   0.1904762   0.2857143   0.0000000), wk =   0.0045351
        k(   82) = (   0.1904762   0.3333333   0.0000000), wk =   0.0045351
        k(   83) = (   0.1904762   0.3809524   0.0000000), wk =   0.0045351
        k(   84) = (   0.1904762   0.4285714   0.0000000), wk =   0.0045351
        k(   85) = (   0.1904762   0.4761905   0.0000000), wk =   0.0045351
        k(   86) = (   0.1904762  -0.4761905   0.0000000), wk =   0.0045351
        k(   87) = (   0.1904762  -0.4285714   0.0000000), wk =   0.0045351
        k(   88) = (   0.1904762  -0.3809524   0.0000000), wk =   0.0045351
        k(   89) = (   0.1904762  -0.3333333   0.0000000), wk =   0.0045351
        k(   90) = (   0.1904762  -0.2857143   0.0000000), wk =   0.0045351
        k(   91) = (   0.1904762  -0.2380952   0.0000000), wk =   0.0045351
        k(   92) = (   0.1904762  -0.1904762   0.0000000), wk =   0.0045351
        k(   93) = (   0.1904762  -0.1428571   0.0000000), wk =   0.0045351
        k(   94) = (   0.1904762  -0.0952381   0.0000000), wk =   0.0045351
        k(   95) = (   0.1904762  -0.0476190   0.0000000), wk =   0.0045351
        k(   96) = (   0.2380952   0.0000000   0.0000000), wk =   0.0045351
        k(   97) = (   0.2380952   0.0476190   0.0000000), wk =   0.0045351
        k(   98) = (   0.2380952   0.0952381   0.0000000), wk =   0.0045351
        k(   99) = (   0.2380952   0.1428571   0.0000000), wk =   0.0045351
        k(  100) = (   0.2380952   0.1904762   0.0000000), wk =   0.0045351
        k(  101) = (   0.2380952   0.2380952   0.0000000), wk =   0.0045351
        k(  102) = (   0.2380952   0.2857143   0.0000000), wk =   0.0045351
        k(  103) = (   0.2380952   0.3333333   0.0000000), wk =   0.0045351
        k(  104) = (   0.2380952   0.3809524   0.0000000), wk =   0.0045351
        k(  105) = (   0.2380952   0.4285714   0.0000000), wk =   0.0045351
        k(  106) = (   0.2380952   0.4761905   0.0000000), wk =   0.0045351
        k(  107) = (   0.2380952  -0.4761905   0.0000000), wk =   0.0045351
        k(  108) = (   0.2380952  -0.4285714   0.0000000), wk =   0.0045351
        k(  109) = (   0.2380952  -0.3809524   0.0000000), wk =   0.0045351
        k(  110) = (   0.2380952  -0.3333333   0.0000000), wk =   0.0045351
        k(  111) = (   0.2380952  -0.2857143   0.0000000), wk =   0.0045351
        k(  112) = (   0.2380952  -0.2380952   0.0000000), wk =   0.0045351
        k(  113) = (   0.2380952  -0.1904762   0.0000000), wk =   0.0045351
        k(  114) = (   0.2380952  -0.1428571   0.0000000), wk =   0.0045351
        k(  115) = (   0.2380952  -0.0952381   0.0000000), wk =   0.0045351
        k(  116) = (   0.2380952  -0.0476190   0.0000000), wk =   0.0045351
        k(  117) = (   0.2857143  -0.0000000   0.0000000), wk =   0.0045351
        k(  118) = (   0.2857143   0.0476190   0.0000000), wk =   0.0045351
        k(  119) = (   0.2857143   0.0952381   0.0000000), wk =   0.0045351
        k(  120) = (   0.2857143   0.1428571   0.0000000), wk =   0.0045351
        k(  121) = (   0.2857143   0.1904762   0.0000000), wk =   0.0045351
        k(  122) = (   0.2857143   0.2380952   0.0000000), wk =   0.0045351
        k(  123) = (   0.2857143   0.2857143   0.0000000), wk =   0.0045351
        k(  124) = (   0.2857143   0.3333333   0.0000000), wk =   0.0045351
        k(  125) = (   0.2857143   0.3809524   0.0000000), wk =   0.0045351
        k(  126) = (   0.2857143   0.4285714   0.0000000), wk =   0.0045351
        k(  127) = (   0.2857143   0.4761905   0.0000000), wk =   0.0045351
        k(  128) = (   0.2857143  -0.4761905   0.0000000), wk =   0.0045351
        k(  129) = (   0.2857143  -0.4285714   0.0000000), wk =   0.0045351
        k(  130) = (   0.2857143  -0.3809524   0.0000000), wk =   0.0045351
        k(  131) = (   0.2857143  -0.3333333   0.0000000), wk =   0.0045351
        k(  132) = (   0.2857143  -0.2857143   0.0000000), wk =   0.0045351
        k(  133) = (   0.2857143  -0.2380952   0.0000000), wk =   0.0045351
        k(  134) = (   0.2857143  -0.1904762   0.0000000), wk =   0.0045351
        k(  135) = (   0.2857143  -0.1428571   0.0000000), wk =   0.0045351
        k(  136) = (   0.2857143  -0.0952381   0.0000000), wk =   0.0045351
        k(  137) = (   0.2857143  -0.0476190   0.0000000), wk =   0.0045351
        k(  138) = (   0.3333333   0.0000000   0.0000000), wk =   0.0045351
        k(  139) = (   0.3333333   0.0476190   0.0000000), wk =   0.0045351
        k(  140) = (   0.3333333   0.0952381   0.0000000), wk =   0.0045351
        k(  141) = (   0.3333333   0.1428571   0.0000000), wk =   0.0045351
        k(  142) = (   0.3333333   0.1904762   0.0000000), wk =   0.0045351
        k(  143) = (   0.3333333   0.2380952   0.0000000), wk =   0.0045351
        k(  144) = (   0.3333333   0.2857143   0.0000000), wk =   0.0045351
        k(  145) = (   0.3333333   0.3333333   0.0000000), wk =   0.0045351
        k(  146) = (   0.3333333   0.3809524   0.0000000), wk =   0.0045351
        k(  147) = (   0.3333333   0.4285714   0.0000000), wk =   0.0045351
        k(  148) = (   0.3333333   0.4761905   0.0000000), wk =   0.0045351
        k(  149) = (   0.3333333  -0.4761905   0.0000000), wk =   0.0045351
        k(  150) = (   0.3333333  -0.4285714   0.0000000), wk =   0.0045351
        k(  151) = (   0.3333333  -0.3809524   0.0000000), wk =   0.0045351
        k(  152) = (   0.3333333  -0.3333333   0.0000000), wk =   0.0045351
        k(  153) = (   0.3333333  -0.2857143   0.0000000), wk =   0.0045351
        k(  154) = (   0.3333333  -0.2380952   0.0000000), wk =   0.0045351
        k(  155) = (   0.3333333  -0.1904762   0.0000000), wk =   0.0045351
        k(  156) = (   0.3333333  -0.1428571   0.0000000), wk =   0.0045351
        k(  157) = (   0.3333333  -0.0952381   0.0000000), wk =   0.0045351
        k(  158) = (   0.3333333  -0.0476190   0.0000000), wk =   0.0045351
        k(  159) = (   0.3809524   0.0000000   0.0000000), wk =   0.0045351
        k(  160) = (   0.3809524   0.0476190   0.0000000), wk =   0.0045351
        k(  161) = (   0.3809524   0.0952381   0.0000000), wk =   0.0045351
        k(  162) = (   0.3809524   0.1428571   0.0000000), wk =   0.0045351
        k(  163) = (   0.3809524   0.1904762   0.0000000), wk =   0.0045351
        k(  164) = (   0.3809524   0.2380952   0.0000000), wk =   0.0045351
        k(  165) = (   0.3809524   0.2857143   0.0000000), wk =   0.0045351
        k(  166) = (   0.3809524   0.3333333   0.0000000), wk =   0.0045351
        k(  167) = (   0.3809524   0.3809524   0.0000000), wk =   0.0045351
        k(  168) = (   0.3809524   0.4285714   0.0000000), wk =   0.0045351
        k(  169) = (   0.3809524   0.4761905   0.0000000), wk =   0.0045351
        k(  170) = (   0.3809524  -0.4761905   0.0000000), wk =   0.0045351
        k(  171) = (   0.3809524  -0.4285714   0.0000000), wk =   0.0045351
        k(  172) = (   0.3809524  -0.3809524   0.0000000), wk =   0.0045351
        k(  173) = (   0.3809524  -0.3333333   0.0000000), wk =   0.0045351
        k(  174) = (   0.3809524  -0.2857143   0.0000000), wk =   0.0045351
        k(  175) = (   0.3809524  -0.2380952   0.0000000), wk =   0.0045351
        k(  176) = (   0.3809524  -0.1904762   0.0000000), wk =   0.0045351
        k(  177) = (   0.3809524  -0.1428571   0.0000000), wk =   0.0045351
        k(  178) = (   0.3809524  -0.0952381   0.0000000), wk =   0.0045351
        k(  179) = (   0.3809524  -0.0476190   0.0000000), wk =   0.0045351
        k(  180) = (   0.4285714   0.0000000   0.0000000), wk =   0.0045351
        k(  181) = (   0.4285714   0.0476190   0.0000000), wk =   0.0045351
        k(  182) = (   0.4285714   0.0952381   0.0000000), wk =   0.0045351
        k(  183) = (   0.4285714   0.1428571   0.0000000), wk =   0.0045351
        k(  184) = (   0.4285714   0.1904762   0.0000000), wk =   0.0045351
        k(  185) = (   0.4285714   0.2380952   0.0000000), wk =   0.0045351
        k(  186) = (   0.4285714   0.2857143   0.0000000), wk =   0.0045351
        k(  187) = (   0.4285714   0.3333333   0.0000000), wk =   0.0045351
        k(  188) = (   0.4285714   0.3809524   0.0000000), wk =   0.0045351
        k(  189) = (   0.4285714   0.4285714   0.0000000), wk =   0.0045351
        k(  190) = (   0.4285714   0.4761905   0.0000000), wk =   0.0045351
        k(  191) = (   0.4285714  -0.4761905   0.0000000), wk =   0.0045351
        k(  192) = (   0.4285714  -0.4285714   0.0000000), wk =   0.0045351
        k(  193) = (   0.4285714  -0.3809524   0.0000000), wk =   0.0045351
        k(  194) = (   0.4285714  -0.3333333   0.0000000), wk =   0.0045351
        k(  195) = (   0.4285714  -0.2857143   0.0000000), wk =   0.0045351
        k(  196) = (   0.4285714  -0.2380952   0.0000000), wk =   0.0045351
        k(  197) = (   0.4285714  -0.1904762   0.0000000), wk =   0.0045351
        k(  198) = (   0.4285714  -0.1428571   0.0000000), wk =   0.0045351
        k(  199) = (   0.4285714  -0.0952381   0.0000000), wk =   0.0045351
        k(  200) = (   0.4285714  -0.0476190   0.0000000), wk =   0.0045351
        k(  201) = (   0.4761905   0.0000000   0.0000000), wk =   0.0045351
        k(  202) = (   0.4761905   0.0476190   0.0000000), wk =   0.0045351
        k(  203) = (   0.4761905   0.0952381   0.0000000), wk =   0.0045351
        k(  204) = (   0.4761905   0.1428571   0.0000000), wk =   0.0045351
        k(  205) = (   0.4761905   0.1904762   0.0000000), wk =   0.0045351
        k(  206) = (   0.4761905   0.2380952   0.0000000), wk =   0.0045351
        k(  207) = (   0.4761905   0.2857143   0.0000000), wk =   0.0045351
        k(  208) = (   0.4761905   0.3333333   0.0000000), wk =   0.0045351
        k(  209) = (   0.4761905   0.3809524   0.0000000), wk =   0.0045351
        k(  210) = (   0.4761905   0.4285714   0.0000000), wk =   0.0045351
        k(  211) = (   0.4761905   0.4761905   0.0000000), wk =   0.0045351
        k(  212) = (   0.4761905  -0.4761905   0.0000000), wk =   0.0045351
        k(  213) = (   0.4761905  -0.4285714   0.0000000), wk =   0.0045351
        k(  214) = (   0.4761905  -0.3809524   0.0000000), wk =   0.0045351
        k(  215) = (   0.4761905  -0.3333333   0.0000000), wk =   0.0045351
        k(  216) = (   0.4761905  -0.2857143   0.0000000), wk =   0.0045351
        k(  217) = (   0.4761905  -0.2380952   0.0000000), wk =   0.0045351
        k(  218) = (   0.4761905  -0.1904762   0.0000000), wk =   0.0045351
        k(  219) = (   0.4761905  -0.1428571   0.0000000), wk =   0.0045351
        k(  220) = (   0.4761905  -0.0952381   0.0000000), wk =   0.0045351
        k(  221) = (   0.4761905  -0.0476190   0.0000000), wk =   0.0045351

     Dense  grid:   467835 G-vectors     FFT dimensions: (  60,  60, 300)

     Smooth grid:   118417 G-vectors     FFT dimensions: (  40,  40, 192)

     Dynamical RAM for                 wfc:       1.47 MB

     Dynamical RAM for     wfc (w. buffer):     325.52 MB

     Dynamical RAM for           str. fact:       0.60 MB

     Dynamical RAM for           local pot:       0.00 MB

     Dynamical RAM for          nlocal pot:       1.60 MB

     Dynamical RAM for                qrad:       9.40 MB

     Dynamical RAM for          rho,v,vnew:       7.86 MB

     Dynamical RAM for               rhoin:       2.62 MB

     Dynamical RAM for            rho*nmix:      19.04 MB

     Dynamical RAM for           G-vectors:       1.15 MB

     Dynamical RAM for          h,s,v(r/c):       1.11 MB

     Dynamical RAM for          <psi|beta>:       0.40 MB

     Dynamical RAM for                 psi:       2.93 MB

     Dynamical RAM for                hpsi:       2.93 MB

     Dynamical RAM for      wfcinit/wfcrot:       2.34 MB

     Estimated static dynamical RAM per process >     352.49 MB

     Estimated max dynamical RAM per process >     378.92 MB

     Estimated total dynamical RAM >       8.88 GB

     Initial potential from superposition of free atoms

     starting charge      77.7613, renormalised to      78.0000

     negative rho (up, down):  3.932E-04 0.000E+00
     Starting wfcs are random

     total cpu time spent up to now is       19.9 secs

     Self-consistent Calculation

     iteration #  1     ecut=    50.00 Ry     beta= 0.70
     Davidson diagonalization with overlap

---- Real-time Memory Report at c_bands before calling an iterative solver
           549 MiB given to the printing process from OS
             0 MiB allocation reported by mallinfo(arena+hblkhd)
         90039 MiB available memory on the node where the printing process lives
------------------
     ethr =  1.00E-02,  avg # of iterations = 12.5

     Threshold (ethr) on eigenvalues was too large:
     Diagonalizing with lowered threshold

     Davidson diagonalization with overlap

---- Real-time Memory Report at c_bands before calling an iterative solver
           558 MiB given to the printing process from OS
             0 MiB allocation reported by mallinfo(arena+hblkhd)
         89938 MiB available memory on the node where the printing process lives
------------------
     ethr =  1.19E-04,  avg # of iterations =  6.1

     negative rho (up, down):  1.691E-05 0.000E+00

     total cpu time spent up to now is      323.1 secs

     total energy              =    -806.53619608 Ry
     estimated scf accuracy    <       0.08135701 Ry

     iteration #  2     ecut=    50.00 Ry     beta= 0.70
     Davidson diagonalization with overlap

---- Real-time Memory Report at c_bands before calling an iterative solver
           558 MiB given to the printing process from OS
             0 MiB allocation reported by mallinfo(arena+hblkhd)
         89938 MiB available memory on the node where the printing process lives
------------------
     ethr =  1.04E-04,  avg # of iterations =  5.2

     negative rho (up, down):  2.749E-05 0.000E+00

     total cpu time spent up to now is      404.5 secs

     total energy              =    -806.49301573 Ry
     estimated scf accuracy    <       0.42171018 Ry

     iteration #  3     ecut=    50.00 Ry     beta= 0.70
     Davidson diagonalization with overlap

---- Real-time Memory Report at c_bands before calling an iterative solver
           560 MiB given to the printing process from OS
             0 MiB allocation reported by mallinfo(arena+hblkhd)
         89926 MiB available memory on the node where the printing process lives
------------------
     ethr =  1.04E-04,  avg # of iterations =  5.3

     negative rho (up, down):  2.321E-05 0.000E+00

     total cpu time spent up to now is      479.7 secs

     total energy              =    -806.54695213 Ry
     estimated scf accuracy    <       0.22715861 Ry

     iteration #  4     ecut=    50.00 Ry     beta= 0.70
     Davidson diagonalization with overlap

---- Real-time Memory Report at c_bands before calling an iterative solver
           560 MiB given to the printing process from OS
             0 MiB allocation reported by mallinfo(arena+hblkhd)
         89915 MiB available memory on the node where the printing process lives
------------------
     ethr =  1.04E-04,  avg # of iterations =  3.4

     negative rho (up, down):  2.519E-06 0.000E+00

     total cpu time spent up to now is      542.8 secs

     total energy              =    -806.57102028 Ry
     estimated scf accuracy    <       0.00303488 Ry

     iteration #  5     ecut=    50.00 Ry     beta= 0.70
     Davidson diagonalization with overlap

---- Real-time Memory Report at c_bands before calling an iterative solver
           561 MiB given to the printing process from OS
             0 MiB allocation reported by mallinfo(arena+hblkhd)
         89908 MiB available memory on the node where the printing process lives
------------------
     ethr =  3.89E-06,  avg # of iterations =  5.9

     negative rho (up, down):  2.479E-06 0.000E+00

     total cpu time spent up to now is      618.9 secs

     total energy              =    -806.57153875 Ry
     estimated scf accuracy    <       0.01029131 Ry

     iteration #  6     ecut=    50.00 Ry     beta= 0.70
     Davidson diagonalization with overlap

---- Real-time Memory Report at c_bands before calling an iterative solver
           562 MiB given to the printing process from OS
             0 MiB allocation reported by mallinfo(arena+hblkhd)
         89900 MiB available memory on the node where the printing process lives
------------------
     ethr =  3.89E-06,  avg # of iterations =  5.8

     total cpu time spent up to now is      683.3 secs

     total energy              =    -806.57179338 Ry
     estimated scf accuracy    <       0.00363836 Ry

     iteration #  7     ecut=    50.00 Ry     beta= 0.70
     Davidson diagonalization with overlap

---- Real-time Memory Report at c_bands before calling an iterative solver
           562 MiB given to the printing process from OS
             0 MiB allocation reported by mallinfo(arena+hblkhd)
         89887 MiB available memory on the node where the printing process lives
------------------
     ethr =  3.89E-06,  avg # of iterations =  3.3

     total cpu time spent up to now is      741.4 secs

     total energy              =    -806.57204739 Ry
     estimated scf accuracy    <       0.00020870 Ry

     iteration #  8     ecut=    50.00 Ry     beta= 0.70
     Davidson diagonalization with overlap

---- Real-time Memory Report at c_bands before calling an iterative solver
           563 MiB given to the printing process from OS
             0 MiB allocation reported by mallinfo(arena+hblkhd)
         89879 MiB available memory on the node where the printing process lives
------------------
     ethr =  2.68E-07,  avg # of iterations =  5.8

     total cpu time spent up to now is      811.6 secs

     total energy              =    -806.57208466 Ry
     estimated scf accuracy    <       0.00013443 Ry

     iteration #  9     ecut=    50.00 Ry     beta= 0.70
     Davidson diagonalization with overlap

---- Real-time Memory Report at c_bands before calling an iterative solver
           564 MiB given to the printing process from OS
             0 MiB allocation reported by mallinfo(arena+hblkhd)
         89872 MiB available memory on the node where the printing process lives
------------------
     ethr =  1.72E-07,  avg # of iterations =  2.1

     total cpu time spent up to now is      865.4 secs

     total energy              =    -806.57208445 Ry
     estimated scf accuracy    <       0.00003311 Ry

     iteration # 10     ecut=    50.00 Ry     beta= 0.70
     Davidson diagonalization with overlap

---- Real-time Memory Report at c_bands before calling an iterative solver
           564 MiB given to the printing process from OS
             0 MiB allocation reported by mallinfo(arena+hblkhd)
         89866 MiB available memory on the node where the printing process lives
------------------
     ethr =  4.25E-08,  avg # of iterations =  5.0

     total cpu time spent up to now is      931.0 secs

     total energy              =    -806.57208983 Ry
     estimated scf accuracy    <       0.00000309 Ry

     iteration # 11     ecut=    50.00 Ry     beta= 0.70
     Davidson diagonalization with overlap

---- Real-time Memory Report at c_bands before calling an iterative solver
           565 MiB given to the printing process from OS
             0 MiB allocation reported by mallinfo(arena+hblkhd)
         89859 MiB available memory on the node where the printing process lives
------------------
     ethr =  3.96E-09,  avg # of iterations =  2.5

     total cpu time spent up to now is      986.8 secs

     total energy              =    -806.57208940 Ry
     estimated scf accuracy    <       0.00000383 Ry

     iteration # 12     ecut=    50.00 Ry     beta= 0.70
     Davidson diagonalization with overlap

---- Real-time Memory Report at c_bands before calling an iterative solver
           565 MiB given to the printing process from OS
             0 MiB allocation reported by mallinfo(arena+hblkhd)
         89859 MiB available memory on the node where the printing process lives
------------------
     ethr =  3.96E-09,  avg # of iterations =  3.3

     total cpu time spent up to now is     1044.5 secs

     total energy              =    -806.57208960 Ry
     estimated scf accuracy    <       0.00000022 Ry

     iteration # 13     ecut=    50.00 Ry     beta= 0.70
     Davidson diagonalization with overlap

---- Real-time Memory Report at c_bands before calling an iterative solver
           565 MiB given to the printing process from OS
             0 MiB allocation reported by mallinfo(arena+hblkhd)
         89857 MiB available memory on the node where the printing process lives
------------------
     ethr =  2.88E-10,  avg # of iterations =  5.9

     total cpu time spent up to now is     1116.8 secs

     total energy              =    -806.57208966 Ry
     estimated scf accuracy    <       0.00000027 Ry

     iteration # 14     ecut=    50.00 Ry     beta= 0.70
     Davidson diagonalization with overlap

---- Real-time Memory Report at c_bands before calling an iterative solver
           565 MiB given to the printing process from OS
             0 MiB allocation reported by mallinfo(arena+hblkhd)
         89857 MiB available memory on the node where the printing process lives
------------------
     ethr =  2.88E-10,  avg # of iterations =  2.2

     total cpu time spent up to now is     1169.8 secs

     End of self-consistent calculation

          k = 0.0000 0.0000 0.0000 ( 14817 PWs)   bands (ev):

   -35.5704 -35.5704 -35.5699 -35.5699 -35.5393 -35.5393 -35.5388 -35.5388
   -35.4645 -35.4645 -35.4324 -35.4324 -34.1116 -34.1116 -34.1111 -34.1111
   -34.0854 -34.0854 -34.0848 -34.0848 -34.0711 -34.0711 -34.0706 -34.0706
   -34.0025 -34.0025 -33.9864 -33.9864 -33.9605 -33.9605 -28.2116 -28.2116
   -28.2113 -28.2113 -28.2032 -28.2032 -28.2029 -28.2029 -26.9723 -26.9723
   -26.9719 -26.9719 -26.9634 -26.9634 -26.9631 -26.9631 -26.9609 -26.9609
   -26.9606 -26.9606 -10.6695 -10.6695 -10.1341 -10.1341  -9.0579  -9.0579
    -6.3131  -6.3131  -4.9431  -4.9431  -0.5722  -0.5722  -0.1269  -0.1269
     0.1521   0.1521   0.4086   0.4086   0.4748   0.4748   0.5814   0.5814
     0.8554   0.8554   1.1561   1.1561   1.3291   1.3291

     occupation numbers 
     1.0000   1.0000   1.0000   1.0000   1.0000   1.0000   1.0000   1.0000
     1.0000   1.0000   1.0000   1.0000   1.0000   1.0000   1.0000   1.0000
     1.0000   1.0000   1.0000   1.0000   1.0000   1.0000   1.0000   1.0000
     1.0000   1.0000   1.0000   1.0000   1.0000   1.0000   1.0000   1.0000
     1.0000   1.0000   1.0000   1.0000   1.0000   1.0000   1.0000   1.0000
     1.0000   1.0000   1.0000   1.0000   1.0000   1.0000   1.0000   1.0000
     1.0000   1.0000   1.0000   1.0000   1.0000   1.0000   1.0000   1.0000
     1.0000   1.0000   1.0000   1.0000   1.0000   1.0000   1.0000   1.0000
     1.0000   1.0000   1.0000   1.0000   1.0000   1.0000   1.0000   1.0000
     1.0000   1.0000   1.0000   1.0000   1.0000   1.0000

          k = 0.0000 0.0566 0.0000 ( 14810 PWs)   bands (ev):

   -35.5704 -35.5704 -35.5699 -35.5699 -35.5393 -35.5393 -35.5388 -35.5388
   -35.4645 -35.4645 -35.4324 -35.4324 -34.1116 -34.1116 -34.1111 -34.1111
   -34.0854 -34.0854 -34.0848 -34.0848 -34.0711 -34.0711 -34.0706 -34.0706
   -34.0025 -34.0025 -33.9864 -33.9864 -33.9605 -33.9605 -28.2116 -28.2116
   -28.2113 -28.2112 -28.2032 -28.2032 -28.2029 -28.2028 -26.9723 -26.9723
   -26.9719 -26.9719 -26.9634 -26.9634 -26.9631 -26.9630 -26.9610 -26.9609
   -26.9607 -26.9606 -10.6497 -10.6497 -10.1159 -10.1159  -9.0468  -9.0468
    -6.3156  -6.3155  -4.9754  -4.9754  -0.6018  -0.6018  -0.2920  -0.2919
     0.1176   0.1185   0.2287   0.2292   0.3293   0.3298   0.6090   0.6103
     0.9056   0.9058   1.1027   1.1030   1.4637   1.4641

     occupation numbers 
     1.0000   1.0000   1.0000   1.0000   1.0000   1.0000   1.0000   1.0000
     1.0000   1.0000   1.0000   1.0000   1.0000   1.0000   1.0000   1.0000
     1.0000   1.0000   1.0000   1.0000   1.0000   1.0000   1.0000   1.0000
     1.0000   1.0000   1.0000   1.0000   1.0000   1.0000   1.0000   1.0000
     1.0000   1.0000   1.0000   1.0000   1.0000   1.0000   1.0000   1.0000
     1.0000   1.0000   1.0000   1.0000   1.0000   1.0000   1.0000   1.0000
     1.0000   1.0000   1.0000   1.0000   1.0000   1.0000   1.0000   1.0000
     1.0000   1.0000   1.0000   1.0000   1.0000   1.0000   1.0000   1.0000
     1.0000   1.0000   1.0000   1.0000   1.0000   1.0000   1.0000   1.0000
     1.0000   1.0000   1.0000   1.0000   1.0000   1.0000

          k = 0.0000 0.1133 0.0000 ( 14809 PWs)   bands (ev):

   -35.5704 -35.5704 -35.5699 -35.5699 -35.5393 -35.5393 -35.5388 -35.5388
   -35.4645 -35.4645 -35.4324 -35.4324 -34.1115 -34.1115 -34.1110 -34.1110
   -34.0854 -34.0854 -34.0848 -34.0848 -34.0711 -34.0711 -34.0706 -34.0706
   -34.0025 -34.0025 -33.9864 -33.9864 -33.9605 -33.9605 -28.2116 -28.2116
   -28.2112 -28.2112 -28.2033 -28.2032 -28.2029 -28.2028 -26.9721 -26.9721
   -26.9718 -26.9718 -26.9634 -26.9634 -26.9631 -26.9630 -26.9610 -26.9609
   -26.9607 -26.9606 -10.5905 -10.5905 -10.0616 -10.0616  -9.0141  -9.0141
    -6.3250  -6.3250  -5.0723  -5.0723  -0.7432  -0.7431  -0.5940  -0.5939
    -0.1990  -0.1982   0.0488   0.0490   0.1765   0.1767   0.4416   0.4420
     0.8437   0.8442   1.2979   1.2980   1.5787   1.5792

     occupation numbers 
     1.0000   1.0000   1.0000   1.0000   1.0000   1.0000   1.0000   1.0000
     1.0000   1.0000   1.0000   1.0000   1.0000   1.0000   1.0000   1.0000
     1.0000   1.0000   1.0000   1.0000   1.0000   1.0000   1.0000   1.0000
     1.0000   1.0000   1.0000   1.0000   1.0000   1.0000   1.0000   1.0000
     1.0000   1.0000   1.0000   1.0000   1.0000   1.0000   1.0000   1.0000
     1.0000   1.0000   1.0000   1.0000   1.0000   1.0000   1.0000   1.0000
     1.0000   1.0000   1.0000   1.0000   1.0000   1.0000   1.0000   1.0000
     1.0000   1.0000   1.0000   1.0000   1.0000   1.0000   1.0000   1.0000
     1.0000   1.0000   1.0000   1.0000   1.0000   1.0000   1.0000   1.0000
     1.0000   1.0000   1.0000   1.0000   1.0000   1.0000

          k = 0.0000 0.1699 0.0000 ( 14803 PWs)   bands (ev):

   -35.5704 -35.5704 -35.5699 -35.5698 -35.5393 -35.5392 -35.5388 -35.5387
   -35.4645 -35.4645 -35.4323 -35.4323 -34.1115 -34.1114 -34.1110 -34.1109
   -34.0854 -34.0854 -34.0848 -34.0848 -34.0711 -34.0710 -34.0706 -34.0705
   -34.0024 -34.0024 -33.9864 -33.9864 -33.9604 -33.9604 -28.2115 -28.2115
   -28.2111 -28.2111 -28.2033 -28.2032 -28.2030 -28.2028 -26.9720 -26.9720
   -26.9716 -26.9716 -26.9635 -26.9633 -26.9631 -26.9630 -26.9611 -26.9609
   -26.9608 -26.9606 -10.4928 -10.4928  -9.9726  -9.9726  -8.9623  -8.9623
    -6.3474  -6.3473  -5.2322  -5.2322  -1.1430  -1.1428  -0.7668  -0.7666
    -0.5407  -0.5403  -0.1749  -0.1746  -0.0601  -0.0597   0.3040   0.3043
     0.8368   0.8373   1.2926   1.2928   1.5559   1.5565

     occupation numbers 
     1.0000   1.0000   1.0000   1.0000   1.0000   1.0000   1.0000   1.0000
     1.0000   1.0000   1.0000   1.0000   1.0000   1.0000   1.0000   1.0000
     1.0000   1.0000   1.0000   1.0000   1.0000   1.0000   1.0000   1.0000
     1.0000   1.0000   1.0000   1.0000   1.0000   1.0000   1.0000   1.0000
     1.0000   1.0000   1.0000   1.0000   1.0000   1.0000   1.0000   1.0000
     1.0000   1.0000   1.0000   1.0000   1.0000   1.0000   1.0000   1.0000
     1.0000   1.0000   1.0000   1.0000   1.0000   1.0000   1.0000   1.0000
     1.0000   1.0000   1.0000   1.0000   1.0000   1.0000   1.0000   1.0000
     1.0000   1.0000   1.0000   1.0000   1.0000   1.0000   1.0000   1.0000
     1.0000   1.0000   1.0000   1.0000   1.0000   1.0000

          k = 0.0000 0.2265 0.0000 ( 14816 PWs)   bands (ev):

   -35.5703 -35.5703 -35.5698 -35.5698 -35.5393 -35.5392 -35.5388 -35.5387
   -35.4645 -35.4645 -35.4323 -35.4323 -34.1114 -34.1113 -34.1109 -34.1108
   -34.0854 -34.0854 -34.0848 -34.0848 -34.0710 -34.0710 -34.0705 -34.0705
   -34.0024 -34.0024 -33.9864 -33.9864 -33.9603 -33.9603 -28.2114 -28.2113
   -28.2110 -28.2110 -28.2034 -28.2032 -28.2030 -28.2029 -26.9717 -26.9717
   -26.9714 -26.9714 -26.9635 -26.9634 -26.9632 -26.9630 -26.9612 -26.9609
   -26.9608 -26.9606 -10.3579 -10.3579  -9.8509  -9.8509  -8.8958  -8.8958
    -6.3922  -6.3921  -5.4489  -5.4489  -1.5883  -1.5881  -0.9382  -0.9379
    -0.8667  -0.8665  -0.4285  -0.4284  -0.2646  -0.2644   0.2431   0.2435
     0.7375   0.7381   1.0341   1.0345   1.6548   1.6553

     occupation numbers 
     1.0000   1.0000   1.0000   1.0000   1.0000   1.0000   1.0000   1.0000
     1.0000   1.0000   1.0000   1.0000   1.0000   1.0000   1.0000   1.0000
     1.0000   1.0000   1.0000   1.0000   1.0000   1.0000   1.0000   1.0000
     1.0000   1.0000   1.0000   1.0000   1.0000   1.0000   1.0000   1.0000
     1.0000   1.0000   1.0000   1.0000   1.0000   1.0000   1.0000   1.0000
     1.0000   1.0000   1.0000   1.0000   1.0000   1.0000   1.0000   1.0000
     1.0000   1.0000   1.0000   1.0000   1.0000   1.0000   1.0000   1.0000
     1.0000   1.0000   1.0000   1.0000   1.0000   1.0000   1.0000   1.0000
     1.0000   1.0000   1.0000   1.0000   1.0000   1.0000   1.0000   1.0000
     1.0000   1.0000   1.0000   1.0000   1.0000   1.0000

          k = 0.0000 0.2832 0.0000 ( 14807 PWs)   bands (ev):

   -35.5702 -35.5702 -35.5697 -35.5697 -35.5392 -35.5392 -35.5387 -35.5387
   -35.4645 -35.4645 -35.4322 -35.4322 -34.1113 -34.1112 -34.1107 -34.1107
   -34.0854 -34.0854 -34.0848 -34.0848 -34.0710 -34.0709 -34.0705 -34.0704
   -34.0024 -34.0024 -33.9864 -33.9864 -33.9602 -33.9602 -28.2112 -28.2112
   -28.2109 -28.2109 -28.2034 -28.2032 -28.2031 -28.2029 -26.9715 -26.9715
   -26.9712 -26.9711 -26.9636 -26.9634 -26.9632 -26.9631 -26.9612 -26.9609
   -26.9608 -26.9606 -10.1878 -10.1877  -9.7003  -9.7003  -8.8215  -8.8215
    -6.4714  -6.4714  -5.7086  -5.7086  -1.9988  -1.9987  -1.2237  -1.2234
    -1.0582  -1.0579  -0.6447  -0.6445  -0.4420  -0.4418   0.2056   0.2060
     0.4804   0.4806   0.9231   0.9233   1.6131   1.6136

     occupation numbers 
     1.0000   1.0000   1.0000   1.0000   1.0000   1.0000   1.0000   1.0000
     1.0000   1.0000   1.0000   1.0000   1.0000   1.0000   1.0000   1.0000
     1.0000   1.0000   1.0000   1.0000   1.0000   1.0000   1.0000   1.0000
     1.0000   1.0000   1.0000   1.0000   1.0000   1.0000   1.0000   1.0000
     1.0000   1.0000   1.0000   1.0000   1.0000   1.0000   1.0000   1.0000
     1.0000   1.0000   1.0000   1.0000   1.0000   1.0000   1.0000   1.0000
     1.0000   1.0000   1.0000   1.0000   1.0000   1.0000   1.0000   1.0000
     1.0000   1.0000   1.0000   1.0000   1.0000   1.0000   1.0000   1.0000
     1.0000   1.0000   1.0000   1.0000   1.0000   1.0000   1.0000   1.0000
     1.0000   1.0000   1.0000   1.0000   1.0000   1.0000

          k = 0.0000 0.3398 0.0000 ( 14818 PWs)   bands (ev):

   -35.5702 -35.5702 -35.5697 -35.5696 -35.5392 -35.5392 -35.5387 -35.5387
   -35.4645 -35.4645 -35.4321 -35.4321 -34.1111 -34.1111 -34.1106 -34.1106
   -34.0854 -34.0854 -34.0848 -34.0848 -34.0709 -34.0708 -34.0704 -34.0704
   -34.0024 -34.0024 -33.9864 -33.9864 -33.9600 -33.9600 -28.2111 -28.2111
   -28.2108 -28.2107 -28.2034 -28.2033 -28.2031 -28.2029 -26.9713 -26.9712
   -26.9709 -26.9709 -26.9636 -26.9635 -26.9633 -26.9631 -26.9612 -26.9609
   -26.9608 -26.9605  -9.9859  -9.9859  -9.5265  -9.5265  -8.7495  -8.7495
    -6.5969  -6.5969  -5.9880  -5.9880  -2.3512  -2.3510  -1.4957  -1.4954
    -1.2083  -1.2079  -0.8047  -0.8045  -0.6094  -0.6093   0.0901   0.0905
     0.3001   0.3002   0.8689   0.8691   1.4577   1.4581

     occupation numbers 
     1.0000   1.0000   1.0000   1.0000   1.0000   1.0000   1.0000   1.0000
     1.0000   1.0000   1.0000   1.0000   1.0000   1.0000   1.0000   1.0000
     1.0000   1.0000   1.0000   1.0000   1.0000   1.0000   1.0000   1.0000
     1.0000   1.0000   1.0000   1.0000   1.0000   1.0000   1.0000   1.0000
     1.0000   1.0000   1.0000   1.0000   1.0000   1.0000   1.0000   1.0000
     1.0000   1.0000   1.0000   1.0000   1.0000   1.0000   1.0000   1.0000
     1.0000   1.0000   1.0000   1.0000   1.0000   1.0000   1.0000   1.0000
     1.0000   1.0000   1.0000   1.0000   1.0000   1.0000   1.0000   1.0000
     1.0000   1.0000   1.0000   1.0000   1.0000   1.0000   1.0000   1.0000
     1.0000   1.0000   1.0000   1.0000   1.0000   1.0000

          k = 0.0000 0.3965 0.0000 ( 14830 PWs)   bands (ev):

   -35.5701 -35.5701 -35.5696 -35.5696 -35.5392 -35.5392 -35.5387 -35.5387
   -35.4645 -35.4645 -35.4321 -35.4321 -34.1110 -34.1110 -34.1105 -34.1105
   -34.0854 -34.0854 -34.0848 -34.0848 -34.0708 -34.0708 -34.0704 -34.0703
   -34.0023 -34.0023 -33.9864 -33.9864 -33.9599 -33.9599 -28.2110 -28.2109
   -28.2107 -28.2106 -28.2035 -28.2033 -28.2031 -28.2030 -26.9711 -26.9710
   -26.9707 -26.9707 -26.9637 -26.9635 -26.9633 -26.9632 -26.9611 -26.9609
   -26.9607 -26.9605  -9.7576  -9.7576  -9.3388  -9.3388  -8.6944  -8.6944
    -6.7722  -6.7722  -6.2574  -6.2574  -2.6370  -2.6369  -1.6953  -1.6951
    -1.3482  -1.3478  -0.9288  -0.9285  -0.7631  -0.7630  -0.1020  -0.1018
     0.2572   0.2575   0.8348   0.8350   1.2699   1.2703

     occupation numbers 
     1.0000   1.0000   1.0000   1.0000   1.0000   1.0000   1.0000   1.0000
     1.0000   1.0000   1.0000   1.0000   1.0000   1.0000   1.0000   1.0000
     1.0000   1.0000   1.0000   1.0000   1.0000   1.0000   1.0000   1.0000
     1.0000   1.0000   1.0000   1.0000   1.0000   1.0000   1.0000   1.0000
     1.0000   1.0000   1.0000   1.0000   1.0000   1.0000   1.0000   1.0000
     1.0000   1.0000   1.0000   1.0000   1.0000   1.0000   1.0000   1.0000
     1.0000   1.0000   1.0000   1.0000   1.0000   1.0000   1.0000   1.0000
     1.0000   1.0000   1.0000   1.0000   1.0000   1.0000   1.0000   1.0000
     1.0000   1.0000   1.0000   1.0000   1.0000   1.0000   1.0000   1.0000
     1.0000   1.0000   1.0000   1.0000   1.0000   1.0000

          k = 0.0000 0.4531 0.0000 ( 14819 PWs)   bands (ev):

   -35.5701 -35.5700 -35.5695 -35.5695 -35.5392 -35.5391 -35.5387 -35.5386
   -35.4645 -35.4645 -35.4320 -35.4320 -34.1109 -34.1109 -34.1104 -34.1104
   -34.0854 -34.0854 -34.0848 -34.0848 -34.0708 -34.0707 -34.0703 -34.0703
   -34.0023 -34.0023 -33.9864 -33.9864 -33.9598 -33.9598 -28.2109 -28.2108
   -28.2106 -28.2105 -28.2035 -28.2034 -28.2031 -28.2030 -26.9709 -26.9709
   -26.9706 -26.9705 -26.9637 -26.9636 -26.9634 -26.9633 -26.9610 -26.9609
   -26.9606 -26.9605  -9.5111  -9.5111  -9.1523  -9.1523  -8.6759  -8.6759
    -6.9791  -6.9791  -6.4895  -6.4895  -2.8551  -2.8550  -1.8075  -1.8073
    -1.4748  -1.4744  -1.0551  -1.0549  -0.8811  -0.8810  -0.2274  -0.2273
     0.2207   0.2210   0.8187   0.8189   1.1067   1.1070

     occupation numbers 
     1.0000   1.0000   1.0000   1.0000   1.0000   1.0000   1.0000   1.0000
     1.0000   1.0000   1.0000   1.0000   1.0000   1.0000   1.0000   1.0000
     1.0000   1.0000   1.0000   1.0000   1.0000   1.0000   1.0000   1.0000
     1.0000   1.0000   1.0000   1.0000   1.0000   1.0000   1.0000   1.0000
     1.0000   1.0000   1.0000   1.0000   1.0000   1.0000   1.0000   1.0000
     1.0000   1.0000   1.0000   1.0000   1.0000   1.0000   1.0000   1.0000
     1.0000   1.0000   1.0000   1.0000   1.0000   1.0000   1.0000   1.0000
     1.0000   1.0000   1.0000   1.0000   1.0000   1.0000   1.0000   1.0000
     1.0000   1.0000   1.0000   1.0000   1.0000   1.0000   1.0000   1.0000
     1.0000   1.0000   1.0000   1.0000   1.0000   1.0000

          k = 0.0000 0.5097 0.0000 ( 14832 PWs)   bands (ev):

   -35.5700 -35.5700 -35.5695 -35.5695 -35.5392 -35.5391 -35.5387 -35.5386
   -35.4645 -35.4645 -35.4320 -35.4320 -34.1109 -34.1109 -34.1104 -34.1104
   -34.0854 -34.0854 -34.0848 -34.0848 -34.0707 -34.0707 -34.0703 -34.0702
   -34.0023 -34.0023 -33.9864 -33.9864 -33.9597 -33.9597 -28.2108 -28.2108
   -28.2105 -28.2104 -28.2035 -28.2034 -28.2031 -28.2030 -26.9708 -26.9708
   -26.9705 -26.9704 -26.9637 -26.9637 -26.9634 -26.9633 -26.9610 -26.9609
   -26.9606 -26.9605  -9.2599  -9.2599  -8.9924  -8.9924  -8.7176  -8.7175
    -7.1706  -7.1705  -6.6644  -6.6644  -3.0042  -3.0042  -1.8330  -1.8328
    -1.5895  -1.5892  -1.1832  -1.1830  -0.9499  -0.9499  -0.2771  -0.2771
     0.1735   0.1737   0.8098   0.8100   1.0009   1.0011

     occupation numbers 
     1.0000   1.0000   1.0000   1.0000   1.0000   1.0000   1.0000   1.0000
     1.0000   1.0000   1.0000   1.0000   1.0000   1.0000   1.0000   1.0000
     1.0000   1.0000   1.0000   1.0000   1.0000   1.0000   1.0000   1.0000
     1.0000   1.0000   1.0000   1.0000   1.0000   1.0000   1.0000   1.0000
     1.0000   1.0000   1.0000   1.0000   1.0000   1.0000   1.0000   1.0000
     1.0000   1.0000   1.0000   1.0000   1.0000   1.0000   1.0000   1.0000
     1.0000   1.0000   1.0000   1.0000   1.0000   1.0000   1.0000   1.0000
     1.0000   1.0000   1.0000   1.0000   1.0000   1.0000   1.0000   1.0000
     1.0000   1.0000   1.0000   1.0000   1.0000   1.0000   1.0000   1.0000
     1.0000   1.0000   1.0000   1.0000   1.0000   1.0000

          k = 0.0000 0.5664 0.0000 ( 14840 PWs)   bands (ev):

   -35.5700 -35.5700 -35.5695 -35.5695 -35.5391 -35.5391 -35.5386 -35.5386
   -35.4644 -35.4644 -35.4320 -35.4320 -34.1108 -34.1108 -34.1103 -34.1103
   -34.0854 -34.0854 -34.0848 -34.0848 -34.0707 -34.0707 -34.0702 -34.0702
   -34.0023 -34.0023 -33.9864 -33.9864 -33.9597 -33.9597 -28.2108 -28.2107
   -28.2104 -28.2104 -28.2035 -28.2034 -28.2031 -28.2031 -26.9707 -26.9707
   -26.9704 -26.9704 -26.9637 -26.9637 -26.9634 -26.9634 -26.9609 -26.9609
   -26.9605 -26.9605  -9.0253  -9.0253  -8.8955  -8.8955  -8.8356  -8.8355
    -7.2875  -7.2875  -6.7610  -6.7610  -3.0806  -3.0806  -1.7880  -1.7878
    -1.6964  -1.6961  -1.2632  -1.2632  -0.9816  -0.9815  -0.2852  -0.2851
     0.1362   0.1363   0.7992   0.7993   0.9588   0.9589

     occupation numbers 
     1.0000   1.0000   1.0000   1.0000   1.0000   1.0000   1.0000   1.0000
     1.0000   1.0000   1.0000   1.0000   1.0000   1.0000   1.0000   1.0000
     1.0000   1.0000   1.0000   1.0000   1.0000   1.0000   1.0000   1.0000
     1.0000   1.0000   1.0000   1.0000   1.0000   1.0000   1.0000   1.0000
     1.0000   1.0000   1.0000   1.0000   1.0000   1.0000   1.0000   1.0000
     1.0000   1.0000   1.0000   1.0000   1.0000   1.0000   1.0000   1.0000
     1.0000   1.0000   1.0000   1.0000   1.0000   1.0000   1.0000   1.0000
     1.0000   1.0000   1.0000   1.0000   1.0000   1.0000   1.0000   1.0000
     1.0000   1.0000   1.0000   1.0000   1.0000   1.0000   1.0000   1.0000
     1.0000   1.0000   1.0000   1.0000   1.0000   1.0000

          k = 0.0476 0.0275 0.0000 ( 14802 PWs)   bands (ev):

   -35.5704 -35.5704 -35.5699 -35.5699 -35.5393 -35.5393 -35.5388 -35.5388
   -35.4645 -35.4645 -35.4324 -35.4324 -34.1116 -34.1116 -34.1111 -34.1111
   -34.0854 -34.0854 -34.0848 -34.0848 -34.0711 -34.0711 -34.0706 -34.0706
   -34.0025 -34.0025 -33.9864 -33.9864 -33.9605 -33.9605 -28.2116 -28.2116
   -28.2113 -28.2113 -28.2032 -28.2032 -28.2029 -28.2029 -26.9723 -26.9723
   -26.9719 -26.9719 -26.9634 -26.9634 -26.9631 -26.9630 -26.9609 -26.9609
   -26.9606 -26.9606 -10.6508 -10.6508 -10.1171 -10.1171  -9.0478  -9.0478
    -6.3170  -6.3170  -4.9790  -4.9790  -0.6088  -0.6086  -0.3422  -0.3416
     0.1384   0.1393   0.1895   0.1909   0.3990   0.3998   0.6469   0.6488
     0.9152   0.9163   1.1116   1.1126   1.4514   1.4520

     occupation numbers 
     1.0000   1.0000   1.0000   1.0000   1.0000   1.0000   1.0000   1.0000
     1.0000   1.0000   1.0000   1.0000   1.0000   1.0000   1.0000   1.0000
     1.0000   1.0000   1.0000   1.0000   1.0000   1.0000   1.0000   1.0000
     1.0000   1.0000   1.0000   1.0000   1.0000   1.0000   1.0000   1.0000
     1.0000   1.0000   1.0000   1.0000   1.0000   1.0000   1.0000   1.0000
     1.0000   1.0000   1.0000   1.0000   1.0000   1.0000   1.0000   1.0000
     1.0000   1.0000   1.0000   1.0000   1.0000   1.0000   1.0000   1.0000
     1.0000   1.0000   1.0000   1.0000   1.0000   1.0000   1.0000   1.0000
     1.0000   1.0000   1.0000   1.0000   1.0000   1.0000   1.0000   1.0000
     1.0000   1.0000   1.0000   1.0000   1.0000   1.0000

          k = 0.0476 0.0841 0.0000 ( 14810 PWs)   bands (ev):

   -35.5704 -35.5704 -35.5699 -35.5699 -35.5393 -35.5393 -35.5388 -35.5388
   -35.4645 -35.4645 -35.4324 -35.4324 -34.1116 -34.1116 -34.1111 -34.1111
   -34.0854 -34.0854 -34.0848 -34.0848 -34.0711 -34.0711 -34.0706 -34.0706
   -34.0025 -34.0025 -33.9864 -33.9864 -33.9605 -33.9605 -28.2116 -28.2116
   -28.2112 -28.2112 -28.2032 -28.2032 -28.2029 -28.2028 -26.9722 -26.9722
   -26.9718 -26.9718 -26.9635 -26.9634 -26.9631 -26.9630 -26.9610 -26.9609
   -26.9607 -26.9606 -10.6119 -10.6119 -10.0815 -10.0815  -9.0264  -9.0264
    -6.3238  -6.3238  -5.0455  -5.0455  -0.6923  -0.6922  -0.5652  -0.5648
    -0.1312  -0.1301   0.1175   0.1180   0.2961   0.2967   0.5223   0.5232
     0.8814   0.8818   1.2248   1.2252   1.5744   1.5749

     occupation numbers 
     1.0000   1.0000   1.0000   1.0000   1.0000   1.0000   1.0000   1.0000
     1.0000   1.0000   1.0000   1.0000   1.0000   1.0000   1.0000   1.0000
     1.0000   1.0000   1.0000   1.0000   1.0000   1.0000   1.0000   1.0000
     1.0000   1.0000   1.0000   1.0000   1.0000   1.0000   1.0000   1.0000
     1.0000   1.0000   1.0000   1.0000   1.0000   1.0000   1.0000   1.0000
     1.0000   1.0000   1.0000   1.0000   1.0000   1.0000   1.0000   1.0000
     1.0000   1.0000   1.0000   1.0000   1.0000   1.0000   1.0000   1.0000
     1.0000   1.0000   1.0000   1.0000   1.0000   1.0000   1.0000   1.0000
     1.0000   1.0000   1.0000   1.0000   1.0000   1.0000   1.0000   1.0000
     1.0000   1.0000   1.0000   1.0000   1.0000   1.0000

          k = 0.0476 0.1408 0.0000 ( 14819 PWs)   bands (ev):

   -35.5704 -35.5704 -35.5699 -35.5699 -35.5393 -35.5393 -35.5388 -35.5387
   -35.4645 -35.4645 -35.4324 -35.4324 -34.1115 -34.1115 -34.1110 -34.1110
   -34.0854 -34.0854 -34.0848 -34.0848 -34.0711 -34.0710 -34.0706 -34.0706
   -34.0024 -34.0024 -33.9864 -33.9864 -33.9604 -33.9604 -28.2115 -28.2115
   -28.2112 -28.2111 -28.2033 -28.2032 -28.2030 -28.2028 -26.9721 -26.9720
   -26.9717 -26.9717 -26.9635 -26.9634 -26.9631 -26.9630 -26.9610 -26.9609
   -26.9607 -26.9606 -10.5340 -10.5340 -10.0104 -10.0104  -8.9847  -8.9847
    -6.3403  -6.3403  -5.1754  -5.1754  -0.9784  -0.9781  -0.7409  -0.7406
    -0.4958  -0.4952  -0.1039  -0.1035   0.1696   0.1703   0.3701   0.3707
     0.7902   0.7907   1.3918   1.3921   1.5593   1.5599

     occupation numbers 
     1.0000   1.0000   1.0000   1.0000   1.0000   1.0000   1.0000   1.0000
     1.0000   1.0000   1.0000   1.0000   1.0000   1.0000   1.0000   1.0000
     1.0000   1.0000   1.0000   1.0000   1.0000   1.0000   1.0000   1.0000
     1.0000   1.0000   1.0000   1.0000   1.0000   1.0000   1.0000   1.0000
     1.0000   1.0000   1.0000   1.0000   1.0000   1.0000   1.0000   1.0000
     1.0000   1.0000   1.0000   1.0000   1.0000   1.0000   1.0000   1.0000
     1.0000   1.0000   1.0000   1.0000   1.0000   1.0000   1.0000   1.0000
     1.0000   1.0000   1.0000   1.0000   1.0000   1.0000   1.0000   1.0000
     1.0000   1.0000   1.0000   1.0000   1.0000   1.0000   1.0000   1.0000
     1.0000   1.0000   1.0000   1.0000   1.0000   1.0000

          k = 0.0476 0.1974 0.0000 ( 14817 PWs)   bands (ev):

   -35.5703 -35.5703 -35.5698 -35.5698 -35.5393 -35.5392 -35.5388 -35.5387
   -35.4645 -35.4645 -35.4323 -35.4323 -34.1114 -34.1114 -34.1109 -34.1109
   -34.0854 -34.0854 -34.0848 -34.0848 -34.0710 -34.0710 -34.0706 -34.0705
   -34.0024 -34.0024 -33.9864 -33.9864 -33.9603 -33.9603 -28.2114 -28.2114
   -28.2111 -28.2110 -28.2033 -28.2032 -28.2030 -28.2028 -26.9719 -26.9718
   -26.9715 -26.9715 -26.9635 -26.9634 -26.9632 -26.9630 -26.9611 -26.9609
   -26.9608 -26.9606 -10.4182 -10.4182  -9.9056  -9.9056  -8.9258  -8.9258
    -6.3738  -6.3738  -5.3647  -5.3647  -1.3801  -1.3798  -0.9412  -0.9411
    -0.7818  -0.7816  -0.3475  -0.3468  -0.0535  -0.0527   0.2304   0.2309
     0.7645   0.7649   1.2200   1.2203   1.6352   1.6356

     occupation numbers 
     1.0000   1.0000   1.0000   1.0000   1.0000   1.0000   1.0000   1.0000
     1.0000   1.0000   1.0000   1.0000   1.0000   1.0000   1.0000   1.0000
     1.0000   1.0000   1.0000   1.0000   1.0000   1.0000   1.0000   1.0000
     1.0000   1.0000   1.0000   1.0000   1.0000   1.0000   1.0000   1.0000
     1.0000   1.0000   1.0000   1.0000   1.0000   1.0000   1.0000   1.0000
     1.0000   1.0000   1.0000   1.0000   1.0000   1.0000   1.0000   1.0000
     1.0000   1.0000   1.0000   1.0000   1.0000   1.0000   1.0000   1.0000
     1.0000   1.0000   1.0000   1.0000   1.0000   1.0000   1.0000   1.0000
     1.0000   1.0000   1.0000   1.0000   1.0000   1.0000   1.0000   1.0000
     1.0000   1.0000   1.0000   1.0000   1.0000   1.0000

          k = 0.0476 0.2540 0.0000 ( 14796 PWs)   bands (ev):

   -35.5703 -35.5703 -35.5698 -35.5697 -35.5393 -35.5392 -35.5387 -35.5387
   -35.4645 -35.4645 -35.4323 -35.4323 -34.1113 -34.1113 -34.1108 -34.1108
   -34.0854 -34.0854 -34.0848 -34.0848 -34.0710 -34.0709 -34.0705 -34.0705
   -34.0024 -34.0024 -33.9864 -33.9864 -33.9602 -33.9602 -28.2113 -28.2113
   -28.2110 -28.2109 -28.2034 -28.2032 -28.2030 -28.2029 -26.9716 -26.9716
   -26.9713 -26.9712 -26.9636 -26.9634 -26.9632 -26.9631 -26.9611 -26.9609
   -26.9608 -26.9606 -10.2660 -10.2660  -9.7698  -9.7698  -8.8553  -8.8553
    -6.4350  -6.4349  -5.6040  -5.6040  -1.7923  -1.7921  -1.2152  -1.2150
    -0.9517  -0.9513  -0.5914  -0.5904  -0.3032  -0.3025   0.1503   0.1505
     0.6925   0.6926   0.9825   0.9828   1.6537   1.6541

     occupation numbers 
     1.0000   1.0000   1.0000   1.0000   1.0000   1.0000   1.0000   1.0000
     1.0000   1.0000   1.0000   1.0000   1.0000   1.0000   1.0000   1.0000
     1.0000   1.0000   1.0000   1.0000   1.0000   1.0000   1.0000   1.0000
     1.0000   1.0000   1.0000   1.0000   1.0000   1.0000   1.0000   1.0000
     1.0000   1.0000   1.0000   1.0000   1.0000   1.0000   1.0000   1.0000
     1.0000   1.0000   1.0000   1.0000   1.0000   1.0000   1.0000   1.0000
     1.0000   1.0000   1.0000   1.0000   1.0000   1.0000   1.0000   1.0000
     1.0000   1.0000   1.0000   1.0000   1.0000   1.0000   1.0000   1.0000
     1.0000   1.0000   1.0000   1.0000   1.0000   1.0000   1.0000   1.0000
     1.0000   1.0000   1.0000   1.0000   1.0000   1.0000

          k = 0.0476 0.3107 0.0000 ( 14799 PWs)   bands (ev):

   -35.5702 -35.5702 -35.5697 -35.5697 -35.5392 -35.5392 -35.5387 -35.5387
   -35.4645 -35.4645 -35.4322 -35.4322 -34.1112 -34.1112 -34.1107 -34.1107
   -34.0854 -34.0854 -34.0848 -34.0848 -34.0709 -34.0709 -34.0705 -34.0704
   -34.0024 -34.0024 -33.9864 -33.9864 -33.9601 -33.9601 -28.2112 -28.2111
   -28.2109 -28.2108 -28.2034 -28.2033 -28.2031 -28.2029 -26.9714 -26.9713
   -26.9711 -26.9710 -26.9636 -26.9634 -26.9633 -26.9631 -26.9611 -26.9609
   -26.9608 -26.9606 -10.0803 -10.0803  -9.6076  -9.6076  -8.7813  -8.7813
    -6.5355  -6.5355  -5.8755  -5.8755  -2.1692  -2.1690  -1.4597  -1.4595
    -1.1097  -1.1092  -0.8232  -0.8222  -0.4901  -0.4895   0.0642   0.0644
     0.5211   0.5215   0.8654   0.8656   1.5605   1.5609

     occupation numbers 
     1.0000   1.0000   1.0000   1.0000   1.0000   1.0000   1.0000   1.0000
     1.0000   1.0000   1.0000   1.0000   1.0000   1.0000   1.0000   1.0000
     1.0000   1.0000   1.0000   1.0000   1.0000   1.0000   1.0000   1.0000
     1.0000   1.0000   1.0000   1.0000   1.0000   1.0000   1.0000   1.0000
     1.0000   1.0000   1.0000   1.0000   1.0000   1.0000   1.0000   1.0000
     1.0000   1.0000   1.0000   1.0000   1.0000   1.0000   1.0000   1.0000
     1.0000   1.0000   1.0000   1.0000   1.0000   1.0000   1.0000   1.0000
     1.0000   1.0000   1.0000   1.0000   1.0000   1.0000   1.0000   1.0000
     1.0000   1.0000   1.0000   1.0000   1.0000   1.0000   1.0000   1.0000
     1.0000   1.0000   1.0000   1.0000   1.0000   1.0000

          k = 0.0476 0.3673 0.0000 ( 14798 PWs)   bands (ev):

   -35.5701 -35.5701 -35.5696 -35.5696 -35.5392 -35.5392 -35.5387 -35.5387
   -35.4645 -35.4645 -35.4321 -35.4321 -34.1111 -34.1111 -34.1106 -34.1106
   -34.0854 -34.0854 -34.0848 -34.0848 -34.0709 -34.0708 -34.0704 -34.0703
   -34.0023 -34.0023 -33.9864 -33.9864 -33.9600 -33.9600 -28.2111 -28.2110
   -28.2108 -28.2106 -28.2035 -28.2033 -28.2031 -28.2029 -26.9712 -26.9711
   -26.9709 -26.9708 -26.9637 -26.9635 -26.9633 -26.9632 -26.9611 -26.9609
   -26.9607 -26.9605  -9.8652  -9.8652  -9.4261  -9.4261  -8.7158  -8.7158
    -6.6843  -6.6843  -6.1526  -6.1526  -2.4885  -2.4884  -1.6472  -1.6470
    -1.2829  -1.2824  -1.0095  -1.0086  -0.6162  -0.6157  -0.0716  -0.0712
     0.3699   0.3705   0.8237   0.8239   1.4009   1.4013

     occupation numbers 
     1.0000   1.0000   1.0000   1.0000   1.0000   1.0000   1.0000   1.0000
     1.0000   1.0000   1.0000   1.0000   1.0000   1.0000   1.0000   1.0000
     1.0000   1.0000   1.0000   1.0000   1.0000   1.0000   1.0000   1.0000
     1.0000   1.0000   1.0000   1.0000   1.0000   1.0000   1.0000   1.0000
     1.0000   1.0000   1.0000   1.0000   1.0000   1.0000   1.0000   1.0000
     1.0000   1.0000   1.0000   1.0000   1.0000   1.0000   1.0000   1.0000
     1.0000   1.0000   1.0000   1.0000   1.0000   1.0000   1.0000   1.0000
     1.0000   1.0000   1.0000   1.0000   1.0000   1.0000   1.0000   1.0000
     1.0000   1.0000   1.0000   1.0000   1.0000   1.0000   1.0000   1.0000
     1.0000   1.0000   1.0000   1.0000   1.0000   1.0000

          k = 0.0476 0.4239 0.0000 ( 14821 PWs)   bands (ev):

   -35.5701 -35.5701 -35.5696 -35.5695 -35.5392 -35.5392 -35.5387 -35.5387
   -35.4645 -35.4645 -35.4321 -35.4321 -34.1110 -34.1110 -34.1105 -34.1105
   -34.0854 -34.0854 -34.0848 -34.0848 -34.0708 -34.0708 -34.0703 -34.0703
   -34.0023 -34.0023 -33.9864 -33.9864 -33.9599 -33.9599 -28.2110 -28.2109
   -28.2106 -28.2105 -28.2035 -28.2033 -28.2031 -28.2030 -26.9710 -26.9709
   -26.9707 -26.9706 -26.9637 -26.9636 -26.9634 -26.9632 -26.9611 -26.9609
   -26.9607 -26.9605  -9.6273  -9.6273  -9.2373  -9.2373  -8.6755  -8.6755
    -6.8773  -6.8773  -6.4054  -6.4054  -2.7415  -2.7414  -1.7699  -1.7697
    -1.4471  -1.4467  -1.1532  -1.1525  -0.7132  -0.7127  -0.2247  -0.2241
     0.2884   0.2891   0.8069   0.8071   1.2302   1.2305

     occupation numbers 
     1.0000   1.0000   1.0000   1.0000   1.0000   1.0000   1.0000   1.0000
     1.0000   1.0000   1.0000   1.0000   1.0000   1.0000   1.0000   1.0000
     1.0000   1.0000   1.0000   1.0000   1.0000   1.0000   1.0000   1.0000
     1.0000   1.0000   1.0000   1.0000   1.0000   1.0000   1.0000   1.0000
     1.0000   1.0000   1.0000   1.0000   1.0000   1.0000   1.0000   1.0000
     1.0000   1.0000   1.0000   1.0000   1.0000   1.0000   1.0000   1.0000
[...]
   -26.9706 -26.9704 -26.9640 -26.9639 -26.9636 -26.9635 -26.9607 -26.9607
   -26.9603 -26.9603  -8.9586  -8.9585  -8.9486  -8.9486  -8.9154  -8.9154
    -7.3340  -7.3340  -6.7975  -6.7975  -3.0707  -3.0707  -1.7918  -1.7909
    -1.6907  -1.6896  -1.3183  -1.3181  -0.8487  -0.8484  -0.3203  -0.3199
     0.2594   0.2599   0.8457   0.8458   1.1073   1.1074

     occupation numbers 
     1.0000   1.0000   1.0000   1.0000   1.0000   1.0000   1.0000   1.0000
     1.0000   1.0000   1.0000   1.0000   1.0000   1.0000   1.0000   1.0000
     1.0000   1.0000   1.0000   1.0000   1.0000   1.0000   1.0000   1.0000
     1.0000   1.0000   1.0000   1.0000   1.0000   1.0000   1.0000   1.0000
     1.0000   1.0000   1.0000   1.0000   1.0000   1.0000   1.0000   1.0000
     1.0000   1.0000   1.0000   1.0000   1.0000   1.0000   1.0000   1.0000
     1.0000   1.0000   1.0000   1.0000   1.0000   1.0000   1.0000   1.0000
     1.0000   1.0000   1.0000   1.0000   1.0000   1.0000   1.0000   1.0000
     1.0000   1.0000   1.0000   1.0000   1.0000   1.0000   1.0000   1.0000
     1.0000   1.0000   1.0000   1.0000   1.0000   1.0000

          k = 0.4762-0.2914 0.0000 ( 14793 PWs)   bands (ev):

   -35.5700 -35.5700 -35.5695 -35.5695 -35.5392 -35.5392 -35.5387 -35.5387
   -35.4644 -35.4644 -35.4320 -35.4320 -34.1109 -34.1109 -34.1104 -34.1104
   -34.0854 -34.0854 -34.0848 -34.0848 -34.0708 -34.0708 -34.0703 -34.0703
   -34.0022 -34.0022 -33.9865 -33.9865 -33.9598 -33.9598 -28.2109 -28.2109
   -28.2106 -28.2106 -28.2034 -28.2034 -28.2030 -28.2030 -26.9709 -26.9708
   -26.9705 -26.9705 -26.9639 -26.9639 -26.9636 -26.9636 -26.9607 -26.9607
   -26.9603 -26.9603  -9.0639  -9.0639  -8.9395  -8.9395  -8.8743  -8.8743
    -7.3163  -7.3163  -6.7635  -6.7635  -3.0745  -3.0745  -1.7773  -1.7770
    -1.6625  -1.6621  -1.2195  -1.2194  -0.8735  -0.8735  -0.2458  -0.2457
     0.1986   0.1988   0.8636   0.8637   1.0859   1.0860

     occupation numbers 
     1.0000   1.0000   1.0000   1.0000   1.0000   1.0000   1.0000   1.0000
     1.0000   1.0000   1.0000   1.0000   1.0000   1.0000   1.0000   1.0000
     1.0000   1.0000   1.0000   1.0000   1.0000   1.0000   1.0000   1.0000
     1.0000   1.0000   1.0000   1.0000   1.0000   1.0000   1.0000   1.0000
     1.0000   1.0000   1.0000   1.0000   1.0000   1.0000   1.0000   1.0000
     1.0000   1.0000   1.0000   1.0000   1.0000   1.0000   1.0000   1.0000
     1.0000   1.0000   1.0000   1.0000   1.0000   1.0000   1.0000   1.0000
     1.0000   1.0000   1.0000   1.0000   1.0000   1.0000   1.0000   1.0000
     1.0000   1.0000   1.0000   1.0000   1.0000   1.0000   1.0000   1.0000
     1.0000   1.0000   1.0000   1.0000   1.0000   1.0000

          k = 0.4762-0.2348 0.0000 ( 14788 PWs)   bands (ev):

   -35.5700 -35.5700 -35.5695 -35.5695 -35.5392 -35.5392 -35.5387 -35.5387
   -35.4644 -35.4644 -35.4320 -35.4320 -34.1109 -34.1109 -34.1104 -34.1104
   -34.0854 -34.0854 -34.0848 -34.0848 -34.0708 -34.0708 -34.0703 -34.0703
   -34.0022 -34.0022 -33.9865 -33.9865 -33.9598 -33.9598 -28.2110 -28.2108
   -28.2106 -28.2105 -28.2034 -28.2034 -28.2030 -28.2030 -26.9709 -26.9708
   -26.9706 -26.9705 -26.9640 -26.9639 -26.9636 -26.9635 -26.9607 -26.9607
   -26.9603 -26.9603  -9.1712  -9.1712  -8.9690  -8.9690  -8.7934  -8.7934
    -7.2724  -7.2724  -6.7504  -6.7504  -3.0320  -3.0319  -1.8316  -1.8314
    -1.6095  -1.6093  -1.3033  -1.3031  -0.8167  -0.8164  -0.3187  -0.3183
     0.2726   0.2733   0.8571   0.8572   1.1281   1.1283

     occupation numbers 
     1.0000   1.0000   1.0000   1.0000   1.0000   1.0000   1.0000   1.0000
     1.0000   1.0000   1.0000   1.0000   1.0000   1.0000   1.0000   1.0000
     1.0000   1.0000   1.0000   1.0000   1.0000   1.0000   1.0000   1.0000
     1.0000   1.0000   1.0000   1.0000   1.0000   1.0000   1.0000   1.0000
     1.0000   1.0000   1.0000   1.0000   1.0000   1.0000   1.0000   1.0000
     1.0000   1.0000   1.0000   1.0000   1.0000   1.0000   1.0000   1.0000
     1.0000   1.0000   1.0000   1.0000   1.0000   1.0000   1.0000   1.0000
     1.0000   1.0000   1.0000   1.0000   1.0000   1.0000   1.0000   1.0000
     1.0000   1.0000   1.0000   1.0000   1.0000   1.0000   1.0000   1.0000
     1.0000   1.0000   1.0000   1.0000   1.0000   1.0000

          k = 0.4762-0.1782 0.0000 ( 14790 PWs)   bands (ev):

   -35.5700 -35.5700 -35.5695 -35.5695 -35.5392 -35.5392 -35.5387 -35.5387
   -35.4644 -35.4644 -35.4320 -35.4320 -34.1109 -34.1109 -34.1104 -34.1104
   -34.0854 -34.0854 -34.0848 -34.0848 -34.0708 -34.0708 -34.0703 -34.0703
   -34.0022 -34.0022 -33.9865 -33.9865 -33.9598 -33.9598 -28.2110 -28.2108
   -28.2107 -28.2105 -28.2034 -28.2033 -28.2031 -28.2030 -26.9710 -26.9707
   -26.9706 -26.9704 -26.9641 -26.9639 -26.9637 -26.9635 -26.9608 -26.9607
   -26.9604 -26.9603  -9.2627  -9.2627  -9.0017  -9.0017  -8.7224  -8.7223
    -7.2072  -7.2072  -6.7595  -6.7595  -2.9471  -2.9470  -1.8642  -1.8638
    -1.6738  -1.6732  -1.4274  -1.4269  -0.7464  -0.7463  -0.4425  -0.4421
     0.3602   0.3609   0.8380   0.8382   1.2833   1.2835

     occupation numbers 
     1.0000   1.0000   1.0000   1.0000   1.0000   1.0000   1.0000   1.0000
     1.0000   1.0000   1.0000   1.0000   1.0000   1.0000   1.0000   1.0000
     1.0000   1.0000   1.0000   1.0000   1.0000   1.0000   1.0000   1.0000
     1.0000   1.0000   1.0000   1.0000   1.0000   1.0000   1.0000   1.0000
     1.0000   1.0000   1.0000   1.0000   1.0000   1.0000   1.0000   1.0000
     1.0000   1.0000   1.0000   1.0000   1.0000   1.0000   1.0000   1.0000
     1.0000   1.0000   1.0000   1.0000   1.0000   1.0000   1.0000   1.0000
     1.0000   1.0000   1.0000   1.0000   1.0000   1.0000   1.0000   1.0000
     1.0000   1.0000   1.0000   1.0000   1.0000   1.0000   1.0000   1.0000
     1.0000   1.0000   1.0000   1.0000   1.0000   1.0000

          k = 0.4762-0.1215 0.0000 ( 14779 PWs)   bands (ev):

   -35.5701 -35.5700 -35.5696 -35.5695 -35.5392 -35.5392 -35.5387 -35.5387
   -35.4644 -35.4644 -35.4320 -35.4320 -34.1109 -34.1109 -34.1104 -34.1104
   -34.0854 -34.0853 -34.0848 -34.0848 -34.0708 -34.0708 -34.0703 -34.0703
   -34.0022 -34.0022 -33.9865 -33.9865 -33.9598 -33.9598 -28.2111 -28.2108
   -28.2107 -28.2105 -28.2034 -28.2033 -28.2031 -28.2029 -26.9710 -26.9707
   -26.9707 -26.9704 -26.9641 -26.9639 -26.9637 -26.9634 -26.9608 -26.9607
   -26.9604 -26.9603  -9.3330  -9.3330  -9.0320  -9.0320  -8.6687  -8.6687
    -7.1297  -7.1296  -6.7900  -6.7900  -2.8247  -2.8246  -2.0013  -2.0010
    -1.6958  -1.6951  -1.4969  -1.4964  -0.8039  -0.8033  -0.5091  -0.5087
     0.4393   0.4399   0.8979   0.8982   1.4039   1.4041

     occupation numbers 
     1.0000   1.0000   1.0000   1.0000   1.0000   1.0000   1.0000   1.0000
     1.0000   1.0000   1.0000   1.0000   1.0000   1.0000   1.0000   1.0000
     1.0000   1.0000   1.0000   1.0000   1.0000   1.0000   1.0000   1.0000
     1.0000   1.0000   1.0000   1.0000   1.0000   1.0000   1.0000   1.0000
     1.0000   1.0000   1.0000   1.0000   1.0000   1.0000   1.0000   1.0000
     1.0000   1.0000   1.0000   1.0000   1.0000   1.0000   1.0000   1.0000
     1.0000   1.0000   1.0000   1.0000   1.0000   1.0000   1.0000   1.0000
     1.0000   1.0000   1.0000   1.0000   1.0000   1.0000   1.0000   1.0000
     1.0000   1.0000   1.0000   1.0000   1.0000   1.0000   1.0000   1.0000
     1.0000   1.0000   1.0000   1.0000   1.0000   1.0000

          k = 0.4762-0.0649 0.0000 ( 14753 PWs)   bands (ev):

   -35.5701 -35.5700 -35.5696 -35.5695 -35.5392 -35.5392 -35.5387 -35.5387
   -35.4644 -35.4644 -35.4321 -35.4321 -34.1110 -34.1109 -34.1105 -34.1104
   -34.0854 -34.0853 -34.0848 -34.0848 -34.0708 -34.0708 -34.0703 -34.0703
   -34.0022 -34.0022 -33.9865 -33.9865 -33.9599 -33.9599 -28.2112 -28.2109
   -28.2108 -28.2105 -28.2034 -28.2033 -28.2031 -28.2029 -26.9710 -26.9707
   -26.9707 -26.9703 -26.9642 -26.9639 -26.9637 -26.9634 -26.9608 -26.9607
   -26.9605 -26.9603  -9.3786  -9.3786  -9.0552  -9.0552  -8.6378  -8.6378
    -7.0559  -7.0558  -6.8341  -6.8340  -2.6671  -2.6670  -2.2347  -2.2346
    -1.6227  -1.6222  -1.4826  -1.4821  -1.0194  -1.0190  -0.4875  -0.4873
     0.5384   0.5389   1.0119   1.0122   1.3706   1.3707

     occupation numbers 
     1.0000   1.0000   1.0000   1.0000   1.0000   1.0000   1.0000   1.0000
     1.0000   1.0000   1.0000   1.0000   1.0000   1.0000   1.0000   1.0000
     1.0000   1.0000   1.0000   1.0000   1.0000   1.0000   1.0000   1.0000
     1.0000   1.0000   1.0000   1.0000   1.0000   1.0000   1.0000   1.0000
     1.0000   1.0000   1.0000   1.0000   1.0000   1.0000   1.0000   1.0000
     1.0000   1.0000   1.0000   1.0000   1.0000   1.0000   1.0000   1.0000
     1.0000   1.0000   1.0000   1.0000   1.0000   1.0000   1.0000   1.0000
     1.0000   1.0000   1.0000   1.0000   1.0000   1.0000   1.0000   1.0000
     1.0000   1.0000   1.0000   1.0000   1.0000   1.0000   1.0000   1.0000
     1.0000   1.0000   1.0000   1.0000   1.0000   1.0000

          k = 0.4762-0.0082 0.0000 ( 14746 PWs)   bands (ev):

   -35.5701 -35.5700 -35.5696 -35.5695 -35.5392 -35.5392 -35.5387 -35.5387
   -35.4644 -35.4644 -35.4321 -35.4321 -34.1110 -34.1109 -34.1105 -34.1104
   -34.0854 -34.0853 -34.0848 -34.0848 -34.0708 -34.0708 -34.0704 -34.0703
   -34.0022 -34.0022 -33.9865 -33.9865 -33.9599 -33.9599 -28.2112 -28.2109
   -28.2108 -28.2105 -28.2034 -28.2033 -28.2031 -28.2029 -26.9711 -26.9707
   -26.9707 -26.9704 -26.9642 -26.9639 -26.9637 -26.9634 -26.9608 -26.9607
   -26.9605 -26.9603  -9.3976  -9.3976  -9.0682  -9.0682  -8.6326  -8.6326
    -7.0260  -7.0259  -6.8572  -6.8572  -2.5230  -2.5228  -2.4065  -2.4064
    -1.6069  -1.6066  -1.3714  -1.3710  -1.1828  -1.1824  -0.4735  -0.4734
     0.5956   0.5959   1.1116   1.1119   1.2953   1.2955

     occupation numbers 
     1.0000   1.0000   1.0000   1.0000   1.0000   1.0000   1.0000   1.0000
     1.0000   1.0000   1.0000   1.0000   1.0000   1.0000   1.0000   1.0000
     1.0000   1.0000   1.0000   1.0000   1.0000   1.0000   1.0000   1.0000
     1.0000   1.0000   1.0000   1.0000   1.0000   1.0000   1.0000   1.0000
     1.0000   1.0000   1.0000   1.0000   1.0000   1.0000   1.0000   1.0000
     1.0000   1.0000   1.0000   1.0000   1.0000   1.0000   1.0000   1.0000
     1.0000   1.0000   1.0000   1.0000   1.0000   1.0000   1.0000   1.0000
     1.0000   1.0000   1.0000   1.0000   1.0000   1.0000   1.0000   1.0000
     1.0000   1.0000   1.0000   1.0000   1.0000   1.0000   1.0000   1.0000
     1.0000   1.0000   1.0000   1.0000   1.0000   1.0000

          k = 0.4762 0.0484 0.0000 ( 14769 PWs)   bands (ev):

   -35.5701 -35.5700 -35.5696 -35.5695 -35.5392 -35.5392 -35.5387 -35.5387
   -35.4644 -35.4644 -35.4321 -35.4321 -34.1110 -34.1109 -34.1105 -34.1104
   -34.0854 -34.0853 -34.0848 -34.0848 -34.0708 -34.0708 -34.0704 -34.0703
   -34.0022 -34.0022 -33.9865 -33.9865 -33.9599 -33.9599 -28.2112 -28.2109
   -28.2108 -28.2105 -28.2034 -28.2033 -28.2031 -28.2029 -26.9711 -26.9708
   -26.9707 -26.9704 -26.9642 -26.9639 -26.9637 -26.9634 -26.9608 -26.9607
   -26.9605 -26.9603  -9.3892  -9.3892  -9.0696  -9.0696  -8.6532  -8.6532
    -7.0751  -7.0751  -6.8259  -6.8259  -2.6726  -2.6725  -2.2194  -2.2193
    -1.6058  -1.6051  -1.4710  -1.4702  -1.0048  -1.0044  -0.4748  -0.4746
     0.5593   0.5597   1.0367   1.0369   1.4087   1.4088

     occupation numbers 
     1.0000   1.0000   1.0000   1.0000   1.0000   1.0000   1.0000   1.0000
     1.0000   1.0000   1.0000   1.0000   1.0000   1.0000   1.0000   1.0000
     1.0000   1.0000   1.0000   1.0000   1.0000   1.0000   1.0000   1.0000
     1.0000   1.0000   1.0000   1.0000   1.0000   1.0000   1.0000   1.0000
     1.0000   1.0000   1.0000   1.0000   1.0000   1.0000   1.0000   1.0000
     1.0000   1.0000   1.0000   1.0000   1.0000   1.0000   1.0000   1.0000
     1.0000   1.0000   1.0000   1.0000   1.0000   1.0000   1.0000   1.0000
     1.0000   1.0000   1.0000   1.0000   1.0000   1.0000   1.0000   1.0000
     1.0000   1.0000   1.0000   1.0000   1.0000   1.0000   1.0000   1.0000
     1.0000   1.0000   1.0000   1.0000   1.0000   1.0000

          k = 0.4762 0.1050 0.0000 ( 14763 PWs)   bands (ev):

   -35.5701 -35.5700 -35.5696 -35.5695 -35.5392 -35.5392 -35.5387 -35.5387
   -35.4644 -35.4644 -35.4321 -35.4321 -34.1110 -34.1109 -34.1105 -34.1104
   -34.0854 -34.0853 -34.0848 -34.0848 -34.0708 -34.0708 -34.0704 -34.0704
   -34.0022 -34.0022 -33.9865 -33.9865 -33.9599 -33.9599 -28.2112 -28.2109
   -28.2109 -28.2106 -28.2034 -28.2033 -28.2030 -28.2029 -26.9711 -26.9709
   -26.9708 -26.9705 -26.9641 -26.9639 -26.9636 -26.9634 -26.9608 -26.9607
   -26.9604 -26.9603  -9.3537  -9.3537  -9.0598  -9.0598  -8.6972  -8.6972
    -7.1551  -7.1550  -6.7849  -6.7848  -2.8264  -2.8264  -1.9945  -1.9944
    -1.6668  -1.6662  -1.4500  -1.4494  -0.8054  -0.8050  -0.4547  -0.4544
     0.4782   0.4788   0.9388   0.9390   1.4853   1.4854

     occupation numbers 
     1.0000   1.0000   1.0000   1.0000   1.0000   1.0000   1.0000   1.0000
     1.0000   1.0000   1.0000   1.0000   1.0000   1.0000   1.0000   1.0000
     1.0000   1.0000   1.0000   1.0000   1.0000   1.0000   1.0000   1.0000
     1.0000   1.0000   1.0000   1.0000   1.0000   1.0000   1.0000   1.0000
     1.0000   1.0000   1.0000   1.0000   1.0000   1.0000   1.0000   1.0000
     1.0000   1.0000   1.0000   1.0000   1.0000   1.0000   1.0000   1.0000
     1.0000   1.0000   1.0000   1.0000   1.0000   1.0000   1.0000   1.0000
     1.0000   1.0000   1.0000   1.0000   1.0000   1.0000   1.0000   1.0000
     1.0000   1.0000   1.0000   1.0000   1.0000   1.0000   1.0000   1.0000
     1.0000   1.0000   1.0000   1.0000   1.0000   1.0000

          k = 0.4762 0.1617 0.0000 ( 14755 PWs)   bands (ev):

   -35.5701 -35.5700 -35.5696 -35.5695 -35.5392 -35.5392 -35.5387 -35.5387
   -35.4644 -35.4644 -35.4321 -35.4321 -34.1110 -34.1109 -34.1105 -34.1104
   -34.0854 -34.0853 -34.0848 -34.0848 -34.0709 -34.0708 -34.0704 -34.0704
   -34.0022 -34.0022 -33.9865 -33.9865 -33.9599 -33.9599 -28.2112 -28.2110
   -28.2109 -28.2106 -28.2034 -28.2033 -28.2030 -28.2029 -26.9712 -26.9710
   -26.9709 -26.9706 -26.9640 -26.9639 -26.9636 -26.9634 -26.9607 -26.9606
   -26.9603 -26.9603  -9.2928  -9.2928  -9.0412  -9.0412  -8.7604  -8.7603
    -7.2339  -7.2339  -6.7591  -6.7591  -2.9467  -2.9466  -1.8734  -1.8733
    -1.6363  -1.6361  -1.3551  -1.3547  -0.7192  -0.7190  -0.3760  -0.3757
     0.4065   0.4071   0.9032   0.9034   1.3893   1.3894

     occupation numbers 
     1.0000   1.0000   1.0000   1.0000   1.0000   1.0000   1.0000   1.0000
     1.0000   1.0000   1.0000   1.0000   1.0000   1.0000   1.0000   1.0000
     1.0000   1.0000   1.0000   1.0000   1.0000   1.0000   1.0000   1.0000
     1.0000   1.0000   1.0000   1.0000   1.0000   1.0000   1.0000   1.0000
     1.0000   1.0000   1.0000   1.0000   1.0000   1.0000   1.0000   1.0000
     1.0000   1.0000   1.0000   1.0000   1.0000   1.0000   1.0000   1.0000
     1.0000   1.0000   1.0000   1.0000   1.0000   1.0000   1.0000   1.0000
     1.0000   1.0000   1.0000   1.0000   1.0000   1.0000   1.0000   1.0000
     1.0000   1.0000   1.0000   1.0000   1.0000   1.0000   1.0000   1.0000
     1.0000   1.0000   1.0000   1.0000   1.0000   1.0000

          k = 0.4762 0.2183 0.0000 ( 14786 PWs)   bands (ev):

   -35.5701 -35.5700 -35.5695 -35.5695 -35.5392 -35.5392 -35.5387 -35.5387
   -35.4644 -35.4644 -35.4321 -35.4321 -34.1110 -34.1109 -34.1105 -34.1104
   -34.0853 -34.0853 -34.0848 -34.0848 -34.0709 -34.0708 -34.0704 -34.0704
   -34.0022 -34.0022 -33.9865 -33.9865 -33.9599 -33.9599 -28.2111 -28.2110
   -28.2108 -28.2107 -28.2033 -28.2033 -28.2030 -28.2029 -26.9712 -26.9711
   -26.9709 -26.9707 -26.9640 -26.9639 -26.9636 -26.9635 -26.9607 -26.9606
   -26.9603 -26.9602  -9.2095  -9.2095  -9.0176  -9.0176  -8.8363  -8.8363
    -7.2984  -7.2983  -6.7533  -6.7533  -3.0299  -3.0299  -1.8351  -1.8349
    -1.5966  -1.5963  -1.2148  -1.2145  -0.7231  -0.7230  -0.2769  -0.2765
     0.3261   0.3267   0.9475   0.9477   1.2333   1.2334

     occupation numbers 
     1.0000   1.0000   1.0000   1.0000   1.0000   1.0000   1.0000   1.0000
     1.0000   1.0000   1.0000   1.0000   1.0000   1.0000   1.0000   1.0000
     1.0000   1.0000   1.0000   1.0000   1.0000   1.0000   1.0000   1.0000
     1.0000   1.0000   1.0000   1.0000   1.0000   1.0000   1.0000   1.0000
     1.0000   1.0000   1.0000   1.0000   1.0000   1.0000   1.0000   1.0000
     1.0000   1.0000   1.0000   1.0000   1.0000   1.0000   1.0000   1.0000
     1.0000   1.0000   1.0000   1.0000   1.0000   1.0000   1.0000   1.0000
     1.0000   1.0000   1.0000   1.0000   1.0000   1.0000   1.0000   1.0000
     1.0000   1.0000   1.0000   1.0000   1.0000   1.0000   1.0000   1.0000
     1.0000   1.0000   1.0000   1.0000   1.0000   1.0000

     highest occupied level (ev):     1.7295

!    total energy              =    -806.57208959 Ry
     estimated scf accuracy    <       0.00000008 Ry

     The total energy is the sum of the following terms:
     one-electron contribution =   -3382.50343885 Ry
     hartree contribution      =    1686.19690951 Ry
     xc contribution           =     -87.15676699 Ry
     ewald contribution        =     976.89120674 Ry

     convergence has been achieved in  14 iterations

     Writing all to output data dir tmp/Sb2Te3-uatsx-c2-soc-3.0.save/ :
     XML data file, charge density, pseudopotentials, collected wavefunctions

     init_run     :     36.44s CPU     19.82s WALL (       1 calls)
     electrons    :   2156.56s CPU   1149.99s WALL (       1 calls)

     Called by init_run:
     wfcinit      :     35.29s CPU     18.67s WALL (       1 calls)
     wfcinit:wfcr :     33.37s CPU     17.35s WALL (     221 calls)
     potinit      :      0.50s CPU      0.47s WALL (       1 calls)
     hinit0       :      0.55s CPU      0.56s WALL (       1 calls)

     Called by electrons:
     c_bands      :   1943.01s CPU   1040.97s WALL (      15 calls)
     sum_band     :    212.38s CPU    108.20s WALL (      15 calls)
     v_of_rho     :      0.61s CPU      0.43s WALL (      15 calls)
     v_h          :      0.06s CPU      0.03s WALL (      15 calls)
     v_xc         :      0.55s CPU      0.40s WALL (      15 calls)
     mix_rho      :      0.31s CPU      0.19s WALL (      15 calls)

     Called by c_bands:
     init_us_2    :     11.51s CPU      5.84s WALL (    6851 calls)
     cegterg      :   1872.55s CPU    992.46s WALL (    3315 calls)

     Called by sum_band:
     sum_band:wei :      0.00s CPU      0.00s WALL (      15 calls)
     sum_band:loo :    212.19s CPU    108.09s WALL (      15 calls)
     sum_band:buf :      3.74s CPU      2.18s WALL (    3315 calls)
     sum_band:ini :      5.53s CPU      2.78s WALL (    3315 calls)

     Called by *egterg:
     cdiaghg      :    239.87s CPU    154.56s WALL (   19549 calls)
     cegterg:over :     80.46s CPU     42.10s WALL (   16455 calls)
     cegterg:upda :     46.10s CPU     21.84s WALL (   16455 calls)
     cegterg:last :     66.95s CPU     33.89s WALL (    8651 calls)
     h_psi        :   1415.30s CPU    725.82s WALL (   19991 calls)
     g_psi        :      6.57s CPU      3.76s WALL (   16455 calls)

     Called by h_psi:
     h_psi:calbec :     80.41s CPU     39.47s WALL (   19991 calls)
     vloc_psi     :   1249.30s CPU    636.11s WALL (   19991 calls)
     add_vuspsi   :     81.71s CPU     47.98s WALL (   19991 calls)

     General routines
     calbec       :     80.28s CPU     39.42s WALL (   19991 calls)
     fft          :      1.30s CPU      1.06s WALL (     349 calls)
     ffts         :      0.48s CPU      0.45s WALL (     120 calls)
     fftw         :   1063.00s CPU    541.50s WALL ( 3678912 calls)
     interpolate  :      0.58s CPU      0.51s WALL (      60 calls)

     Parallel routines

     PWSCF        :  36m46.67s CPU  20m55.15s WALL


   This run was terminated on:  16:43:56  14Aug2025            

=------------------------------------------------------------------------------=
   JOB DONE.
=------------------------------------------------------------------------------=
