
     Program PWSCF v.7.4.1 starts on 14Aug2025 at 19:46:38 

     This program is part of the open-source Quantum ESPRESSO suite
     for quantum simulation of materials; please cite
         "P. Giannozzi et al., J. Phys.:Condens. Matter 21 395502 (2009);
         "P. Giannozzi et al., J. Phys.:Condens. Matter 29 465901 (2017);
         "P. Giannozzi et al., J. Chem. Phys. 152 154105 (2020);
          URL http://www.quantum-espresso.org", 
     in publications or presentations arising from this work. More details at
     http://www.quantum-espresso.org/quote

     Parallel version (MPI & OpenMP), running on      48 processor cores
     Number of MPI processes:                24
     Threads/MPI process:                     2

     MPI processes distributed on     2 nodes
     124119 MiB available memory on the printing compute node when the environment starts

     Waiting for input...
     Reading input from standard input

     Current dimensions of program PWSCF are:
     Max number of different atomic species (ntypx) = 10
     Max number of k-points (npk) =  40000
     Max angular momentum in pseudopotentials (lmaxx) =  4
Error reading attribute index: expected integer, found *
Error reading attribute index: expected integer, found *

     IMPORTANT: XC functional enforced from input :
     Exchange-correlation= PBE
                           (   1   4   3   4   0   0   0)
     Any further DFT definition will be discarded
     Please, verify this is what you really want

     Message from routine setup:
     no reason to have ecutrho>4*ecutwfc

     R & G space division:  proc/nbgrp/npool/nimage =      24
     Subspace diagonalization in iterative solution of the eigenvalue problem:
     a serial algorithm will be used


     Parallelization info
     --------------------
     sticks:   dense  smooth     PW     G-vecs:    dense   smooth      PW
     Min          94      38     11                18908     4792     737
     Max          95      39     12                18933     4815     761
     Sum        2275     925    265               454177   115133   17989

     Using Slab Decomposition



     bravais-lattice index     =            0
     lattice parameter (alat)  =       8.1456  a.u.
     unit-cell volume          =    2407.5243 (a.u.)^3
     number of atoms/cell      =            5
     number of atomic types    =            2
     number of electrons       =        78.00
     number of Kohn-Sham states=           78
     kinetic-energy cutoff     =      50.0000  Ry
     charge density cutoff     =     500.0000  Ry
     scf convergence threshold =      1.0E-07
     mixing beta               =       0.7000
     number of iterations used =            8  plain     mixing
     Exchange-correlation= PBE
                           (   1   4   3   4   0   0   0)
     Non magnetic calculation with spin-orbit


     celldm(1)=   8.145633  celldm(2)=   0.000000  celldm(3)=   0.000000
     celldm(4)=   0.000000  celldm(5)=   0.000000  celldm(6)=   0.000000

     crystal axes: (cart. coord. in units of alat)
               a(1) = (   1.000000   0.000000   0.000000 )  
               a(2) = (  -0.500000   0.866351   0.000000 )  
               a(3) = (   0.000000   0.000000   5.141647 )  

     reciprocal axes: (cart. coord. in units 2 pi/alat)
               b(1) = (  1.000000  0.577133 -0.000000 )  
               b(2) = (  0.000000  1.154267  0.000000 )  
               b(3) = (  0.000000 -0.000000  0.194490 )  


     PseudoPot. # 1 for Sb read from file:
     /zfs-home/202401017n1/pseudos/Sb_ONCV_PBE_FR-1.1.upf
     MD5 check sum: 7dc1726f2158e3c51e4807d42b9c5c65
     Pseudo is Norm-conserving, Zval = 15.0
     Generated using ONCVPSP code by D. R. Hamann
     Using radial grid of  602 points, 10 beta functions with: 
                l(1) =   0
                l(2) =   0
                l(3) =   1
                l(4) =   1
                l(5) =   1
                l(6) =   1
                l(7) =   2
                l(8) =   2
                l(9) =   2
               l(10) =   2

     PseudoPot. # 2 for Te read from file:
     /zfs-home/202401017n1/pseudos/Te_ONCV_PBE_FR-1.1.upf
     MD5 check sum: c6e17480449037a9a9d16e6377b5c7c4
     Pseudo is Norm-conserving, Zval = 16.0
     Generated using ONCVPSP code by D. R. Hamann
     Using radial grid of  602 points, 10 beta functions with: 
                l(1) =   0
                l(2) =   0
                l(3) =   1
                l(4) =   1
                l(5) =   1
                l(6) =   1
                l(7) =   2
                l(8) =   2
                l(9) =   2
               l(10) =   2

     atomic species   valence    mass     pseudopotential
     Sb               15.00   121.76000     Sb( 1.00)
     Te               16.00   127.60000     Te( 1.00)

     No symmetry found


                                    s                        frac. trans.

      isym =  1     identity                                     

 cryst.   s( 1) = (     1          0          0      )
                  (     0          1          0      )
                  (     0          0          1      )

 cart.    s( 1) = (  1.0000000  0.0000000  0.0000000 )
                  (  0.0000000  1.0000000  0.0000000 )
                  (  0.0000000  0.0000000  1.0000000 )


   Cartesian axes

     site n.     atom                  positions (alat units)
         1        Sb     tau(   1) = (   0.5754431   0.4220521   3.0333851  )
         2        Te     tau(   2) = (   0.5747551   0.4223309   1.7144876  )
         3        Sb     tau(   3) = (   0.0752910   0.1326355   2.1082148  )
         4        Te     tau(   4) = (   0.0751205   0.1338578   3.4271228  )
         5        Te     tau(   5) = (   0.0748618   0.7114055   2.5708084  )

     -------------------------------------------------
     Parameters for Dispersion (Grimme-D2) Correction:
     -------------------------------------------------
       atom      VdW radius       C_6     

        Sb         3.555       1333.532
        Te         3.575       1101.101

   Crystallographic axes

     site n.     atom                  positions (cryst. coord.)
         1        Sb     tau(   1) = (  0.8190235  0.4871607  0.5899637  )
         2        Te     tau(   2) = (  0.8184963  0.4874825  0.3334511  )
         3        Sb     tau(   3) = (  0.1518394  0.1530967  0.4100271  )
         4        Te     tau(   4) = (  0.1523743  0.1545076  0.6665418  )
         5        Te     tau(   5) = (  0.4854376  0.8211517  0.4999971  )

     number of k points=   221
                       cart. coord. in units 2pi/alat
        k(    1) = (   0.0000000   0.0000000   0.0000000), wk =   0.0022676
        k(    2) = (   0.0000000   0.0549651   0.0000000), wk =   0.0045351
        k(    3) = (   0.0000000   0.1099302   0.0000000), wk =   0.0045351
        k(    4) = (   0.0000000   0.1648952   0.0000000), wk =   0.0045351
        k(    5) = (   0.0000000   0.2198603   0.0000000), wk =   0.0045351
        k(    6) = (   0.0000000   0.2748254   0.0000000), wk =   0.0045351
        k(    7) = (   0.0000000   0.3297905   0.0000000), wk =   0.0045351
        k(    8) = (   0.0000000   0.3847556   0.0000000), wk =   0.0045351
        k(    9) = (   0.0000000   0.4397206   0.0000000), wk =   0.0045351
        k(   10) = (   0.0000000   0.4946857   0.0000000), wk =   0.0045351
        k(   11) = (   0.0000000   0.5496508   0.0000000), wk =   0.0045351
        k(   12) = (   0.0476190   0.0274825   0.0000000), wk =   0.0045351
        k(   13) = (   0.0476190   0.0824476   0.0000000), wk =   0.0045351
        k(   14) = (   0.0476190   0.1374127   0.0000000), wk =   0.0045351
        k(   15) = (   0.0476190   0.1923778   0.0000000), wk =   0.0045351
        k(   16) = (   0.0476190   0.2473429   0.0000000), wk =   0.0045351
        k(   17) = (   0.0476190   0.3023079   0.0000000), wk =   0.0045351
        k(   18) = (   0.0476190   0.3572730   0.0000000), wk =   0.0045351
        k(   19) = (   0.0476190   0.4122381   0.0000000), wk =   0.0045351
        k(   20) = (   0.0476190   0.4672032   0.0000000), wk =   0.0045351
        k(   21) = (   0.0476190   0.5221682   0.0000000), wk =   0.0045351
        k(   22) = (   0.0476190   0.5771333   0.0000000), wk =   0.0045351
        k(   23) = (   0.0952381   0.0549651   0.0000000), wk =   0.0045351
        k(   24) = (   0.0952381   0.1099302   0.0000000), wk =   0.0045351
        k(   25) = (   0.0952381   0.1648952   0.0000000), wk =   0.0045351
        k(   26) = (   0.0952381   0.2198603   0.0000000), wk =   0.0045351
        k(   27) = (   0.0952381   0.2748254   0.0000000), wk =   0.0045351
        k(   28) = (   0.0952381   0.3297905   0.0000000), wk =   0.0045351
        k(   29) = (   0.0952381   0.3847556   0.0000000), wk =   0.0045351
        k(   30) = (   0.0952381   0.4397206   0.0000000), wk =   0.0045351
        k(   31) = (   0.0952381   0.4946857   0.0000000), wk =   0.0045351
        k(   32) = (   0.0952381   0.5496508   0.0000000), wk =   0.0045351
        k(   33) = (   0.0952381  -0.0000000   0.0000000), wk =   0.0045351
        k(   34) = (   0.1428571   0.0824476   0.0000000), wk =   0.0045351
        k(   35) = (   0.1428571   0.1374127   0.0000000), wk =   0.0045351
        k(   36) = (   0.1428571   0.1923778   0.0000000), wk =   0.0045351
        k(   37) = (   0.1428571   0.2473429   0.0000000), wk =   0.0045351
        k(   38) = (   0.1428571   0.3023079   0.0000000), wk =   0.0045351
        k(   39) = (   0.1428571   0.3572730   0.0000000), wk =   0.0045351
        k(   40) = (   0.1428571   0.4122381   0.0000000), wk =   0.0045351
        k(   41) = (   0.1428571   0.4672032   0.0000000), wk =   0.0045351
        k(   42) = (   0.1428571   0.5221682   0.0000000), wk =   0.0045351
        k(   43) = (   0.1428571   0.5771333   0.0000000), wk =   0.0045351
        k(   44) = (   0.1428571  -0.0274825   0.0000000), wk =   0.0045351
        k(   45) = (   0.1904762   0.1099302   0.0000000), wk =   0.0045351
        k(   46) = (   0.1904762   0.1648952   0.0000000), wk =   0.0045351
        k(   47) = (   0.1904762   0.2198603   0.0000000), wk =   0.0045351
        k(   48) = (   0.1904762   0.2748254   0.0000000), wk =   0.0045351
        k(   49) = (   0.1904762   0.3297905   0.0000000), wk =   0.0045351
        k(   50) = (   0.1904762   0.3847556   0.0000000), wk =   0.0045351
        k(   51) = (   0.1904762   0.4397206   0.0000000), wk =   0.0045351
        k(   52) = (   0.1904762   0.4946857   0.0000000), wk =   0.0045351
        k(   53) = (   0.1904762   0.5496508   0.0000000), wk =   0.0045351
        k(   54) = (   0.1904762  -0.0549651   0.0000000), wk =   0.0045351
        k(   55) = (   0.1904762  -0.0000000   0.0000000), wk =   0.0045351
        k(   56) = (   0.2380952   0.1374127   0.0000000), wk =   0.0045351
        k(   57) = (   0.2380952   0.1923778   0.0000000), wk =   0.0045351
        k(   58) = (   0.2380952   0.2473429   0.0000000), wk =   0.0045351
        k(   59) = (   0.2380952   0.3023079   0.0000000), wk =   0.0045351
        k(   60) = (   0.2380952   0.3572730   0.0000000), wk =   0.0045351
        k(   61) = (   0.2380952   0.4122381   0.0000000), wk =   0.0045351
        k(   62) = (   0.2380952   0.4672032   0.0000000), wk =   0.0045351
        k(   63) = (   0.2380952   0.5221682   0.0000000), wk =   0.0045351
        k(   64) = (   0.2380952   0.5771333   0.0000000), wk =   0.0045351
        k(   65) = (   0.2380952  -0.0824476   0.0000000), wk =   0.0045351
        k(   66) = (   0.2380952  -0.0274825   0.0000000), wk =   0.0045351
        k(   67) = (   0.2857143   0.1648952   0.0000000), wk =   0.0045351
        k(   68) = (   0.2857143   0.2198603   0.0000000), wk =   0.0045351
        k(   69) = (   0.2857143   0.2748254   0.0000000), wk =   0.0045351
        k(   70) = (   0.2857143   0.3297905   0.0000000), wk =   0.0045351
        k(   71) = (   0.2857143   0.3847556   0.0000000), wk =   0.0045351
        k(   72) = (   0.2857143   0.4397206   0.0000000), wk =   0.0045351
        k(   73) = (   0.2857143   0.4946857   0.0000000), wk =   0.0045351
        k(   74) = (   0.2857143   0.5496508   0.0000000), wk =   0.0045351
        k(   75) = (   0.2857143  -0.1099302   0.0000000), wk =   0.0045351
        k(   76) = (   0.2857143  -0.0549651   0.0000000), wk =   0.0045351
        k(   77) = (   0.2857143  -0.0000000   0.0000000), wk =   0.0045351
        k(   78) = (   0.3333333   0.1923778   0.0000000), wk =   0.0045351
        k(   79) = (   0.3333333   0.2473429   0.0000000), wk =   0.0045351
        k(   80) = (   0.3333333   0.3023079   0.0000000), wk =   0.0045351
        k(   81) = (   0.3333333   0.3572730   0.0000000), wk =   0.0045351
        k(   82) = (   0.3333333   0.4122381   0.0000000), wk =   0.0045351
        k(   83) = (   0.3333333   0.4672032   0.0000000), wk =   0.0045351
        k(   84) = (   0.3333333   0.5221682   0.0000000), wk =   0.0045351
        k(   85) = (   0.3333333   0.5771333   0.0000000), wk =   0.0045351
        k(   86) = (   0.3333333  -0.1374127   0.0000000), wk =   0.0045351
        k(   87) = (   0.3333333  -0.0824476   0.0000000), wk =   0.0045351
        k(   88) = (   0.3333333  -0.0274825   0.0000000), wk =   0.0045351
        k(   89) = (   0.3809524   0.2198603   0.0000000), wk =   0.0045351
        k(   90) = (   0.3809524   0.2748254   0.0000000), wk =   0.0045351
        k(   91) = (   0.3809524   0.3297905   0.0000000), wk =   0.0045351
        k(   92) = (   0.3809524   0.3847556   0.0000000), wk =   0.0045351
        k(   93) = (   0.3809524   0.4397206   0.0000000), wk =   0.0045351
        k(   94) = (   0.3809524   0.4946857   0.0000000), wk =   0.0045351
        k(   95) = (   0.3809524   0.5496508   0.0000000), wk =   0.0045351
        k(   96) = (   0.3809524  -0.1648952   0.0000000), wk =   0.0045351
        k(   97) = (   0.3809524  -0.1099302   0.0000000), wk =   0.0045351
        k(   98) = (   0.3809524  -0.0549651   0.0000000), wk =   0.0045351
        k(   99) = (   0.3809524  -0.0000000   0.0000000), wk =   0.0045351
        k(  100) = (   0.4285714   0.2473429   0.0000000), wk =   0.0045351
        k(  101) = (   0.4285714   0.3023079   0.0000000), wk =   0.0045351
        k(  102) = (   0.4285714   0.3572730   0.0000000), wk =   0.0045351
        k(  103) = (   0.4285714   0.4122381   0.0000000), wk =   0.0045351
        k(  104) = (   0.4285714   0.4672032   0.0000000), wk =   0.0045351
        k(  105) = (   0.4285714   0.5221682   0.0000000), wk =   0.0045351
        k(  106) = (   0.4285714   0.5771333   0.0000000), wk =   0.0045351
        k(  107) = (   0.4285714  -0.1923778   0.0000000), wk =   0.0045351
        k(  108) = (   0.4285714  -0.1374127   0.0000000), wk =   0.0045351
        k(  109) = (   0.4285714  -0.0824476   0.0000000), wk =   0.0045351
        k(  110) = (   0.4285714  -0.0274825   0.0000000), wk =   0.0045351
        k(  111) = (   0.4761905   0.2748254   0.0000000), wk =   0.0045351
        k(  112) = (   0.4761905   0.3297905   0.0000000), wk =   0.0045351
        k(  113) = (   0.4761905   0.3847556   0.0000000), wk =   0.0045351
        k(  114) = (   0.4761905   0.4397206   0.0000000), wk =   0.0045351
        k(  115) = (   0.4761905   0.4946857   0.0000000), wk =   0.0045351
        k(  116) = (   0.4761905   0.5496508   0.0000000), wk =   0.0045351
        k(  117) = (   0.4761905  -0.2198603   0.0000000), wk =   0.0045351
        k(  118) = (   0.4761905  -0.1648952   0.0000000), wk =   0.0045351
        k(  119) = (   0.4761905  -0.1099302   0.0000000), wk =   0.0045351
        k(  120) = (   0.4761905  -0.0549651   0.0000000), wk =   0.0045351
        k(  121) = (   0.4761905  -0.0000000   0.0000000), wk =   0.0045351
        k(  122) = (  -0.0476190   0.0274825   0.0000000), wk =   0.0045351
        k(  123) = (  -0.0476190   0.0824476   0.0000000), wk =   0.0045351
        k(  124) = (  -0.0476190   0.1374127   0.0000000), wk =   0.0045351
        k(  125) = (  -0.0476190   0.1923778   0.0000000), wk =   0.0045351
        k(  126) = (  -0.0476190   0.2473429   0.0000000), wk =   0.0045351
        k(  127) = (  -0.0476190   0.3023079   0.0000000), wk =   0.0045351
        k(  128) = (  -0.0476190   0.3572730   0.0000000), wk =   0.0045351
        k(  129) = (  -0.0476190   0.4122381   0.0000000), wk =   0.0045351
        k(  130) = (  -0.0476190   0.4672032   0.0000000), wk =   0.0045351
        k(  131) = (  -0.0476190   0.5221682   0.0000000), wk =   0.0045351
        k(  132) = (  -0.0952381   0.0549651   0.0000000), wk =   0.0045351
        k(  133) = (  -0.0952381   0.1099302   0.0000000), wk =   0.0045351
        k(  134) = (  -0.0952381   0.1648952   0.0000000), wk =   0.0045351
        k(  135) = (  -0.0952381   0.2198603   0.0000000), wk =   0.0045351
        k(  136) = (  -0.0952381   0.2748254   0.0000000), wk =   0.0045351
        k(  137) = (  -0.0952381   0.3297905   0.0000000), wk =   0.0045351
        k(  138) = (  -0.0952381   0.3847556   0.0000000), wk =   0.0045351
        k(  139) = (  -0.0952381   0.4397206   0.0000000), wk =   0.0045351
        k(  140) = (  -0.0952381   0.4946857   0.0000000), wk =   0.0045351
        k(  141) = (  -0.0952381   0.5496508   0.0000000), wk =   0.0045351
        k(  142) = (  -0.1428571   0.0824476   0.0000000), wk =   0.0045351
        k(  143) = (  -0.1428571   0.1374127   0.0000000), wk =   0.0045351
        k(  144) = (  -0.1428571   0.1923778   0.0000000), wk =   0.0045351
        k(  145) = (  -0.1428571   0.2473429   0.0000000), wk =   0.0045351
        k(  146) = (  -0.1428571   0.3023079   0.0000000), wk =   0.0045351
        k(  147) = (  -0.1428571   0.3572730   0.0000000), wk =   0.0045351
        k(  148) = (  -0.1428571   0.4122381   0.0000000), wk =   0.0045351
        k(  149) = (  -0.1428571   0.4672032   0.0000000), wk =   0.0045351
        k(  150) = (  -0.1428571   0.5221682   0.0000000), wk =   0.0045351
        k(  151) = (  -0.1428571  -0.0274825   0.0000000), wk =   0.0045351
        k(  152) = (  -0.1904762   0.1099302   0.0000000), wk =   0.0045351
        k(  153) = (  -0.1904762   0.1648952   0.0000000), wk =   0.0045351
        k(  154) = (  -0.1904762   0.2198603   0.0000000), wk =   0.0045351
        k(  155) = (  -0.1904762   0.2748254   0.0000000), wk =   0.0045351
        k(  156) = (  -0.1904762   0.3297905   0.0000000), wk =   0.0045351
        k(  157) = (  -0.1904762   0.3847556   0.0000000), wk =   0.0045351
        k(  158) = (  -0.1904762   0.4397206   0.0000000), wk =   0.0045351
        k(  159) = (  -0.1904762   0.4946857   0.0000000), wk =   0.0045351
        k(  160) = (  -0.1904762   0.5496508   0.0000000), wk =   0.0045351
        k(  161) = (  -0.1904762  -0.0549651   0.0000000), wk =   0.0045351
        k(  162) = (  -0.2380952   0.1374127   0.0000000), wk =   0.0045351
        k(  163) = (  -0.2380952   0.1923778   0.0000000), wk =   0.0045351
        k(  164) = (  -0.2380952   0.2473429   0.0000000), wk =   0.0045351
        k(  165) = (  -0.2380952   0.3023079   0.0000000), wk =   0.0045351
        k(  166) = (  -0.2380952   0.3572730   0.0000000), wk =   0.0045351
        k(  167) = (  -0.2380952   0.4122381   0.0000000), wk =   0.0045351
        k(  168) = (  -0.2380952   0.4672032   0.0000000), wk =   0.0045351
        k(  169) = (  -0.2380952   0.5221682   0.0000000), wk =   0.0045351
        k(  170) = (  -0.2380952  -0.0824476   0.0000000), wk =   0.0045351
        k(  171) = (  -0.2380952  -0.0274825   0.0000000), wk =   0.0045351
        k(  172) = (  -0.2857143   0.1648952   0.0000000), wk =   0.0045351
        k(  173) = (  -0.2857143   0.2198603   0.0000000), wk =   0.0045351
        k(  174) = (  -0.2857143   0.2748254   0.0000000), wk =   0.0045351
        k(  175) = (  -0.2857143   0.3297905   0.0000000), wk =   0.0045351
        k(  176) = (  -0.2857143   0.3847556   0.0000000), wk =   0.0045351
        k(  177) = (  -0.2857143   0.4397206   0.0000000), wk =   0.0045351
        k(  178) = (  -0.2857143   0.4946857   0.0000000), wk =   0.0045351
        k(  179) = (  -0.2857143   0.5496508   0.0000000), wk =   0.0045351
        k(  180) = (  -0.2857143  -0.1099302   0.0000000), wk =   0.0045351
        k(  181) = (  -0.2857143  -0.0549651   0.0000000), wk =   0.0045351
        k(  182) = (  -0.3333333   0.1923778   0.0000000), wk =   0.0045351
        k(  183) = (  -0.3333333   0.2473429   0.0000000), wk =   0.0045351
        k(  184) = (  -0.3333333   0.3023079   0.0000000), wk =   0.0045351
        k(  185) = (  -0.3333333   0.3572730   0.0000000), wk =   0.0045351
        k(  186) = (  -0.3333333   0.4122381   0.0000000), wk =   0.0045351
        k(  187) = (  -0.3333333   0.4672032   0.0000000), wk =   0.0045351
        k(  188) = (  -0.3333333   0.5221682   0.0000000), wk =   0.0045351
        k(  189) = (  -0.3333333  -0.1374127   0.0000000), wk =   0.0045351
        k(  190) = (  -0.3333333  -0.0824476   0.0000000), wk =   0.0045351
        k(  191) = (  -0.3333333  -0.0274825   0.0000000), wk =   0.0045351
        k(  192) = (  -0.3809524   0.2198603   0.0000000), wk =   0.0045351
        k(  193) = (  -0.3809524   0.2748254   0.0000000), wk =   0.0045351
        k(  194) = (  -0.3809524   0.3297905   0.0000000), wk =   0.0045351
        k(  195) = (  -0.3809524   0.3847556   0.0000000), wk =   0.0045351
        k(  196) = (  -0.3809524   0.4397206   0.0000000), wk =   0.0045351
        k(  197) = (  -0.3809524   0.4946857   0.0000000), wk =   0.0045351
        k(  198) = (  -0.3809524   0.5496508   0.0000000), wk =   0.0045351
        k(  199) = (  -0.3809524  -0.1648952   0.0000000), wk =   0.0045351
        k(  200) = (  -0.3809524  -0.1099302   0.0000000), wk =   0.0045351
        k(  201) = (  -0.3809524  -0.0549651   0.0000000), wk =   0.0045351
        k(  202) = (  -0.4285714   0.2473429   0.0000000), wk =   0.0045351
        k(  203) = (  -0.4285714   0.3023079   0.0000000), wk =   0.0045351
        k(  204) = (  -0.4285714   0.3572730   0.0000000), wk =   0.0045351
        k(  205) = (  -0.4285714   0.4122381   0.0000000), wk =   0.0045351
        k(  206) = (  -0.4285714   0.4672032   0.0000000), wk =   0.0045351
        k(  207) = (  -0.4285714   0.5221682   0.0000000), wk =   0.0045351
        k(  208) = (  -0.4285714  -0.1923778   0.0000000), wk =   0.0045351
        k(  209) = (  -0.4285714  -0.1374127   0.0000000), wk =   0.0045351
        k(  210) = (  -0.4285714  -0.0824476   0.0000000), wk =   0.0045351
        k(  211) = (  -0.4285714  -0.0274825   0.0000000), wk =   0.0045351
        k(  212) = (  -0.4761905   0.2748254   0.0000000), wk =   0.0045351
        k(  213) = (  -0.4761905   0.3297905   0.0000000), wk =   0.0045351
        k(  214) = (  -0.4761905   0.3847556   0.0000000), wk =   0.0045351
        k(  215) = (  -0.4761905   0.4397206   0.0000000), wk =   0.0045351
        k(  216) = (  -0.4761905   0.4946857   0.0000000), wk =   0.0045351
        k(  217) = (  -0.4761905   0.5496508   0.0000000), wk =   0.0045351
        k(  218) = (  -0.4761905  -0.2198603   0.0000000), wk =   0.0045351
        k(  219) = (  -0.4761905  -0.1648952   0.0000000), wk =   0.0045351
        k(  220) = (  -0.4761905  -0.1099302   0.0000000), wk =   0.0045351
        k(  221) = (  -0.4761905  -0.0549651   0.0000000), wk =   0.0045351

                       cryst. coord.
        k(    1) = (   0.0000000   0.0000000   0.0000000), wk =   0.0022676
        k(    2) = (   0.0000000   0.0476190   0.0000000), wk =   0.0045351
        k(    3) = (   0.0000000   0.0952381   0.0000000), wk =   0.0045351
        k(    4) = (   0.0000000   0.1428571   0.0000000), wk =   0.0045351
        k(    5) = (   0.0000000   0.1904762   0.0000000), wk =   0.0045351
        k(    6) = (   0.0000000   0.2380952   0.0000000), wk =   0.0045351
        k(    7) = (   0.0000000   0.2857143   0.0000000), wk =   0.0045351
        k(    8) = (   0.0000000   0.3333333   0.0000000), wk =   0.0045351
        k(    9) = (   0.0000000   0.3809524   0.0000000), wk =   0.0045351
        k(   10) = (   0.0000000   0.4285714   0.0000000), wk =   0.0045351
        k(   11) = (   0.0000000   0.4761905   0.0000000), wk =   0.0045351
        k(   12) = (   0.0476190   0.0000000   0.0000000), wk =   0.0045351
        k(   13) = (   0.0476190   0.0476190   0.0000000), wk =   0.0045351
        k(   14) = (   0.0476190   0.0952381   0.0000000), wk =   0.0045351
        k(   15) = (   0.0476190   0.1428571   0.0000000), wk =   0.0045351
        k(   16) = (   0.0476190   0.1904762   0.0000000), wk =   0.0045351
        k(   17) = (   0.0476190   0.2380952   0.0000000), wk =   0.0045351
        k(   18) = (   0.0476190   0.2857143   0.0000000), wk =   0.0045351
        k(   19) = (   0.0476190   0.3333333   0.0000000), wk =   0.0045351
        k(   20) = (   0.0476190   0.3809524   0.0000000), wk =   0.0045351
        k(   21) = (   0.0476190   0.4285714   0.0000000), wk =   0.0045351
        k(   22) = (   0.0476190   0.4761905   0.0000000), wk =   0.0045351
        k(   23) = (   0.0952381   0.0000000   0.0000000), wk =   0.0045351
        k(   24) = (   0.0952381   0.0476190   0.0000000), wk =   0.0045351
        k(   25) = (   0.0952381   0.0952381   0.0000000), wk =   0.0045351
        k(   26) = (   0.0952381   0.1428571   0.0000000), wk =   0.0045351
        k(   27) = (   0.0952381   0.1904762   0.0000000), wk =   0.0045351
        k(   28) = (   0.0952381   0.2380952   0.0000000), wk =   0.0045351
        k(   29) = (   0.0952381   0.2857143   0.0000000), wk =   0.0045351
        k(   30) = (   0.0952381   0.3333333   0.0000000), wk =   0.0045351
        k(   31) = (   0.0952381   0.3809524   0.0000000), wk =   0.0045351
        k(   32) = (   0.0952381   0.4285714   0.0000000), wk =   0.0045351
        k(   33) = (   0.0952381  -0.0476190   0.0000000), wk =   0.0045351
        k(   34) = (   0.1428571   0.0000000   0.0000000), wk =   0.0045351
        k(   35) = (   0.1428571   0.0476190   0.0000000), wk =   0.0045351
        k(   36) = (   0.1428571   0.0952381   0.0000000), wk =   0.0045351
        k(   37) = (   0.1428571   0.1428571   0.0000000), wk =   0.0045351
        k(   38) = (   0.1428571   0.1904762   0.0000000), wk =   0.0045351
        k(   39) = (   0.1428571   0.2380952   0.0000000), wk =   0.0045351
        k(   40) = (   0.1428571   0.2857143   0.0000000), wk =   0.0045351
        k(   41) = (   0.1428571   0.3333333   0.0000000), wk =   0.0045351
        k(   42) = (   0.1428571   0.3809524   0.0000000), wk =   0.0045351
        k(   43) = (   0.1428571   0.4285714   0.0000000), wk =   0.0045351
        k(   44) = (   0.1428571  -0.0952381   0.0000000), wk =   0.0045351
        k(   45) = (   0.1904762   0.0000000   0.0000000), wk =   0.0045351
        k(   46) = (   0.1904762   0.0476190   0.0000000), wk =   0.0045351
        k(   47) = (   0.1904762   0.0952381   0.0000000), wk =   0.0045351
        k(   48) = (   0.1904762   0.1428571   0.0000000), wk =   0.0045351
        k(   49) = (   0.1904762   0.1904762   0.0000000), wk =   0.0045351
        k(   50) = (   0.1904762   0.2380952   0.0000000), wk =   0.0045351
        k(   51) = (   0.1904762   0.2857143   0.0000000), wk =   0.0045351
        k(   52) = (   0.1904762   0.3333333   0.0000000), wk =   0.0045351
        k(   53) = (   0.1904762   0.3809524   0.0000000), wk =   0.0045351
        k(   54) = (   0.1904762  -0.1428571   0.0000000), wk =   0.0045351
        k(   55) = (   0.1904762  -0.0952381   0.0000000), wk =   0.0045351
        k(   56) = (   0.2380952   0.0000000   0.0000000), wk =   0.0045351
        k(   57) = (   0.2380952   0.0476190   0.0000000), wk =   0.0045351
        k(   58) = (   0.2380952   0.0952381   0.0000000), wk =   0.0045351
        k(   59) = (   0.2380952   0.1428571   0.0000000), wk =   0.0045351
        k(   60) = (   0.2380952   0.1904762   0.0000000), wk =   0.0045351
        k(   61) = (   0.2380952   0.2380952   0.0000000), wk =   0.0045351
        k(   62) = (   0.2380952   0.2857143   0.0000000), wk =   0.0045351
        k(   63) = (   0.2380952   0.3333333   0.0000000), wk =   0.0045351
        k(   64) = (   0.2380952   0.3809524   0.0000000), wk =   0.0045351
        k(   65) = (   0.2380952  -0.1904762   0.0000000), wk =   0.0045351
        k(   66) = (   0.2380952  -0.1428571   0.0000000), wk =   0.0045351
        k(   67) = (   0.2857143   0.0000000   0.0000000), wk =   0.0045351
        k(   68) = (   0.2857143   0.0476190   0.0000000), wk =   0.0045351
        k(   69) = (   0.2857143   0.0952381   0.0000000), wk =   0.0045351
        k(   70) = (   0.2857143   0.1428571   0.0000000), wk =   0.0045351
        k(   71) = (   0.2857143   0.1904762   0.0000000), wk =   0.0045351
        k(   72) = (   0.2857143   0.2380952   0.0000000), wk =   0.0045351
        k(   73) = (   0.2857143   0.2857143   0.0000000), wk =   0.0045351
        k(   74) = (   0.2857143   0.3333333   0.0000000), wk =   0.0045351
        k(   75) = (   0.2857143  -0.2380952   0.0000000), wk =   0.0045351
        k(   76) = (   0.2857143  -0.1904762   0.0000000), wk =   0.0045351
        k(   77) = (   0.2857143  -0.1428571   0.0000000), wk =   0.0045351
        k(   78) = (   0.3333333   0.0000000   0.0000000), wk =   0.0045351
        k(   79) = (   0.3333333   0.0476190   0.0000000), wk =   0.0045351
        k(   80) = (   0.3333333   0.0952381   0.0000000), wk =   0.0045351
        k(   81) = (   0.3333333   0.1428571   0.0000000), wk =   0.0045351
        k(   82) = (   0.3333333   0.1904762   0.0000000), wk =   0.0045351
        k(   83) = (   0.3333333   0.2380952   0.0000000), wk =   0.0045351
        k(   84) = (   0.3333333   0.2857143   0.0000000), wk =   0.0045351
        k(   85) = (   0.3333333   0.3333333   0.0000000), wk =   0.0045351
        k(   86) = (   0.3333333  -0.2857143   0.0000000), wk =   0.0045351
        k(   87) = (   0.3333333  -0.2380952   0.0000000), wk =   0.0045351
        k(   88) = (   0.3333333  -0.1904762   0.0000000), wk =   0.0045351
        k(   89) = (   0.3809524   0.0000000   0.0000000), wk =   0.0045351
        k(   90) = (   0.3809524   0.0476190   0.0000000), wk =   0.0045351
        k(   91) = (   0.3809524   0.0952381   0.0000000), wk =   0.0045351
        k(   92) = (   0.3809524   0.1428571   0.0000000), wk =   0.0045351
        k(   93) = (   0.3809524   0.1904762   0.0000000), wk =   0.0045351
        k(   94) = (   0.3809524   0.2380952   0.0000000), wk =   0.0045351
        k(   95) = (   0.3809524   0.2857143   0.0000000), wk =   0.0045351
        k(   96) = (   0.3809524  -0.3333333   0.0000000), wk =   0.0045351
        k(   97) = (   0.3809524  -0.2857143   0.0000000), wk =   0.0045351
        k(   98) = (   0.3809524  -0.2380952   0.0000000), wk =   0.0045351
        k(   99) = (   0.3809524  -0.1904762   0.0000000), wk =   0.0045351
        k(  100) = (   0.4285714   0.0000000   0.0000000), wk =   0.0045351
        k(  101) = (   0.4285714   0.0476190   0.0000000), wk =   0.0045351
        k(  102) = (   0.4285714   0.0952381   0.0000000), wk =   0.0045351
        k(  103) = (   0.4285714   0.1428571   0.0000000), wk =   0.0045351
        k(  104) = (   0.4285714   0.1904762   0.0000000), wk =   0.0045351
        k(  105) = (   0.4285714   0.2380952   0.0000000), wk =   0.0045351
        k(  106) = (   0.4285714   0.2857143   0.0000000), wk =   0.0045351
        k(  107) = (   0.4285714  -0.3809524   0.0000000), wk =   0.0045351
        k(  108) = (   0.4285714  -0.3333333   0.0000000), wk =   0.0045351
        k(  109) = (   0.4285714  -0.2857143   0.0000000), wk =   0.0045351
        k(  110) = (   0.4285714  -0.2380952   0.0000000), wk =   0.0045351
        k(  111) = (   0.4761905   0.0000000   0.0000000), wk =   0.0045351
        k(  112) = (   0.4761905   0.0476190   0.0000000), wk =   0.0045351
        k(  113) = (   0.4761905   0.0952381   0.0000000), wk =   0.0045351
        k(  114) = (   0.4761905   0.1428571   0.0000000), wk =   0.0045351
        k(  115) = (   0.4761905   0.1904762   0.0000000), wk =   0.0045351
        k(  116) = (   0.4761905   0.2380952   0.0000000), wk =   0.0045351
        k(  117) = (   0.4761905  -0.4285714   0.0000000), wk =   0.0045351
        k(  118) = (   0.4761905  -0.3809524   0.0000000), wk =   0.0045351
        k(  119) = (   0.4761905  -0.3333333   0.0000000), wk =   0.0045351
        k(  120) = (   0.4761905  -0.2857143   0.0000000), wk =   0.0045351
        k(  121) = (   0.4761905  -0.2380952   0.0000000), wk =   0.0045351
        k(  122) = (  -0.0476190   0.0476190   0.0000000), wk =   0.0045351
        k(  123) = (  -0.0476190   0.0952381   0.0000000), wk =   0.0045351
        k(  124) = (  -0.0476190   0.1428571   0.0000000), wk =   0.0045351
        k(  125) = (  -0.0476190   0.1904762   0.0000000), wk =   0.0045351
        k(  126) = (  -0.0476190   0.2380952   0.0000000), wk =   0.0045351
        k(  127) = (  -0.0476190   0.2857143   0.0000000), wk =   0.0045351
        k(  128) = (  -0.0476190   0.3333333   0.0000000), wk =   0.0045351
        k(  129) = (  -0.0476190   0.3809524   0.0000000), wk =   0.0045351
        k(  130) = (  -0.0476190   0.4285714   0.0000000), wk =   0.0045351
        k(  131) = (  -0.0476190   0.4761905   0.0000000), wk =   0.0045351
        k(  132) = (  -0.0952381   0.0952381   0.0000000), wk =   0.0045351
        k(  133) = (  -0.0952381   0.1428571   0.0000000), wk =   0.0045351
        k(  134) = (  -0.0952381   0.1904762   0.0000000), wk =   0.0045351
        k(  135) = (  -0.0952381   0.2380952   0.0000000), wk =   0.0045351
        k(  136) = (  -0.0952381   0.2857143   0.0000000), wk =   0.0045351
        k(  137) = (  -0.0952381   0.3333333   0.0000000), wk =   0.0045351
        k(  138) = (  -0.0952381   0.3809524   0.0000000), wk =   0.0045351
        k(  139) = (  -0.0952381   0.4285714   0.0000000), wk =   0.0045351
        k(  140) = (  -0.0952381   0.4761905   0.0000000), wk =   0.0045351
        k(  141) = (  -0.0952381   0.5238095   0.0000000), wk =   0.0045351
        k(  142) = (  -0.1428571   0.1428571   0.0000000), wk =   0.0045351
        k(  143) = (  -0.1428571   0.1904762   0.0000000), wk =   0.0045351
        k(  144) = (  -0.1428571   0.2380952   0.0000000), wk =   0.0045351
        k(  145) = (  -0.1428571   0.2857143   0.0000000), wk =   0.0045351
        k(  146) = (  -0.1428571   0.3333333   0.0000000), wk =   0.0045351
        k(  147) = (  -0.1428571   0.3809524   0.0000000), wk =   0.0045351
        k(  148) = (  -0.1428571   0.4285714   0.0000000), wk =   0.0045351
        k(  149) = (  -0.1428571   0.4761905   0.0000000), wk =   0.0045351
        k(  150) = (  -0.1428571   0.5238095   0.0000000), wk =   0.0045351
        k(  151) = (  -0.1428571   0.0476190   0.0000000), wk =   0.0045351
        k(  152) = (  -0.1904762   0.1904762   0.0000000), wk =   0.0045351
        k(  153) = (  -0.1904762   0.2380952   0.0000000), wk =   0.0045351
        k(  154) = (  -0.1904762   0.2857143   0.0000000), wk =   0.0045351
        k(  155) = (  -0.1904762   0.3333333   0.0000000), wk =   0.0045351
        k(  156) = (  -0.1904762   0.3809524   0.0000000), wk =   0.0045351
        k(  157) = (  -0.1904762   0.4285714   0.0000000), wk =   0.0045351
        k(  158) = (  -0.1904762   0.4761905   0.0000000), wk =   0.0045351
        k(  159) = (  -0.1904762   0.5238095   0.0000000), wk =   0.0045351
        k(  160) = (  -0.1904762   0.5714286   0.0000000), wk =   0.0045351
        k(  161) = (  -0.1904762   0.0476190   0.0000000), wk =   0.0045351
        k(  162) = (  -0.2380952   0.2380952   0.0000000), wk =   0.0045351
        k(  163) = (  -0.2380952   0.2857143   0.0000000), wk =   0.0045351
        k(  164) = (  -0.2380952   0.3333333   0.0000000), wk =   0.0045351
        k(  165) = (  -0.2380952   0.3809524   0.0000000), wk =   0.0045351
        k(  166) = (  -0.2380952   0.4285714   0.0000000), wk =   0.0045351
        k(  167) = (  -0.2380952   0.4761905   0.0000000), wk =   0.0045351
        k(  168) = (  -0.2380952   0.5238095   0.0000000), wk =   0.0045351
        k(  169) = (  -0.2380952   0.5714286   0.0000000), wk =   0.0045351
        k(  170) = (  -0.2380952   0.0476190   0.0000000), wk =   0.0045351
        k(  171) = (  -0.2380952   0.0952381   0.0000000), wk =   0.0045351
        k(  172) = (  -0.2857143   0.2857143   0.0000000), wk =   0.0045351
        k(  173) = (  -0.2857143   0.3333333   0.0000000), wk =   0.0045351
        k(  174) = (  -0.2857143   0.3809524   0.0000000), wk =   0.0045351
        k(  175) = (  -0.2857143   0.4285714   0.0000000), wk =   0.0045351
        k(  176) = (  -0.2857143   0.4761905   0.0000000), wk =   0.0045351
        k(  177) = (  -0.2857143   0.5238095   0.0000000), wk =   0.0045351
        k(  178) = (  -0.2857143   0.5714286   0.0000000), wk =   0.0045351
        k(  179) = (  -0.2857143   0.6190476   0.0000000), wk =   0.0045351
        k(  180) = (  -0.2857143   0.0476190   0.0000000), wk =   0.0045351
        k(  181) = (  -0.2857143   0.0952381   0.0000000), wk =   0.0045351
        k(  182) = (  -0.3333333   0.3333333   0.0000000), wk =   0.0045351
        k(  183) = (  -0.3333333   0.3809524   0.0000000), wk =   0.0045351
        k(  184) = (  -0.3333333   0.4285714   0.0000000), wk =   0.0045351
        k(  185) = (  -0.3333333   0.4761905   0.0000000), wk =   0.0045351
        k(  186) = (  -0.3333333   0.5238095   0.0000000), wk =   0.0045351
        k(  187) = (  -0.3333333   0.5714286   0.0000000), wk =   0.0045351
        k(  188) = (  -0.3333333   0.6190476   0.0000000), wk =   0.0045351
        k(  189) = (  -0.3333333   0.0476190   0.0000000), wk =   0.0045351
        k(  190) = (  -0.3333333   0.0952381   0.0000000), wk =   0.0045351
        k(  191) = (  -0.3333333   0.1428571   0.0000000), wk =   0.0045351
        k(  192) = (  -0.3809524   0.3809524   0.0000000), wk =   0.0045351
        k(  193) = (  -0.3809524   0.4285714   0.0000000), wk =   0.0045351
        k(  194) = (  -0.3809524   0.4761905   0.0000000), wk =   0.0045351
        k(  195) = (  -0.3809524   0.5238095   0.0000000), wk =   0.0045351
        k(  196) = (  -0.3809524   0.5714286   0.0000000), wk =   0.0045351
        k(  197) = (  -0.3809524   0.6190476   0.0000000), wk =   0.0045351
        k(  198) = (  -0.3809524   0.6666667   0.0000000), wk =   0.0045351
        k(  199) = (  -0.3809524   0.0476190   0.0000000), wk =   0.0045351
        k(  200) = (  -0.3809524   0.0952381   0.0000000), wk =   0.0045351
        k(  201) = (  -0.3809524   0.1428571   0.0000000), wk =   0.0045351
        k(  202) = (  -0.4285714   0.4285714   0.0000000), wk =   0.0045351
        k(  203) = (  -0.4285714   0.4761905   0.0000000), wk =   0.0045351
        k(  204) = (  -0.4285714   0.5238095   0.0000000), wk =   0.0045351
        k(  205) = (  -0.4285714   0.5714286   0.0000000), wk =   0.0045351
        k(  206) = (  -0.4285714   0.6190476   0.0000000), wk =   0.0045351
        k(  207) = (  -0.4285714   0.6666667   0.0000000), wk =   0.0045351
        k(  208) = (  -0.4285714   0.0476190   0.0000000), wk =   0.0045351
        k(  209) = (  -0.4285714   0.0952381   0.0000000), wk =   0.0045351
        k(  210) = (  -0.4285714   0.1428571   0.0000000), wk =   0.0045351
        k(  211) = (  -0.4285714   0.1904762   0.0000000), wk =   0.0045351
        k(  212) = (  -0.4761905   0.4761905   0.0000000), wk =   0.0045351
        k(  213) = (  -0.4761905   0.5238095   0.0000000), wk =   0.0045351
        k(  214) = (  -0.4761905   0.5714286   0.0000000), wk =   0.0045351
        k(  215) = (  -0.4761905   0.6190476   0.0000000), wk =   0.0045351
        k(  216) = (  -0.4761905   0.6666667   0.0000000), wk =   0.0045351
        k(  217) = (  -0.4761905   0.7142857   0.0000000), wk =   0.0045351
        k(  218) = (  -0.4761905   0.0476190   0.0000000), wk =   0.0045351
        k(  219) = (  -0.4761905   0.0952381   0.0000000), wk =   0.0045351
        k(  220) = (  -0.4761905   0.1428571   0.0000000), wk =   0.0045351
        k(  221) = (  -0.4761905   0.1904762   0.0000000), wk =   0.0045351

     Dense  grid:   454177 G-vectors     FFT dimensions: (  60,  60, 300)

     Smooth grid:   115133 G-vectors     FFT dimensions: (  40,  40, 192)

     Dynamical RAM for                 wfc:       1.42 MB

     Dynamical RAM for     wfc (w. buffer):     316.01 MB

     Dynamical RAM for           str. fact:       0.58 MB

     Dynamical RAM for           local pot:       0.00 MB

     Dynamical RAM for          nlocal pot:       1.55 MB

     Dynamical RAM for                qrad:       9.40 MB

     Dynamical RAM for          rho,v,vnew:       7.75 MB

     Dynamical RAM for               rhoin:       2.58 MB

     Dynamical RAM for            rho*nmix:      18.48 MB

     Dynamical RAM for           G-vectors:       1.12 MB

     Dynamical RAM for          h,s,v(r/c):       1.11 MB

     Dynamical RAM for          <psi|beta>:       0.40 MB

     Dynamical RAM for                 psi:       2.85 MB

     Dynamical RAM for                hpsi:       2.85 MB

     Dynamical RAM for      wfcinit/wfcrot:       2.28 MB

     Estimated static dynamical RAM per process >     342.71 MB

     Estimated max dynamical RAM per process >     368.41 MB

     Estimated total dynamical RAM >       8.63 GB

     Initial potential from superposition of free atoms

     starting charge      77.7613, renormalised to      78.0000

     negative rho (up, down):  3.832E-04 0.000E+00
     Starting wfcs are random

     total cpu time spent up to now is       19.6 secs

     Self-consistent Calculation

     iteration #  1     ecut=    50.00 Ry     beta= 0.70
     Davidson diagonalization with overlap

---- Real-time Memory Report at c_bands before calling an iterative solver
           545 MiB given to the printing process from OS
             0 MiB allocation reported by mallinfo(arena+hblkhd)
        119822 MiB available memory on the node where the printing process lives
------------------
     ethr =  1.00E-02,  avg # of iterations = 12.5

     Threshold (ethr) on eigenvalues was too large:
     Diagonalizing with lowered threshold

     Davidson diagonalization with overlap

---- Real-time Memory Report at c_bands before calling an iterative solver
           553 MiB given to the printing process from OS
             0 MiB allocation reported by mallinfo(arena+hblkhd)
        119720 MiB available memory on the node where the printing process lives
------------------
     ethr =  1.13E-04,  avg # of iterations =  6.0

     negative rho (up, down):  1.653E-05 0.000E+00

     total cpu time spent up to now is      318.7 secs

     total energy              =    -806.64191889 Ry
     estimated scf accuracy    <       0.07551929 Ry

     iteration #  2     ecut=    50.00 Ry     beta= 0.70
     Davidson diagonalization with overlap

---- Real-time Memory Report at c_bands before calling an iterative solver
           554 MiB given to the printing process from OS
             0 MiB allocation reported by mallinfo(arena+hblkhd)
        119721 MiB available memory on the node where the printing process lives
------------------
     ethr =  9.68E-05,  avg # of iterations =  4.9

     negative rho (up, down):  2.535E-05 0.000E+00

     total cpu time spent up to now is      397.5 secs

     total energy              =    -806.60502385 Ry
     estimated scf accuracy    <       0.35808972 Ry

     iteration #  3     ecut=    50.00 Ry     beta= 0.70
     Davidson diagonalization with overlap

---- Real-time Memory Report at c_bands before calling an iterative solver
           555 MiB given to the printing process from OS
             0 MiB allocation reported by mallinfo(arena+hblkhd)
        119710 MiB available memory on the node where the printing process lives
------------------
     ethr =  9.68E-05,  avg # of iterations =  5.2

     negative rho (up, down):  2.141E-05 0.000E+00

     total cpu time spent up to now is      471.4 secs

     total energy              =    -806.64983767 Ry
     estimated scf accuracy    <       0.22353467 Ry

     iteration #  4     ecut=    50.00 Ry     beta= 0.70
     Davidson diagonalization with overlap

---- Real-time Memory Report at c_bands before calling an iterative solver
           556 MiB given to the printing process from OS
             0 MiB allocation reported by mallinfo(arena+hblkhd)
        119700 MiB available memory on the node where the printing process lives
------------------
     ethr =  9.68E-05,  avg # of iterations =  3.4

     negative rho (up, down):  2.116E-06 0.000E+00

     total cpu time spent up to now is      535.0 secs

     total energy              =    -806.67358488 Ry
     estimated scf accuracy    <       0.00251105 Ry

     iteration #  5     ecut=    50.00 Ry     beta= 0.70
     Davidson diagonalization with overlap

---- Real-time Memory Report at c_bands before calling an iterative solver
           556 MiB given to the printing process from OS
             0 MiB allocation reported by mallinfo(arena+hblkhd)
        119691 MiB available memory on the node where the printing process lives
------------------
     ethr =  3.22E-06,  avg # of iterations =  5.2

     total cpu time spent up to now is      607.5 secs

     total energy              =    -806.67418469 Ry
     estimated scf accuracy    <       0.00270614 Ry

     iteration #  6     ecut=    50.00 Ry     beta= 0.70
     Davidson diagonalization with overlap

---- Real-time Memory Report at c_bands before calling an iterative solver
           557 MiB given to the printing process from OS
             0 MiB allocation reported by mallinfo(arena+hblkhd)
        119685 MiB available memory on the node where the printing process lives
------------------
     ethr =  3.22E-06,  avg # of iterations =  2.8

     total cpu time spent up to now is      663.7 secs

     total energy              =    -806.67438498 Ry
     estimated scf accuracy    <       0.00021907 Ry

     iteration #  7     ecut=    50.00 Ry     beta= 0.70
     Davidson diagonalization with overlap

---- Real-time Memory Report at c_bands before calling an iterative solver
           558 MiB given to the printing process from OS
             0 MiB allocation reported by mallinfo(arena+hblkhd)
        119675 MiB available memory on the node where the printing process lives
------------------
     ethr =  2.81E-07,  avg # of iterations =  6.1

     total cpu time spent up to now is      733.6 secs

     total energy              =    -806.67440866 Ry
     estimated scf accuracy    <       0.00058573 Ry

     iteration #  8     ecut=    50.00 Ry     beta= 0.70
     Davidson diagonalization with overlap

---- Real-time Memory Report at c_bands before calling an iterative solver
           558 MiB given to the printing process from OS
             0 MiB allocation reported by mallinfo(arena+hblkhd)
        119663 MiB available memory on the node where the printing process lives
------------------
     ethr =  2.81E-07,  avg # of iterations =  4.7

     total cpu time spent up to now is      793.1 secs

     total energy              =    -806.67443606 Ry
     estimated scf accuracy    <       0.00005519 Ry

     iteration #  9     ecut=    50.00 Ry     beta= 0.70
     Davidson diagonalization with overlap

---- Real-time Memory Report at c_bands before calling an iterative solver
           559 MiB given to the printing process from OS
             0 MiB allocation reported by mallinfo(arena+hblkhd)
        119656 MiB available memory on the node where the printing process lives
------------------
     ethr =  7.08E-08,  avg # of iterations =  3.4

     total cpu time spent up to now is      850.8 secs

     total energy              =    -806.67444027 Ry
     estimated scf accuracy    <       0.00001107 Ry

     iteration # 10     ecut=    50.00 Ry     beta= 0.70
     Davidson diagonalization with overlap

---- Real-time Memory Report at c_bands before calling an iterative solver
           560 MiB given to the printing process from OS
             0 MiB allocation reported by mallinfo(arena+hblkhd)
        119647 MiB available memory on the node where the printing process lives
------------------
     ethr =  1.42E-08,  avg # of iterations =  4.1

     total cpu time spent up to now is      911.6 secs

     total energy              =    -806.67444112 Ry
     estimated scf accuracy    <       0.00000447 Ry

     iteration # 11     ecut=    50.00 Ry     beta= 0.70
     Davidson diagonalization with overlap

---- Real-time Memory Report at c_bands before calling an iterative solver
           560 MiB given to the printing process from OS
             0 MiB allocation reported by mallinfo(arena+hblkhd)
        119639 MiB available memory on the node where the printing process lives
------------------
     ethr =  5.73E-09,  avg # of iterations =  3.3

     total cpu time spent up to now is      966.5 secs

     total energy              =    -806.67444109 Ry
     estimated scf accuracy    <       0.00000189 Ry

     iteration # 12     ecut=    50.00 Ry     beta= 0.70
     Davidson diagonalization with overlap

---- Real-time Memory Report at c_bands before calling an iterative solver
           560 MiB given to the printing process from OS
             0 MiB allocation reported by mallinfo(arena+hblkhd)
        119640 MiB available memory on the node where the printing process lives
------------------
     ethr =  2.42E-09,  avg # of iterations =  5.2

     total cpu time spent up to now is     1027.9 secs

     total energy              =    -806.67444120 Ry
     estimated scf accuracy    <       0.00000026 Ry

     iteration # 13     ecut=    50.00 Ry     beta= 0.70
     Davidson diagonalization with overlap

---- Real-time Memory Report at c_bands before calling an iterative solver
           560 MiB given to the printing process from OS
             0 MiB allocation reported by mallinfo(arena+hblkhd)
        119639 MiB available memory on the node where the printing process lives
------------------
     ethr =  3.36E-10,  avg # of iterations =  3.7

     total cpu time spent up to now is     1087.8 secs

     End of self-consistent calculation

          k = 0.0000 0.0000 0.0000 ( 14301 PWs)   bands (ev):

   -35.3664 -35.3664 -35.3664 -35.3664 -35.3416 -35.3416 -35.3415 -35.3415
   -35.2627 -35.2627 -35.2265 -35.2265 -33.9065 -33.9065 -33.9064 -33.9064
   -33.8854 -33.8854 -33.8854 -33.8854 -33.8741 -33.8741 -33.8741 -33.8741
   -33.8001 -33.8001 -33.7847 -33.7847 -33.7532 -33.7532 -27.9826 -27.9826
   -27.9823 -27.9823 -27.9737 -27.9737 -27.9734 -27.9734 -26.7437 -26.7437
   -26.7433 -26.7433 -26.7335 -26.7335 -26.7332 -26.7332 -26.7324 -26.7324
   -26.7320 -26.7320 -10.5755 -10.5755 -10.0383 -10.0383  -8.9431  -8.9431
    -6.1612  -6.1612  -4.7031  -4.7031  -0.3932  -0.3932   0.1609   0.1609
     0.3876   0.3876   0.6659   0.6659   0.7647   0.7647   0.8777   0.8777
     1.0807   1.0807   1.4767   1.4767   1.6318   1.6318

     occupation numbers 
     1.0000   1.0000   1.0000   1.0000   1.0000   1.0000   1.0000   1.0000
     1.0000   1.0000   1.0000   1.0000   1.0000   1.0000   1.0000   1.0000
     1.0000   1.0000   1.0000   1.0000   1.0000   1.0000   1.0000   1.0000
     1.0000   1.0000   1.0000   1.0000   1.0000   1.0000   1.0000   1.0000
     1.0000   1.0000   1.0000   1.0000   1.0000   1.0000   1.0000   1.0000
     1.0000   1.0000   1.0000   1.0000   1.0000   1.0000   1.0000   1.0000
     1.0000   1.0000   1.0000   1.0000   1.0000   1.0000   1.0000   1.0000
     1.0000   1.0000   1.0000   1.0000   1.0000   1.0000   1.0000   1.0000
     1.0000   1.0000   1.0000   1.0000   1.0000   1.0000   1.0000   1.0000
     1.0000   1.0000   1.0000   1.0000   1.0000   1.0000

          k = 0.0000 0.0550 0.0000 ( 14319 PWs)   bands (ev):

   -35.3664 -35.3664 -35.3664 -35.3664 -35.3416 -35.3415 -35.3415 -35.3415
   -35.2627 -35.2627 -35.2264 -35.2264 -33.9064 -33.9064 -33.9064 -33.9064
   -33.8854 -33.8854 -33.8854 -33.8854 -33.8741 -33.8741 -33.8741 -33.8740
   -33.8001 -33.8001 -33.7847 -33.7847 -33.7532 -33.7532 -27.9826 -27.9826
   -27.9822 -27.9822 -27.9737 -27.9737 -27.9734 -27.9734 -26.7436 -26.7436
   -26.7432 -26.7432 -26.7336 -26.7336 -26.7333 -26.7332 -26.7324 -26.7323
   -26.7320 -26.7320 -10.5554 -10.5554 -10.0198 -10.0197  -8.9315  -8.9315
    -6.1625  -6.1625  -4.7353  -4.7353  -0.4211  -0.4208  -0.0419  -0.0401
     0.3607   0.3627   0.4688   0.4741   0.6047   0.6085   0.9080   0.9159
     1.1751   1.1787   1.3938   1.3967   1.7875   1.7899

     occupation numbers 
     1.0000   1.0000   1.0000   1.0000   1.0000   1.0000   1.0000   1.0000
     1.0000   1.0000   1.0000   1.0000   1.0000   1.0000   1.0000   1.0000
     1.0000   1.0000   1.0000   1.0000   1.0000   1.0000   1.0000   1.0000
     1.0000   1.0000   1.0000   1.0000   1.0000   1.0000   1.0000   1.0000
     1.0000   1.0000   1.0000   1.0000   1.0000   1.0000   1.0000   1.0000
     1.0000   1.0000   1.0000   1.0000   1.0000   1.0000   1.0000   1.0000
     1.0000   1.0000   1.0000   1.0000   1.0000   1.0000   1.0000   1.0000
     1.0000   1.0000   1.0000   1.0000   1.0000   1.0000   1.0000   1.0000
     1.0000   1.0000   1.0000   1.0000   1.0000   1.0000   1.0000   1.0000
     1.0000   1.0000   1.0000   1.0000   1.0000   1.0000

          k = 0.0000 0.1099 0.0000 ( 14350 PWs)   bands (ev):

   -35.3664 -35.3664 -35.3664 -35.3664 -35.3416 -35.3415 -35.3415 -35.3415
   -35.2627 -35.2627 -35.2264 -35.2264 -33.9064 -33.9064 -33.9064 -33.9064
   -33.8854 -33.8854 -33.8854 -33.8854 -33.8741 -33.8740 -33.8740 -33.8740
   -33.8001 -33.8001 -33.7847 -33.7847 -33.7531 -33.7531 -27.9826 -27.9826
   -27.9822 -27.9822 -27.9738 -27.9737 -27.9735 -27.9734 -26.7435 -26.7435
   -26.7431 -26.7431 -26.7336 -26.7336 -26.7333 -26.7333 -26.7324 -26.7323
   -26.7320 -26.7319 -10.4956 -10.4956  -9.9645  -9.9645  -8.8969  -8.8969
    -6.1682  -6.1681  -4.8326  -4.8325  -0.5625  -0.5621  -0.3946  -0.3928
     0.0785   0.0835   0.2336   0.2360   0.4555   0.4582   0.7150   0.7169
     1.1747   1.1777   1.5860   1.5878   1.8868   1.8894

     occupation numbers 
     1.0000   1.0000   1.0000   1.0000   1.0000   1.0000   1.0000   1.0000
     1.0000   1.0000   1.0000   1.0000   1.0000   1.0000   1.0000   1.0000
     1.0000   1.0000   1.0000   1.0000   1.0000   1.0000   1.0000   1.0000
     1.0000   1.0000   1.0000   1.0000   1.0000   1.0000   1.0000   1.0000
     1.0000   1.0000   1.0000   1.0000   1.0000   1.0000   1.0000   1.0000
     1.0000   1.0000   1.0000   1.0000   1.0000   1.0000   1.0000   1.0000
     1.0000   1.0000   1.0000   1.0000   1.0000   1.0000   1.0000   1.0000
     1.0000   1.0000   1.0000   1.0000   1.0000   1.0000   1.0000   1.0000
     1.0000   1.0000   1.0000   1.0000   1.0000   1.0000   1.0000   1.0000
     1.0000   1.0000   1.0000   1.0000   1.0000   1.0000

          k = 0.0000 0.1649 0.0000 ( 14326 PWs)   bands (ev):

   -35.3663 -35.3663 -35.3663 -35.3663 -35.3415 -35.3415 -35.3415 -35.3415
   -35.2626 -35.2626 -35.2264 -35.2264 -33.9063 -33.9063 -33.9063 -33.9063
   -33.8854 -33.8854 -33.8854 -33.8854 -33.8740 -33.8740 -33.8740 -33.8740
   -33.8000 -33.8000 -33.7847 -33.7847 -33.7530 -33.7530 -27.9825 -27.9825
   -27.9821 -27.9821 -27.9738 -27.9737 -27.9735 -27.9734 -26.7433 -26.7433
   -26.7429 -26.7429 -26.7338 -26.7338 -26.7335 -26.7335 -26.7323 -26.7322
   -26.7320 -26.7318 -10.3965 -10.3964  -9.8737  -9.8737  -8.8421  -8.8420
    -6.1847  -6.1846  -4.9939  -4.9938  -0.9875  -0.9863  -0.5838  -0.5826
    -0.2864  -0.2824   0.0433   0.0449   0.2142   0.2156   0.5378   0.5405
     1.1799   1.1830   1.6020   1.6047   1.8377   1.8406

     occupation numbers 
     1.0000   1.0000   1.0000   1.0000   1.0000   1.0000   1.0000   1.0000
     1.0000   1.0000   1.0000   1.0000   1.0000   1.0000   1.0000   1.0000
     1.0000   1.0000   1.0000   1.0000   1.0000   1.0000   1.0000   1.0000
     1.0000   1.0000   1.0000   1.0000   1.0000   1.0000   1.0000   1.0000
     1.0000   1.0000   1.0000   1.0000   1.0000   1.0000   1.0000   1.0000
     1.0000   1.0000   1.0000   1.0000   1.0000   1.0000   1.0000   1.0000
     1.0000   1.0000   1.0000   1.0000   1.0000   1.0000   1.0000   1.0000
     1.0000   1.0000   1.0000   1.0000   1.0000   1.0000   1.0000   1.0000
     1.0000   1.0000   1.0000   1.0000   1.0000   1.0000   1.0000   1.0000
     1.0000   1.0000   1.0000   1.0000   1.0000   1.0000

          k = 0.0000 0.2199 0.0000 ( 14352 PWs)   bands (ev):

   -35.3663 -35.3663 -35.3662 -35.3662 -35.3415 -35.3415 -35.3415 -35.3415
   -35.2626 -35.2626 -35.2263 -35.2263 -33.9062 -33.9062 -33.9062 -33.9061
   -33.8854 -33.8854 -33.8854 -33.8854 -33.8740 -33.8740 -33.8739 -33.8739
   -33.8000 -33.8000 -33.7847 -33.7847 -33.7529 -33.7529 -27.9823 -27.9823
   -27.9820 -27.9820 -27.9739 -27.9737 -27.9735 -27.9734 -26.7431 -26.7430
   -26.7427 -26.7427 -26.7339 -26.7339 -26.7336 -26.7336 -26.7322 -26.7321
   -26.7319 -26.7317 -10.2596 -10.2596  -9.7498  -9.7497  -8.7716  -8.7715
    -6.2230  -6.2229  -5.2142  -5.2141  -1.4561  -1.4549  -0.7407  -0.7389
    -0.6676  -0.6649  -0.1890  -0.1881   0.0301   0.0321   0.4404   0.4441
     1.0619   1.0669   1.3375   1.3421   1.9536   1.9558

     occupation numbers 
     1.0000   1.0000   1.0000   1.0000   1.0000   1.0000   1.0000   1.0000
     1.0000   1.0000   1.0000   1.0000   1.0000   1.0000   1.0000   1.0000
     1.0000   1.0000   1.0000   1.0000   1.0000   1.0000   1.0000   1.0000
     1.0000   1.0000   1.0000   1.0000   1.0000   1.0000   1.0000   1.0000
     1.0000   1.0000   1.0000   1.0000   1.0000   1.0000   1.0000   1.0000
     1.0000   1.0000   1.0000   1.0000   1.0000   1.0000   1.0000   1.0000
     1.0000   1.0000   1.0000   1.0000   1.0000   1.0000   1.0000   1.0000
     1.0000   1.0000   1.0000   1.0000   1.0000   1.0000   1.0000   1.0000
     1.0000   1.0000   1.0000   1.0000   1.0000   1.0000   1.0000   1.0000
     1.0000   1.0000   1.0000   1.0000   1.0000   1.0000

          k = 0.0000 0.2748 0.0000 ( 14358 PWs)   bands (ev):

   -35.3662 -35.3662 -35.3662 -35.3662 -35.3415 -35.3415 -35.3415 -35.3415
   -35.2626 -35.2626 -35.2262 -35.2262 -33.9060 -33.9060 -33.9060 -33.9060
   -33.8854 -33.8854 -33.8854 -33.8854 -33.8739 -33.8739 -33.8739 -33.8739
   -33.8000 -33.8000 -33.7847 -33.7847 -33.7528 -33.7528 -27.9822 -27.9822
   -27.9819 -27.9818 -27.9739 -27.9737 -27.9736 -27.9734 -26.7428 -26.7428
   -26.7425 -26.7424 -26.7341 -26.7341 -26.7338 -26.7338 -26.7321 -26.7320
   -26.7317 -26.7316 -10.0871 -10.0871  -9.5961  -9.5961  -8.6925  -8.6924
    -6.2971  -6.2969  -5.4792  -5.4791  -1.8806  -1.8796  -1.0407  -1.0383
    -0.8708  -0.8687  -0.4146  -0.4138  -0.1245  -0.1228   0.3940   0.3976
     0.7641   0.7671   1.2382   1.2404   1.9215   1.9235

     occupation numbers 
     1.0000   1.0000   1.0000   1.0000   1.0000   1.0000   1.0000   1.0000
     1.0000   1.0000   1.0000   1.0000   1.0000   1.0000   1.0000   1.0000
     1.0000   1.0000   1.0000   1.0000   1.0000   1.0000   1.0000   1.0000
     1.0000   1.0000   1.0000   1.0000   1.0000   1.0000   1.0000   1.0000
     1.0000   1.0000   1.0000   1.0000   1.0000   1.0000   1.0000   1.0000
     1.0000   1.0000   1.0000   1.0000   1.0000   1.0000   1.0000   1.0000
     1.0000   1.0000   1.0000   1.0000   1.0000   1.0000   1.0000   1.0000
     1.0000   1.0000   1.0000   1.0000   1.0000   1.0000   1.0000   1.0000
     1.0000   1.0000   1.0000   1.0000   1.0000   1.0000   1.0000   1.0000
     1.0000   1.0000   1.0000   1.0000   1.0000   1.0000

          k = 0.0000 0.3298 0.0000 ( 14366 PWs)   bands (ev):

   -35.3661 -35.3661 -35.3661 -35.3661 -35.3415 -35.3415 -35.3414 -35.3414
   -35.2626 -35.2626 -35.2262 -35.2262 -33.9059 -33.9059 -33.9059 -33.9059
   -33.8854 -33.8854 -33.8854 -33.8854 -33.8739 -33.8739 -33.8738 -33.8738
   -33.7999 -33.7999 -33.7848 -33.7848 -33.7526 -33.7526 -27.9820 -27.9820
   -27.9817 -27.9817 -27.9739 -27.9738 -27.9736 -27.9734 -26.7426 -26.7425
   -26.7422 -26.7422 -26.7343 -26.7342 -26.7340 -26.7339 -26.7320 -26.7319
   -26.7316 -26.7315  -9.8821  -9.8821  -9.4187  -9.4187  -8.6155  -8.6154
    -6.4208  -6.4206  -5.7639  -5.7638  -2.2388  -2.2379  -1.3551  -1.3533
    -0.9859  -0.9833  -0.5984  -0.5970  -0.2827  -0.2813   0.3139   0.3160
     0.5301   0.5309   1.1788   1.1802   1.7708   1.7727

     occupation numbers 
     1.0000   1.0000   1.0000   1.0000   1.0000   1.0000   1.0000   1.0000
     1.0000   1.0000   1.0000   1.0000   1.0000   1.0000   1.0000   1.0000
     1.0000   1.0000   1.0000   1.0000   1.0000   1.0000   1.0000   1.0000
     1.0000   1.0000   1.0000   1.0000   1.0000   1.0000   1.0000   1.0000
     1.0000   1.0000   1.0000   1.0000   1.0000   1.0000   1.0000   1.0000
     1.0000   1.0000   1.0000   1.0000   1.0000   1.0000   1.0000   1.0000
     1.0000   1.0000   1.0000   1.0000   1.0000   1.0000   1.0000   1.0000
     1.0000   1.0000   1.0000   1.0000   1.0000   1.0000   1.0000   1.0000
     1.0000   1.0000   1.0000   1.0000   1.0000   1.0000   1.0000   1.0000
     1.0000   1.0000   1.0000   1.0000   1.0000   1.0000

          k = 0.0000 0.3848 0.0000 ( 14390 PWs)   bands (ev):

   -35.3660 -35.3660 -35.3660 -35.3660 -35.3415 -35.3415 -35.3414 -35.3414
   -35.2626 -35.2626 -35.2261 -35.2261 -33.9058 -33.9058 -33.9058 -33.9058
   -33.8854 -33.8854 -33.8854 -33.8854 -33.8738 -33.8738 -33.8738 -33.8738
   -33.7999 -33.7999 -33.7848 -33.7848 -33.7525 -33.7525 -27.9819 -27.9819
   -27.9816 -27.9816 -27.9740 -27.9738 -27.9736 -27.9735 -26.7423 -26.7423
   -26.7420 -26.7420 -26.7344 -26.7344 -26.7341 -26.7341 -26.7319 -26.7318
   -26.7315 -26.7314  -9.6499  -9.6499  -9.2269  -9.2269  -8.5565  -8.5563
    -6.5989  -6.5987  -6.0371  -6.0370  -2.5256  -2.5249  -1.5858  -1.5844
    -1.0988  -1.0958  -0.7399  -0.7381  -0.4345  -0.4332   0.1264   0.1280
     0.4746   0.4768   1.1314   1.1329   1.5862   1.5878

     occupation numbers 
     1.0000   1.0000   1.0000   1.0000   1.0000   1.0000   1.0000   1.0000
     1.0000   1.0000   1.0000   1.0000   1.0000   1.0000   1.0000   1.0000
     1.0000   1.0000   1.0000   1.0000   1.0000   1.0000   1.0000   1.0000
     1.0000   1.0000   1.0000   1.0000   1.0000   1.0000   1.0000   1.0000
     1.0000   1.0000   1.0000   1.0000   1.0000   1.0000   1.0000   1.0000
     1.0000   1.0000   1.0000   1.0000   1.0000   1.0000   1.0000   1.0000
     1.0000   1.0000   1.0000   1.0000   1.0000   1.0000   1.0000   1.0000
     1.0000   1.0000   1.0000   1.0000   1.0000   1.0000   1.0000   1.0000
     1.0000   1.0000   1.0000   1.0000   1.0000   1.0000   1.0000   1.0000
     1.0000   1.0000   1.0000   1.0000   1.0000   1.0000

          k = 0.0000 0.4397 0.0000 ( 14392 PWs)   bands (ev):

   -35.3660 -35.3660 -35.3659 -35.3659 -35.3414 -35.3414 -35.3414 -35.3414
   -35.2626 -35.2626 -35.2260 -35.2260 -33.9057 -33.9057 -33.9057 -33.9057
   -33.8854 -33.8854 -33.8854 -33.8854 -33.8738 -33.8737 -33.8737 -33.8737
   -33.7998 -33.7998 -33.7848 -33.7848 -33.7524 -33.7524 -27.9818 -27.9818
   -27.9815 -27.9815 -27.9740 -27.9739 -27.9736 -27.9735 -26.7422 -26.7421
   -26.7418 -26.7418 -26.7345 -26.7345 -26.7342 -26.7342 -26.7318 -26.7317
   -26.7314 -26.7313  -9.3987  -9.3986  -9.0361  -9.0361  -8.5364  -8.5362
    -6.8108  -6.8106  -6.2721  -6.2721  -2.7440  -2.7435  -1.7128  -1.7116
    -1.2263  -1.2235  -0.8614  -0.8597  -0.5527  -0.5516  -0.0115  -0.0098
     0.4464   0.4488   1.0982   1.0997   1.4295   1.4305

     occupation numbers 
     1.0000   1.0000   1.0000   1.0000   1.0000   1.0000   1.0000   1.0000
     1.0000   1.0000   1.0000   1.0000   1.0000   1.0000   1.0000   1.0000
     1.0000   1.0000   1.0000   1.0000   1.0000   1.0000   1.0000   1.0000
     1.0000   1.0000   1.0000   1.0000   1.0000   1.0000   1.0000   1.0000
     1.0000   1.0000   1.0000   1.0000   1.0000   1.0000   1.0000   1.0000
     1.0000   1.0000   1.0000   1.0000   1.0000   1.0000   1.0000   1.0000
     1.0000   1.0000   1.0000   1.0000   1.0000   1.0000   1.0000   1.0000
     1.0000   1.0000   1.0000   1.0000   1.0000   1.0000   1.0000   1.0000
     1.0000   1.0000   1.0000   1.0000   1.0000   1.0000   1.0000   1.0000
     1.0000   1.0000   1.0000   1.0000   1.0000   1.0000

          k = 0.0000 0.4947 0.0000 ( 14400 PWs)   bands (ev):

   -35.3659 -35.3659 -35.3659 -35.3659 -35.3414 -35.3414 -35.3414 -35.3414
   -35.2626 -35.2626 -35.2260 -35.2260 -33.9056 -33.9056 -33.9056 -33.9056
   -33.8854 -33.8854 -33.8854 -33.8854 -33.8737 -33.8737 -33.8737 -33.8737
   -33.7998 -33.7998 -33.7848 -33.7848 -33.7523 -33.7523 -27.9817 -27.9817
   -27.9814 -27.9814 -27.9740 -27.9739 -27.9736 -27.9736 -26.7420 -26.7420
   -26.7417 -26.7417 -26.7346 -26.7346 -26.7343 -26.7342 -26.7317 -26.7316
   -26.7313 -26.7312  -9.1417  -9.1416  -8.8723  -8.8722  -8.5800  -8.5798
    -7.0060  -7.0059  -6.4495  -6.4494  -2.8949  -2.8946  -1.7339  -1.7327
    -1.3739  -1.3717  -0.9663  -0.9651  -0.6195  -0.6188  -0.0678  -0.0665
     0.4021   0.4040   1.0743   1.0754   1.3330   1.3335

     occupation numbers 
     1.0000   1.0000   1.0000   1.0000   1.0000   1.0000   1.0000   1.0000
     1.0000   1.0000   1.0000   1.0000   1.0000   1.0000   1.0000   1.0000
     1.0000   1.0000   1.0000   1.0000   1.0000   1.0000   1.0000   1.0000
     1.0000   1.0000   1.0000   1.0000   1.0000   1.0000   1.0000   1.0000
     1.0000   1.0000   1.0000   1.0000   1.0000   1.0000   1.0000   1.0000
     1.0000   1.0000   1.0000   1.0000   1.0000   1.0000   1.0000   1.0000
     1.0000   1.0000   1.0000   1.0000   1.0000   1.0000   1.0000   1.0000
     1.0000   1.0000   1.0000   1.0000   1.0000   1.0000   1.0000   1.0000
     1.0000   1.0000   1.0000   1.0000   1.0000   1.0000   1.0000   1.0000
     1.0000   1.0000   1.0000   1.0000   1.0000   1.0000

          k = 0.0000 0.5497 0.0000 ( 14406 PWs)   bands (ev):

   -35.3659 -35.3659 -35.3659 -35.3659 -35.3414 -35.3414 -35.3414 -35.3414
   -35.2626 -35.2626 -35.2260 -35.2260 -33.9056 -33.9056 -33.9056 -33.9056
   -33.8854 -33.8854 -33.8854 -33.8854 -33.8737 -33.8737 -33.8737 -33.8737
   -33.7998 -33.7998 -33.7848 -33.7848 -33.7523 -33.7523 -27.9817 -27.9817
   -27.9814 -27.9814 -27.9740 -27.9739 -27.9736 -27.9736 -26.7420 -26.7420
   -26.7417 -26.7416 -26.7346 -26.7346 -26.7343 -26.7343 -26.7316 -26.7316
   -26.7312 -26.7312  -8.9003  -8.9003  -8.7731  -8.7729  -8.7036  -8.7033
    -7.1247  -7.1247  -6.5473  -6.5473  -2.9732  -2.9731  -1.6672  -1.6659
    -1.5274  -1.5258  -1.0254  -1.0250  -0.6475  -0.6473  -0.0756  -0.0751
     0.3626   0.3633   1.0580   1.0584   1.2955   1.2956

     occupation numbers 
     1.0000   1.0000   1.0000   1.0000   1.0000   1.0000   1.0000   1.0000
     1.0000   1.0000   1.0000   1.0000   1.0000   1.0000   1.0000   1.0000
     1.0000   1.0000   1.0000   1.0000   1.0000   1.0000   1.0000   1.0000
     1.0000   1.0000   1.0000   1.0000   1.0000   1.0000   1.0000   1.0000
     1.0000   1.0000   1.0000   1.0000   1.0000   1.0000   1.0000   1.0000
     1.0000   1.0000   1.0000   1.0000   1.0000   1.0000   1.0000   1.0000
     1.0000   1.0000   1.0000   1.0000   1.0000   1.0000   1.0000   1.0000
     1.0000   1.0000   1.0000   1.0000   1.0000   1.0000   1.0000   1.0000
     1.0000   1.0000   1.0000   1.0000   1.0000   1.0000   1.0000   1.0000
     1.0000   1.0000   1.0000   1.0000   1.0000   1.0000

          k = 0.0476 0.0275 0.0000 ( 14315 PWs)   bands (ev):

   -35.3664 -35.3664 -35.3664 -35.3664 -35.3416 -35.3415 -35.3415 -35.3415
   -35.2627 -35.2627 -35.2264 -35.2264 -33.9064 -33.9064 -33.9064 -33.9064
   -33.8854 -33.8854 -33.8854 -33.8854 -33.8741 -33.8741 -33.8741 -33.8740
   -33.8001 -33.8001 -33.7847 -33.7847 -33.7532 -33.7532 -27.9826 -27.9826
   -27.9822 -27.9822 -27.9737 -27.9737 -27.9734 -27.9734 -26.7436 -26.7436
   -26.7432 -26.7432 -26.7336 -26.7335 -26.7333 -26.7332 -26.7324 -26.7323
   -26.7320 -26.7320 -10.5554 -10.5554 -10.0197 -10.0197  -8.9314  -8.9314
    -6.1624  -6.1624  -4.7354  -4.7353  -0.4212  -0.4208  -0.0416  -0.0404
     0.3599   0.3638   0.4675   0.4763   0.6035   0.6099   0.9053   0.9179
     1.1730   1.1798   1.3922   1.3978   1.7874   1.7907

     occupation numbers 
     1.0000   1.0000   1.0000   1.0000   1.0000   1.0000   1.0000   1.0000
     1.0000   1.0000   1.0000   1.0000   1.0000   1.0000   1.0000   1.0000
     1.0000   1.0000   1.0000   1.0000   1.0000   1.0000   1.0000   1.0000
     1.0000   1.0000   1.0000   1.0000   1.0000   1.0000   1.0000   1.0000
     1.0000   1.0000   1.0000   1.0000   1.0000   1.0000   1.0000   1.0000
     1.0000   1.0000   1.0000   1.0000   1.0000   1.0000   1.0000   1.0000
     1.0000   1.0000   1.0000   1.0000   1.0000   1.0000   1.0000   1.0000
     1.0000   1.0000   1.0000   1.0000   1.0000   1.0000   1.0000   1.0000
     1.0000   1.0000   1.0000   1.0000   1.0000   1.0000   1.0000   1.0000
     1.0000   1.0000   1.0000   1.0000   1.0000   1.0000

          k = 0.0476 0.0824 0.0000 ( 14323 PWs)   bands (ev):

   -35.3664 -35.3664 -35.3664 -35.3664 -35.3416 -35.3415 -35.3415 -35.3415
   -35.2627 -35.2627 -35.2264 -35.2264 -33.9064 -33.9064 -33.9064 -33.9064
   -33.8854 -33.8854 -33.8854 -33.8854 -33.8741 -33.8741 -33.8741 -33.8740
   -33.8001 -33.8001 -33.7847 -33.7847 -33.7531 -33.7531 -27.9826 -27.9826
   -27.9822 -27.9822 -27.9738 -27.9737 -27.9734 -27.9734 -26.7436 -26.7435
   -26.7432 -26.7432 -26.7336 -26.7336 -26.7333 -26.7333 -26.7324 -26.7323
   -26.7320 -26.7319 -10.5154 -10.5154  -9.9828  -9.9828  -8.9082  -8.9082
    -6.1658  -6.1658  -4.8001  -4.8001  -0.4960  -0.4954  -0.2991  -0.2969
     0.0996   0.1049   0.3373   0.3414   0.5093   0.5137   0.7982   0.8031
     1.1540   1.1554   1.5125   1.5147   1.8925   1.8952

     occupation numbers 
     1.0000   1.0000   1.0000   1.0000   1.0000   1.0000   1.0000   1.0000
     1.0000   1.0000   1.0000   1.0000   1.0000   1.0000   1.0000   1.0000
     1.0000   1.0000   1.0000   1.0000   1.0000   1.0000   1.0000   1.0000
     1.0000   1.0000   1.0000   1.0000   1.0000   1.0000   1.0000   1.0000
     1.0000   1.0000   1.0000   1.0000   1.0000   1.0000   1.0000   1.0000
     1.0000   1.0000   1.0000   1.0000   1.0000   1.0000   1.0000   1.0000
     1.0000   1.0000   1.0000   1.0000   1.0000   1.0000   1.0000   1.0000
     1.0000   1.0000   1.0000   1.0000   1.0000   1.0000   1.0000   1.0000
     1.0000   1.0000   1.0000   1.0000   1.0000   1.0000   1.0000   1.0000
     1.0000   1.0000   1.0000   1.0000   1.0000   1.0000

          k = 0.0476 0.1374 0.0000 ( 14347 PWs)   bands (ev):

   -35.3663 -35.3663 -35.3663 -35.3663 -35.3416 -35.3415 -35.3415 -35.3415
   -35.2626 -35.2626 -35.2264 -35.2264 -33.9063 -33.9063 -33.9063 -33.9063
   -33.8854 -33.8854 -33.8854 -33.8854 -33.8741 -33.8740 -33.8740 -33.8740
   -33.8001 -33.8001 -33.7847 -33.7847 -33.7530 -33.7530 -27.9825 -27.9825
   -27.9821 -27.9821 -27.9738 -27.9737 -27.9735 -27.9734 -26.7434 -26.7434
   -26.7430 -26.7430 -26.7337 -26.7337 -26.7334 -26.7334 -26.7323 -26.7322
   -26.7320 -26.7319 -10.4360 -10.4360  -9.9098  -9.9098  -8.8635  -8.8635
    -6.1769  -6.1768  -4.9298  -4.9297  -0.7890  -0.7876  -0.5304  -0.5292
    -0.2433  -0.2395   0.0939   0.0979   0.3957   0.3989   0.6181   0.6202
     1.0865   1.0890   1.7140   1.7177   1.8287   1.8328

     occupation numbers 
     1.0000   1.0000   1.0000   1.0000   1.0000   1.0000   1.0000   1.0000
     1.0000   1.0000   1.0000   1.0000   1.0000   1.0000   1.0000   1.0000
     1.0000   1.0000   1.0000   1.0000   1.0000   1.0000   1.0000   1.0000
     1.0000   1.0000   1.0000   1.0000   1.0000   1.0000   1.0000   1.0000
     1.0000   1.0000   1.0000   1.0000   1.0000   1.0000   1.0000   1.0000
     1.0000   1.0000   1.0000   1.0000   1.0000   1.0000   1.0000   1.0000
     1.0000   1.0000   1.0000   1.0000   1.0000   1.0000   1.0000   1.0000
     1.0000   1.0000   1.0000   1.0000   1.0000   1.0000   1.0000   1.0000
     1.0000   1.0000   1.0000   1.0000   1.0000   1.0000   1.0000   1.0000
     1.0000   1.0000   1.0000   1.0000   1.0000   1.0000

          k = 0.0476 0.1924 0.0000 ( 14344 PWs)   bands (ev):

   -35.3663 -35.3663 -35.3663 -35.3663 -35.3415 -35.3415 -35.3415 -35.3415
   -35.2626 -35.2626 -35.2263 -35.2263 -33.9062 -33.9062 -33.9062 -33.9062
   -33.8854 -33.8854 -33.8854 -33.8854 -33.8740 -33.8740 -33.8740 -33.8739
   -33.8000 -33.8000 -33.7847 -33.7847 -33.7529 -33.7529 -27.9824 -27.9824
   -27.9820 -27.9820 -27.9738 -27.9737 -27.9735 -27.9734 -26.7432 -26.7431
   -26.7428 -26.7428 -26.7339 -26.7338 -26.7336 -26.7335 -26.7323 -26.7321
   -26.7319 -26.7318 -10.3180 -10.3180  -9.8024  -9.8024  -8.8007  -8.8006
    -6.2038  -6.2037  -5.1214  -5.1213  -1.2338  -1.2322  -0.7036  -0.7029
    -0.5857  -0.5837  -0.1183  -0.1146   0.1891   0.1935   0.4407   0.4444
     1.0671   1.0695   1.5189   1.5211   1.9222   1.9242

     occupation numbers 
     1.0000   1.0000   1.0000   1.0000   1.0000   1.0000   1.0000   1.0000
     1.0000   1.0000   1.0000   1.0000   1.0000   1.0000   1.0000   1.0000
     1.0000   1.0000   1.0000   1.0000   1.0000   1.0000   1.0000   1.0000
     1.0000   1.0000   1.0000   1.0000   1.0000   1.0000   1.0000   1.0000
     1.0000   1.0000   1.0000   1.0000   1.0000   1.0000   1.0000   1.0000
     1.0000   1.0000   1.0000   1.0000   1.0000   1.0000   1.0000   1.0000
     1.0000   1.0000   1.0000   1.0000   1.0000   1.0000   1.0000   1.0000
     1.0000   1.0000   1.0000   1.0000   1.0000   1.0000   1.0000   1.0000
     1.0000   1.0000   1.0000   1.0000   1.0000   1.0000   1.0000   1.0000
     1.0000   1.0000   1.0000   1.0000   1.0000   1.0000

          k = 0.0476 0.2473 0.0000 ( 14345 PWs)   bands (ev):

   -35.3662 -35.3662 -35.3662 -35.3662 -35.3415 -35.3415 -35.3415 -35.3415
   -35.2626 -35.2626 -35.2263 -35.2263 -33.9061 -33.9061 -33.9061 -33.9061
   -33.8854 -33.8854 -33.8854 -33.8854 -33.8740 -33.8739 -33.8739 -33.8739
   -33.8000 -33.8000 -33.7847 -33.7847 -33.7528 -33.7528 -27.9823 -27.9822
   -27.9819 -27.9819 -27.9739 -27.9737 -27.9736 -27.9734 -26.7429 -26.7429
   -26.7426 -26.7425 -26.7341 -26.7340 -26.7338 -26.7337 -26.7322 -26.7320
   -26.7318 -26.7317 -10.1632 -10.1631  -9.6634  -9.6634  -8.7254  -8.7253
    -6.2590  -6.2589  -5.3659  -5.3658  -1.6711  -1.6698  -0.9783  -0.9770
    -0.7987  -0.7965  -0.3404  -0.3362  -0.0463  -0.0426   0.3552   0.3577
     0.9730   0.9743   1.2766   1.2781   1.9496   1.9516

     occupation numbers 
     1.0000   1.0000   1.0000   1.0000   1.0000   1.0000   1.0000   1.0000
     1.0000   1.0000   1.0000   1.0000   1.0000   1.0000   1.0000   1.0000
     1.0000   1.0000   1.0000   1.0000   1.0000   1.0000   1.0000   1.0000
     1.0000   1.0000   1.0000   1.0000   1.0000   1.0000   1.0000   1.0000
     1.0000   1.0000   1.0000   1.0000   1.0000   1.0000   1.0000   1.0000
     1.0000   1.0000   1.0000   1.0000   1.0000   1.0000   1.0000   1.0000
     1.0000   1.0000   1.0000   1.0000   1.0000   1.0000   1.0000   1.0000
     1.0000   1.0000   1.0000   1.0000   1.0000   1.0000   1.0000   1.0000
     1.0000   1.0000   1.0000   1.0000   1.0000   1.0000   1.0000   1.0000
     1.0000   1.0000   1.0000   1.0000   1.0000   1.0000

          k = 0.0476 0.3023 0.0000 ( 14378 PWs)   bands (ev):

   -35.3661 -35.3661 -35.3661 -35.3661 -35.3415 -35.3415 -35.3415 -35.3414
   -35.2626 -35.2626 -35.2262 -35.2262 -33.9060 -33.9060 -33.9060 -33.9059
   -33.8854 -33.8854 -33.8854 -33.8854 -33.8739 -33.8739 -33.8738 -33.8738
   -33.7999 -33.7999 -33.7847 -33.7847 -33.7527 -33.7527 -27.9821 -27.9821
   -27.9818 -27.9817 -27.9739 -27.9738 -27.9736 -27.9734 -26.7427 -26.7426
   -26.7423 -26.7423 -26.7342 -26.7341 -26.7339 -26.7338 -26.7320 -26.7319
   -26.7317 -26.7315  -9.9743  -9.9743  -9.4974  -9.4974  -8.6465  -8.6463
    -6.3567  -6.3566  -5.6438  -5.6437  -2.0584  -2.0572  -1.2744  -1.2731
    -0.9329  -0.9300  -0.5722  -0.5678  -0.2326  -0.2300   0.2901   0.2916
     0.7634   0.7655   1.1607   1.1616   1.8639   1.8658

     occupation numbers 
     1.0000   1.0000   1.0000   1.0000   1.0000   1.0000   1.0000   1.0000
     1.0000   1.0000   1.0000   1.0000   1.0000   1.0000   1.0000   1.0000
     1.0000   1.0000   1.0000   1.0000   1.0000   1.0000   1.0000   1.0000
     1.0000   1.0000   1.0000   1.0000   1.0000   1.0000   1.0000   1.0000
     1.0000   1.0000   1.0000   1.0000   1.0000   1.0000   1.0000   1.0000
     1.0000   1.0000   1.0000   1.0000   1.0000   1.0000   1.0000   1.0000
     1.0000   1.0000   1.0000   1.0000   1.0000   1.0000   1.0000   1.0000
     1.0000   1.0000   1.0000   1.0000   1.0000   1.0000   1.0000   1.0000
     1.0000   1.0000   1.0000   1.0000   1.0000   1.0000   1.0000   1.0000
     1.0000   1.0000   1.0000   1.0000   1.0000   1.0000

          k = 0.0476 0.3573 0.0000 ( 14406 PWs)   bands (ev):

   -35.3661 -35.3661 -35.3660 -35.3660 -35.3415 -35.3415 -35.3414 -35.3414
   -35.2626 -35.2626 -35.2261 -35.2261 -33.9058 -33.9058 -33.9058 -33.9058
   -33.8854 -33.8854 -33.8854 -33.8854 -33.8738 -33.8738 -33.8738 -33.8738
   -33.7999 -33.7999 -33.7848 -33.7848 -33.7526 -33.7526 -27.9820 -27.9819
   -27.9817 -27.9816 -27.9739 -27.9738 -27.9736 -27.9735 -26.7425 -26.7423
   -26.7421 -26.7420 -26.7344 -26.7343 -26.7341 -26.7340 -26.7319 -26.7318
   -26.7315 -26.7314  -9.7554  -9.7553  -9.3119  -9.3119  -8.5766  -8.5765
    -6.5074  -6.5073  -5.9266  -5.9265  -2.3795  -2.3786  -1.5118  -1.5107
    -1.0629  -1.0595  -0.7687  -0.7643  -0.3700  -0.3681   0.1736   0.1766
     0.5885   0.5930   1.1090   1.1102   1.7115   1.7132

     occupation numbers 
     1.0000   1.0000   1.0000   1.0000   1.0000   1.0000   1.0000   1.0000
     1.0000   1.0000   1.0000   1.0000   1.0000   1.0000   1.0000   1.0000
     1.0000   1.0000   1.0000   1.0000   1.0000   1.0000   1.0000   1.0000
     1.0000   1.0000   1.0000   1.0000   1.0000   1.0000   1.0000   1.0000
     1.0000   1.0000   1.0000   1.0000   1.0000   1.0000   1.0000   1.0000
     1.0000   1.0000   1.0000   1.0000   1.0000   1.0000   1.0000   1.0000
     1.0000   1.0000   1.0000   1.0000   1.0000   1.0000   1.0000   1.0000
     1.0000   1.0000   1.0000   1.0000   1.0000   1.0000   1.0000   1.0000
     1.0000   1.0000   1.0000   1.0000   1.0000   1.0000   1.0000   1.0000
     1.0000   1.0000   1.0000   1.0000   1.0000   1.0000

          k = 0.0476 0.4122 0.0000 ( 14405 PWs)   bands (ev):

   -35.3660 -35.3660 -35.3660 -35.3660 -35.3415 -35.3415 -35.3414 -35.3414
   -35.2626 -35.2626 -35.2261 -35.2261 -33.9057 -33.9057 -33.9057 -33.9057
   -33.8854 -33.8854 -33.8854 -33.8854 -33.8738 -33.8738 -33.8737 -33.8737
   -33.7998 -33.7998 -33.7848 -33.7848 -33.7525 -33.7525 -27.9819 -27.9818
   -27.9816 -27.9815 -27.9740 -27.9739 -27.9736 -27.9735 -26.7423 -26.7421
   -26.7419 -26.7418 -26.7345 -26.7344 -26.7342 -26.7341 -26.7318 -26.7317
   -26.7314 -26.7313  -9.5128  -9.5128  -9.1188  -9.1188  -8.5340  -8.5338
    -6.7058  -6.7056  -6.1834  -6.1833  -2.6317  -2.6311  -1.6671  -1.6663
    -1.2051  -1.2024  -0.9141  -0.9104  -0.4701  -0.4683   0.0159   0.0195
     0.5045   0.5095   1.0823   1.0836   1.5481   1.5495

     occupation numbers 
     1.0000   1.0000   1.0000   1.0000   1.0000   1.0000   1.0000   1.0000
     1.0000   1.0000   1.0000   1.0000   1.0000   1.0000   1.0000   1.0000
     1.0000   1.0000   1.0000   1.0000   1.0000   1.0000   1.0000   1.0000
     1.0000   1.0000   1.0000   1.0000   1.0000   1.0000   1.0000   1.0000
     1.0000   1.0000   1.0000   1.0000   1.0000   1.0000   1.0000   1.0000
     1.0000   1.0000   1.0000   1.0000   1.0000   1.0000   1.0000   1.0000
     1.0000   1.0000   1.0000   1.0000   1.0000   1.0000   1.0000   1.0000
     1.0000   1.0000   1.0000   1.0000   1.0000   1.0000   1.0000   1.0000
     1.0000   1.0000   1.0000   1.0000   1.0000   1.0000   1.0000   1.0000
     1.0000   1.0000   1.0000   1.0000   1.0000   1.0000

          k = 0.0476 0.4672 0.0000 ( 14387 PWs)   bands (ev):

[...]
   -26.7315 -26.7313  -9.4399  -9.4398  -9.0522  -9.0521  -8.4804  -8.4803
    -6.6722  -6.6721  -6.3650  -6.3649  -2.3605  -2.3597  -2.0859  -2.0851
    -1.3472  -1.3452  -1.1127  -1.1095  -0.8409  -0.8378  -0.2022  -0.2012
     0.7776   0.7798   1.2655   1.2662   1.5546   1.5561

     occupation numbers 
     1.0000   1.0000   1.0000   1.0000   1.0000   1.0000   1.0000   1.0000
     1.0000   1.0000   1.0000   1.0000   1.0000   1.0000   1.0000   1.0000
     1.0000   1.0000   1.0000   1.0000   1.0000   1.0000   1.0000   1.0000
     1.0000   1.0000   1.0000   1.0000   1.0000   1.0000   1.0000   1.0000
     1.0000   1.0000   1.0000   1.0000   1.0000   1.0000   1.0000   1.0000
     1.0000   1.0000   1.0000   1.0000   1.0000   1.0000   1.0000   1.0000
     1.0000   1.0000   1.0000   1.0000   1.0000   1.0000   1.0000   1.0000
     1.0000   1.0000   1.0000   1.0000   1.0000   1.0000   1.0000   1.0000
     1.0000   1.0000   1.0000   1.0000   1.0000   1.0000   1.0000   1.0000
     1.0000   1.0000   1.0000   1.0000   1.0000   1.0000

          k =-0.4762 0.2748 0.0000 ( 14408 PWs)   bands (ev):

   -35.3659 -35.3659 -35.3659 -35.3659 -35.3414 -35.3414 -35.3414 -35.3414
   -35.2626 -35.2626 -35.2260 -35.2260 -33.9056 -33.9056 -33.9055 -33.9055
   -33.8854 -33.8854 -33.8854 -33.8854 -33.8737 -33.8737 -33.8736 -33.8736
   -33.7998 -33.7998 -33.7848 -33.7848 -33.7523 -33.7523 -27.9817 -27.9817
   -27.9814 -27.9814 -27.9740 -27.9739 -27.9736 -27.9736 -26.7420 -26.7420
   -26.7417 -26.7417 -26.7346 -26.7346 -26.7343 -26.7343 -26.7316 -26.7316
   -26.7312 -26.7312  -8.8992  -8.8991  -8.7733  -8.7732  -8.7021  -8.7019
    -7.1224  -7.1224  -6.5481  -6.5481  -2.9747  -2.9746  -1.6669  -1.6656
    -1.5276  -1.5260  -1.0271  -1.0267  -0.6501  -0.6499  -0.0759  -0.0754
     0.3620   0.3627   1.0567   1.0572   1.2932   1.2934

     occupation numbers 
     1.0000   1.0000   1.0000   1.0000   1.0000   1.0000   1.0000   1.0000
     1.0000   1.0000   1.0000   1.0000   1.0000   1.0000   1.0000   1.0000
     1.0000   1.0000   1.0000   1.0000   1.0000   1.0000   1.0000   1.0000
     1.0000   1.0000   1.0000   1.0000   1.0000   1.0000   1.0000   1.0000
     1.0000   1.0000   1.0000   1.0000   1.0000   1.0000   1.0000   1.0000
     1.0000   1.0000   1.0000   1.0000   1.0000   1.0000   1.0000   1.0000
     1.0000   1.0000   1.0000   1.0000   1.0000   1.0000   1.0000   1.0000
     1.0000   1.0000   1.0000   1.0000   1.0000   1.0000   1.0000   1.0000
     1.0000   1.0000   1.0000   1.0000   1.0000   1.0000   1.0000   1.0000
     1.0000   1.0000   1.0000   1.0000   1.0000   1.0000

          k =-0.4762 0.3298 0.0000 ( 14410 PWs)   bands (ev):

   -35.3659 -35.3659 -35.3659 -35.3658 -35.3414 -35.3414 -35.3414 -35.3414
   -35.2626 -35.2626 -35.2260 -35.2260 -33.9056 -33.9056 -33.9055 -33.9055
   -33.8854 -33.8854 -33.8854 -33.8853 -33.8737 -33.8737 -33.8736 -33.8736
   -33.7998 -33.7998 -33.7848 -33.7848 -33.7523 -33.7523 -27.9818 -27.9816
   -27.9814 -27.9813 -27.9740 -27.9739 -27.9736 -27.9736 -26.7420 -26.7418
   -26.7417 -26.7415 -26.7347 -26.7346 -26.7344 -26.7342 -26.7316 -26.7316
   -26.7312 -26.7312  -8.7886  -8.7880  -8.7789  -8.7787  -8.7485  -8.7481
    -7.1404  -7.1404  -6.5830  -6.5830  -2.9708  -2.9707  -1.6633  -1.6563
    -1.5778  -1.5701  -1.1281  -1.1273  -0.6382  -0.6352  -0.1514  -0.1477
     0.4156   0.4185   1.0389   1.0398   1.3173   1.3180

     occupation numbers 
     1.0000   1.0000   1.0000   1.0000   1.0000   1.0000   1.0000   1.0000
     1.0000   1.0000   1.0000   1.0000   1.0000   1.0000   1.0000   1.0000
     1.0000   1.0000   1.0000   1.0000   1.0000   1.0000   1.0000   1.0000
     1.0000   1.0000   1.0000   1.0000   1.0000   1.0000   1.0000   1.0000
     1.0000   1.0000   1.0000   1.0000   1.0000   1.0000   1.0000   1.0000
     1.0000   1.0000   1.0000   1.0000   1.0000   1.0000   1.0000   1.0000
     1.0000   1.0000   1.0000   1.0000   1.0000   1.0000   1.0000   1.0000
     1.0000   1.0000   1.0000   1.0000   1.0000   1.0000   1.0000   1.0000
     1.0000   1.0000   1.0000   1.0000   1.0000   1.0000   1.0000   1.0000
     1.0000   1.0000   1.0000   1.0000   1.0000   1.0000

          k =-0.4762 0.3848 0.0000 ( 14393 PWs)   bands (ev):

   -35.3659 -35.3659 -35.3659 -35.3658 -35.3414 -35.3414 -35.3414 -35.3414
   -35.2626 -35.2626 -35.2260 -35.2260 -33.9056 -33.9055 -33.9055 -33.9055
   -33.8854 -33.8854 -33.8854 -33.8853 -33.8737 -33.8737 -33.8736 -33.8736
   -33.7998 -33.7998 -33.7848 -33.7848 -33.7523 -33.7523 -27.9818 -27.9816
   -27.9815 -27.9812 -27.9740 -27.9739 -27.9737 -27.9735 -26.7420 -26.7417
   -26.7417 -26.7414 -26.7348 -26.7346 -26.7344 -26.7342 -26.7317 -26.7316
   -26.7313 -26.7312  -8.8566  -8.8564  -8.7341  -8.7340  -8.6653  -8.6649
    -7.1308  -7.1308  -6.6352  -6.6352  -2.9207  -2.9204  -1.7427  -1.7363
    -1.6107  -1.6032  -1.2708  -1.2693  -0.6532  -0.6521  -0.2890  -0.2869
     0.5115   0.5158   0.9844   0.9856   1.4522   1.4536

     occupation numbers 
     1.0000   1.0000   1.0000   1.0000   1.0000   1.0000   1.0000   1.0000
     1.0000   1.0000   1.0000   1.0000   1.0000   1.0000   1.0000   1.0000
     1.0000   1.0000   1.0000   1.0000   1.0000   1.0000   1.0000   1.0000
     1.0000   1.0000   1.0000   1.0000   1.0000   1.0000   1.0000   1.0000
     1.0000   1.0000   1.0000   1.0000   1.0000   1.0000   1.0000   1.0000
     1.0000   1.0000   1.0000   1.0000   1.0000   1.0000   1.0000   1.0000
     1.0000   1.0000   1.0000   1.0000   1.0000   1.0000   1.0000   1.0000
     1.0000   1.0000   1.0000   1.0000   1.0000   1.0000   1.0000   1.0000
     1.0000   1.0000   1.0000   1.0000   1.0000   1.0000   1.0000   1.0000
     1.0000   1.0000   1.0000   1.0000   1.0000   1.0000

          k =-0.4762 0.4397 0.0000 ( 14383 PWs)   bands (ev):

   -35.3659 -35.3659 -35.3659 -35.3658 -35.3414 -35.3414 -35.3414 -35.3414
   -35.2626 -35.2626 -35.2259 -35.2259 -33.9056 -33.9055 -33.9055 -33.9055
   -33.8854 -33.8854 -33.8854 -33.8853 -33.8737 -33.8737 -33.8736 -33.8736
   -33.7998 -33.7998 -33.7848 -33.7848 -33.7523 -33.7523 -27.9819 -27.9816
   -27.9814 -27.9811 -27.9741 -27.9739 -27.9737 -27.9735 -26.7420 -26.7417
   -26.7415 -26.7412 -26.7349 -26.7346 -26.7344 -26.7342 -26.7317 -26.7316
   -26.7314 -26.7312  -8.9167  -8.9166  -8.7253  -8.7252  -8.5593  -8.5591
    -7.0960  -7.0959  -6.7022  -6.7021  -2.8291  -2.8287  -1.8742  -1.8708
    -1.6919  -1.6880  -1.3381  -1.3365  -0.7180  -0.7141  -0.4255  -0.4219
     0.5679   0.5723   1.0193   1.0209   1.5563   1.5577

     occupation numbers 
     1.0000   1.0000   1.0000   1.0000   1.0000   1.0000   1.0000   1.0000
     1.0000   1.0000   1.0000   1.0000   1.0000   1.0000   1.0000   1.0000
     1.0000   1.0000   1.0000   1.0000   1.0000   1.0000   1.0000   1.0000
     1.0000   1.0000   1.0000   1.0000   1.0000   1.0000   1.0000   1.0000
     1.0000   1.0000   1.0000   1.0000   1.0000   1.0000   1.0000   1.0000
     1.0000   1.0000   1.0000   1.0000   1.0000   1.0000   1.0000   1.0000
     1.0000   1.0000   1.0000   1.0000   1.0000   1.0000   1.0000   1.0000
     1.0000   1.0000   1.0000   1.0000   1.0000   1.0000   1.0000   1.0000
     1.0000   1.0000   1.0000   1.0000   1.0000   1.0000   1.0000   1.0000
     1.0000   1.0000   1.0000   1.0000   1.0000   1.0000

          k =-0.4762 0.4947 0.0000 ( 14383 PWs)   bands (ev):

   -35.3659 -35.3659 -35.3658 -35.3658 -35.3414 -35.3414 -35.3414 -35.3414
   -35.2626 -35.2626 -35.2259 -35.2259 -33.9056 -33.9055 -33.9055 -33.9055
   -33.8854 -33.8854 -33.8853 -33.8853 -33.8737 -33.8737 -33.8737 -33.8736
   -33.7998 -33.7998 -33.7848 -33.7848 -33.7523 -33.7523 -27.9819 -27.9816
   -27.9814 -27.9811 -27.9741 -27.9739 -27.9737 -27.9735 -26.7420 -26.7417
   -26.7414 -26.7411 -26.7350 -26.7347 -26.7344 -26.7341 -26.7318 -26.7316
   -26.7314 -26.7312  -8.9592  -8.9591  -8.7218  -8.7218  -8.4775  -8.4773
    -7.0417  -7.0416  -6.7785  -6.7784  -2.7018  -2.7013  -2.1029  -2.1020
    -1.6675  -1.6662  -1.3703  -1.3693  -0.9086  -0.9051  -0.4339  -0.4313
     0.5943   0.5974   1.1214   1.1233   1.5370   1.5382

     occupation numbers 
     1.0000   1.0000   1.0000   1.0000   1.0000   1.0000   1.0000   1.0000
     1.0000   1.0000   1.0000   1.0000   1.0000   1.0000   1.0000   1.0000
     1.0000   1.0000   1.0000   1.0000   1.0000   1.0000   1.0000   1.0000
     1.0000   1.0000   1.0000   1.0000   1.0000   1.0000   1.0000   1.0000
     1.0000   1.0000   1.0000   1.0000   1.0000   1.0000   1.0000   1.0000
     1.0000   1.0000   1.0000   1.0000   1.0000   1.0000   1.0000   1.0000
     1.0000   1.0000   1.0000   1.0000   1.0000   1.0000   1.0000   1.0000
     1.0000   1.0000   1.0000   1.0000   1.0000   1.0000   1.0000   1.0000
     1.0000   1.0000   1.0000   1.0000   1.0000   1.0000   1.0000   1.0000
     1.0000   1.0000   1.0000   1.0000   1.0000   1.0000

          k =-0.4762 0.5497 0.0000 ( 14367 PWs)   bands (ev):

   -35.3659 -35.3659 -35.3658 -35.3658 -35.3414 -35.3414 -35.3414 -35.3414
   -35.2626 -35.2626 -35.2259 -35.2259 -33.9056 -33.9055 -33.9055 -33.9055
   -33.8855 -33.8854 -33.8853 -33.8853 -33.8737 -33.8737 -33.8737 -33.8736
   -33.7998 -33.7998 -33.7848 -33.7848 -33.7523 -33.7523 -27.9819 -27.9816
   -27.9813 -27.9810 -27.9741 -27.9739 -27.9738 -27.9735 -26.7419 -26.7416
   -26.7413 -26.7410 -26.7351 -26.7348 -26.7344 -26.7341 -26.7318 -26.7316
   -26.7315 -26.7312  -8.9812  -8.9811  -8.7209  -8.7208  -8.4325  -8.4323
    -6.9817  -6.9814  -6.8502  -6.8499  -2.5420  -2.5413  -2.3321  -2.3316
    -1.5975  -1.5965  -1.3590  -1.3581  -1.1256  -1.1236  -0.3916  -0.3907
     0.6155   0.6172   1.1881   1.1902   1.4797   1.4812

     occupation numbers 
     1.0000   1.0000   1.0000   1.0000   1.0000   1.0000   1.0000   1.0000
     1.0000   1.0000   1.0000   1.0000   1.0000   1.0000   1.0000   1.0000
     1.0000   1.0000   1.0000   1.0000   1.0000   1.0000   1.0000   1.0000
     1.0000   1.0000   1.0000   1.0000   1.0000   1.0000   1.0000   1.0000
     1.0000   1.0000   1.0000   1.0000   1.0000   1.0000   1.0000   1.0000
     1.0000   1.0000   1.0000   1.0000   1.0000   1.0000   1.0000   1.0000
     1.0000   1.0000   1.0000   1.0000   1.0000   1.0000   1.0000   1.0000
     1.0000   1.0000   1.0000   1.0000   1.0000   1.0000   1.0000   1.0000
     1.0000   1.0000   1.0000   1.0000   1.0000   1.0000   1.0000   1.0000
     1.0000   1.0000   1.0000   1.0000   1.0000   1.0000

          k =-0.4762-0.2199 0.0000 ( 14412 PWs)   bands (ev):

   -35.3659 -35.3659 -35.3659 -35.3659 -35.3414 -35.3414 -35.3414 -35.3414
   -35.2626 -35.2626 -35.2260 -35.2260 -33.9056 -33.9056 -33.9056 -33.9055
   -33.8854 -33.8854 -33.8854 -33.8854 -33.8737 -33.8737 -33.8737 -33.8736
   -33.7998 -33.7998 -33.7848 -33.7848 -33.7523 -33.7523 -27.9818 -27.9816
   -27.9815 -27.9813 -27.9740 -27.9739 -27.9736 -27.9736 -26.7420 -26.7419
   -26.7417 -26.7416 -26.7347 -26.7345 -26.7343 -26.7342 -26.7317 -26.7316
   -26.7312 -26.7312  -9.0042  -9.0041  -8.8011  -8.8011  -8.6213  -8.6212
    -7.0793  -7.0792  -6.5345  -6.5345  -2.9320  -2.9319  -1.7120  -1.7101
    -1.4875  -1.4846  -1.0998  -1.0985  -0.6131  -0.6124  -0.1425  -0.1406
     0.4280   0.4314   1.0485   1.0498   1.3393   1.3400

     occupation numbers 
     1.0000   1.0000   1.0000   1.0000   1.0000   1.0000   1.0000   1.0000
     1.0000   1.0000   1.0000   1.0000   1.0000   1.0000   1.0000   1.0000
     1.0000   1.0000   1.0000   1.0000   1.0000   1.0000   1.0000   1.0000
     1.0000   1.0000   1.0000   1.0000   1.0000   1.0000   1.0000   1.0000
     1.0000   1.0000   1.0000   1.0000   1.0000   1.0000   1.0000   1.0000
     1.0000   1.0000   1.0000   1.0000   1.0000   1.0000   1.0000   1.0000
     1.0000   1.0000   1.0000   1.0000   1.0000   1.0000   1.0000   1.0000
     1.0000   1.0000   1.0000   1.0000   1.0000   1.0000   1.0000   1.0000
     1.0000   1.0000   1.0000   1.0000   1.0000   1.0000   1.0000   1.0000
     1.0000   1.0000   1.0000   1.0000   1.0000   1.0000

          k =-0.4762-0.1649 0.0000 ( 14390 PWs)   bands (ev):

   -35.3659 -35.3659 -35.3659 -35.3659 -35.3414 -35.3414 -35.3414 -35.3414
   -35.2626 -35.2626 -35.2260 -35.2260 -33.9056 -33.9056 -33.9056 -33.9055
   -33.8854 -33.8854 -33.8854 -33.8853 -33.8737 -33.8737 -33.8737 -33.8736
   -33.7998 -33.7998 -33.7848 -33.7848 -33.7523 -33.7523 -27.9819 -27.9816
   -27.9815 -27.9812 -27.9740 -27.9739 -27.9737 -27.9735 -26.7421 -26.7418
   -26.7418 -26.7415 -26.7348 -26.7345 -26.7344 -26.7341 -26.7317 -26.7316
   -26.7313 -26.7312  -9.0926  -9.0926  -8.8308  -8.8308  -8.5487  -8.5486
    -7.0128  -7.0127  -6.5396  -6.5396  -2.8465  -2.8464  -1.7409  -1.7395
    -1.5479  -1.5457  -1.2235  -1.2219  -0.6008  -0.5998  -0.2336  -0.2322
     0.5061   0.5095   1.0148   1.0162   1.5017   1.5026

     occupation numbers 
     1.0000   1.0000   1.0000   1.0000   1.0000   1.0000   1.0000   1.0000
     1.0000   1.0000   1.0000   1.0000   1.0000   1.0000   1.0000   1.0000
     1.0000   1.0000   1.0000   1.0000   1.0000   1.0000   1.0000   1.0000
     1.0000   1.0000   1.0000   1.0000   1.0000   1.0000   1.0000   1.0000
     1.0000   1.0000   1.0000   1.0000   1.0000   1.0000   1.0000   1.0000
     1.0000   1.0000   1.0000   1.0000   1.0000   1.0000   1.0000   1.0000
     1.0000   1.0000   1.0000   1.0000   1.0000   1.0000   1.0000   1.0000
     1.0000   1.0000   1.0000   1.0000   1.0000   1.0000   1.0000   1.0000
     1.0000   1.0000   1.0000   1.0000   1.0000   1.0000   1.0000   1.0000
     1.0000   1.0000   1.0000   1.0000   1.0000   1.0000

          k =-0.4762-0.1099 0.0000 ( 14373 PWs)   bands (ev):

   -35.3659 -35.3659 -35.3659 -35.3659 -35.3414 -35.3414 -35.3414 -35.3414
   -35.2626 -35.2626 -35.2260 -35.2260 -33.9056 -33.9056 -33.9056 -33.9055
   -33.8854 -33.8854 -33.8854 -33.8853 -33.8737 -33.8737 -33.8737 -33.8736
   -33.7998 -33.7998 -33.7848 -33.7848 -33.7523 -33.7523 -27.9819 -27.9816
   -27.9815 -27.9812 -27.9740 -27.9739 -27.9737 -27.9735 -26.7421 -26.7418
   -26.7417 -26.7414 -26.7348 -26.7346 -26.7344 -26.7341 -26.7318 -26.7316
   -26.7314 -26.7312  -9.1590  -9.1589  -8.8564  -8.8564  -8.4914  -8.4912
    -6.9334  -6.9333  -6.5652  -6.5651  -2.7229  -2.7228  -1.8758  -1.8754
    -1.5580  -1.5555  -1.3135  -1.3107  -0.6946  -0.6931  -0.2893  -0.2882
     0.5789   0.5816   1.0593   1.0607   1.6157   1.6166

     occupation numbers 
     1.0000   1.0000   1.0000   1.0000   1.0000   1.0000   1.0000   1.0000
     1.0000   1.0000   1.0000   1.0000   1.0000   1.0000   1.0000   1.0000
     1.0000   1.0000   1.0000   1.0000   1.0000   1.0000   1.0000   1.0000
     1.0000   1.0000   1.0000   1.0000   1.0000   1.0000   1.0000   1.0000
     1.0000   1.0000   1.0000   1.0000   1.0000   1.0000   1.0000   1.0000
     1.0000   1.0000   1.0000   1.0000   1.0000   1.0000   1.0000   1.0000
     1.0000   1.0000   1.0000   1.0000   1.0000   1.0000   1.0000   1.0000
     1.0000   1.0000   1.0000   1.0000   1.0000   1.0000   1.0000   1.0000
     1.0000   1.0000   1.0000   1.0000   1.0000   1.0000   1.0000   1.0000
     1.0000   1.0000   1.0000   1.0000   1.0000   1.0000

          k =-0.4762-0.0550 0.0000 ( 14378 PWs)   bands (ev):

   -35.3660 -35.3659 -35.3659 -35.3659 -35.3414 -35.3414 -35.3414 -35.3414
   -35.2626 -35.2626 -35.2260 -35.2260 -33.9056 -33.9056 -33.9056 -33.9055
   -33.8854 -33.8854 -33.8853 -33.8853 -33.8737 -33.8737 -33.8737 -33.8736
   -33.7998 -33.7998 -33.7848 -33.7848 -33.7523 -33.7523 -27.9819 -27.9816
   -27.9815 -27.9812 -27.9741 -27.9739 -27.9737 -27.9735 -26.7421 -26.7418
   -26.7416 -26.7413 -26.7349 -26.7346 -26.7344 -26.7341 -26.7318 -26.7316
   -26.7315 -26.7313  -9.2000  -9.1999  -8.8738  -8.8737  -8.4548  -8.4546
    -6.8567  -6.8566  -6.6048  -6.6047  -2.5646  -2.5643  -2.1100  -2.1095
    -1.4567  -1.4512  -1.3489  -1.3427  -0.8992  -0.8973  -0.2981  -0.2971
     0.6699   0.6719   1.1593   1.1604   1.5665   1.5676

     occupation numbers 
     1.0000   1.0000   1.0000   1.0000   1.0000   1.0000   1.0000   1.0000
     1.0000   1.0000   1.0000   1.0000   1.0000   1.0000   1.0000   1.0000
     1.0000   1.0000   1.0000   1.0000   1.0000   1.0000   1.0000   1.0000
     1.0000   1.0000   1.0000   1.0000   1.0000   1.0000   1.0000   1.0000
     1.0000   1.0000   1.0000   1.0000   1.0000   1.0000   1.0000   1.0000
     1.0000   1.0000   1.0000   1.0000   1.0000   1.0000   1.0000   1.0000
     1.0000   1.0000   1.0000   1.0000   1.0000   1.0000   1.0000   1.0000
     1.0000   1.0000   1.0000   1.0000   1.0000   1.0000   1.0000   1.0000
     1.0000   1.0000   1.0000   1.0000   1.0000   1.0000   1.0000   1.0000
     1.0000   1.0000   1.0000   1.0000   1.0000   1.0000

     highest occupied level (ev):     1.9563

!    total energy              =    -806.67444120 Ry
     estimated scf accuracy    <       0.00000002 Ry

     The total energy is the sum of the following terms:
     one-electron contribution =   -3425.10396741 Ry
     hartree contribution      =    1708.11008376 Ry
     xc contribution           =     -87.20926068 Ry
     ewald contribution        =     997.62966022 Ry
     Dispersion Correction     =      -0.10095710 Ry

     convergence has been achieved in  13 iterations

     Writing all to output data dir tmp/Sb2Te3-uatsx-c4-soc-0.0.save/ :
     XML data file, charge density, pseudopotentials, collected wavefunctions

     init_run     :     35.70s CPU     19.49s WALL (       1 calls)
     electrons    :   2002.14s CPU   1068.25s WALL (       1 calls)

     Called by init_run:
     wfcinit      :     34.56s CPU     18.30s WALL (       1 calls)
     wfcinit:wfcr :     32.69s CPU     17.02s WALL (     221 calls)
     potinit      :      0.49s CPU      0.48s WALL (       1 calls)
     hinit0       :      0.54s CPU      0.60s WALL (       1 calls)

     Called by electrons:
     c_bands      :   1805.72s CPU    968.28s WALL (      14 calls)
     sum_band     :    195.30s CPU     99.19s WALL (      14 calls)
     v_of_rho     :      0.58s CPU      0.40s WALL (      14 calls)
     v_h          :      0.05s CPU      0.03s WALL (      14 calls)
     v_xc         :      0.53s CPU      0.38s WALL (      14 calls)
     mix_rho      :      0.29s CPU      0.18s WALL (      14 calls)
     energy_londo :      0.02s CPU      0.01s WALL (       1 calls)

     Called by c_bands:
     init_us_2    :     10.37s CPU      5.28s WALL (    6409 calls)
     cegterg      :   1743.88s CPU    923.54s WALL (    3094 calls)

     Called by sum_band:
     sum_band:wei :      0.00s CPU      0.00s WALL (      14 calls)
     sum_band:loo :    195.12s CPU     99.09s WALL (      14 calls)
     sum_band:buf :      2.85s CPU      1.54s WALL (    3094 calls)
     sum_band:ini :      4.95s CPU      2.50s WALL (    3094 calls)

     Called by *egterg:
     cdiaghg      :    222.19s CPU    143.17s WALL (   18444 calls)
     cegterg:over :     75.84s CPU     40.07s WALL (   15571 calls)
     cegterg:upda :     44.59s CPU     20.20s WALL (   15571 calls)
     cegterg:last :     64.43s CPU     32.06s WALL (    8194 calls)
     h_psi        :   1317.16s CPU    675.25s WALL (   18886 calls)
     g_psi        :      4.62s CPU      3.40s WALL (   15571 calls)

     Called by h_psi:
     h_psi:calbec :     75.42s CPU     36.98s WALL (   18886 calls)
     vloc_psi     :   1163.75s CPU    592.23s WALL (   18886 calls)
     add_vuspsi   :     74.04s CPU     43.69s WALL (   18886 calls)

     General routines
     calbec       :     75.31s CPU     36.94s WALL (   18886 calls)
     fft          :      1.26s CPU      1.07s WALL (     325 calls)
     ffts         :      0.47s CPU      0.44s WALL (     112 calls)
     fftw         :    984.54s CPU    502.46s WALL ( 3470400 calls)
     interpolate  :      0.57s CPU      0.50s WALL (      56 calls)

     Parallel routines

     PWSCF        :  34m11.48s CPU  19m26.01s WALL


   This run was terminated on:  20: 6: 4  14Aug2025            

=------------------------------------------------------------------------------=
   JOB DONE.
=------------------------------------------------------------------------------=
