
     Program PWSCF v.7.4.1 starts on 22Aug2025 at 23:46:49 

     This program is part of the open-source Quantum ESPRESSO suite
     for quantum simulation of materials; please cite
         "P. Giannozzi et al., J. Phys.:Condens. Matter 21 395502 (2009);
         "P. Giannozzi et al., J. Phys.:Condens. Matter 29 465901 (2017);
         "P. Giannozzi et al., J. Chem. Phys. 152 154105 (2020);
          URL http://www.quantum-espresso.org", 
     in publications or presentations arising from this work. More details at
     http://www.quantum-espresso.org/quote

     Parallel version (MPI & OpenMP), running on      48 processor cores
     Number of MPI processes:                24
     Threads/MPI process:                     2

     MPI processes distributed on     2 nodes
     24954 MiB available memory on the printing compute node when the environment starts

     Waiting for input...
     Reading input from standard input

     Current dimensions of program PWSCF are:
     Max number of different atomic species (ntypx) = 10
     Max number of k-points (npk) =  40000
     Max angular momentum in pseudopotentials (lmaxx) =  4
Error reading attribute index: expected integer, found *
Error reading attribute index: expected integer, found *

     IMPORTANT: XC functional enforced from input :
     Exchange-correlation= PBE
                           (   1   4   3   4   0   0   0)
     Any further DFT definition will be discarded
     Please, verify this is what you really want

     Message from routine setup:
     no reason to have ecutrho>4*ecutwfc

     R & G space division:  proc/nbgrp/npool/nimage =      24
     Subspace diagonalization in iterative solution of the eigenvalue problem:
     a serial algorithm will be used


     Parallelization info
     --------------------
     sticks:   dense  smooth     PW     G-vecs:    dense   smooth      PW
     Min         138      55     16                32604     8247    1314
     Max         139      56     17                32629     8264    1322
     Sum        3327    1331    395               782755   198065   31683

     Using Slab Decomposition



     bravais-lattice index     =            0
     lattice parameter (alat)  =       8.4715  a.u.
     unit-cell volume          =    2502.8602 (a.u.)^3
     number of atoms/cell      =            5
     number of atomic types    =            2
     number of electrons       =        78.00
     number of Kohn-Sham states=           78
     kinetic-energy cutoff     =      70.0000  Ry
     charge density cutoff     =     700.0000  Ry
     scf convergence threshold =      1.0E-07
     mixing beta               =       0.7000
     number of iterations used =            8  plain     mixing
     Exchange-correlation= PBE
                           (   1   4   3   4   0   0   0)
     Non magnetic calculation with spin-orbit


     celldm(1)=   8.471459  celldm(2)=   0.000000  celldm(3)=   0.000000
     celldm(4)=   0.000000  celldm(5)=   0.000000  celldm(6)=   0.000000

     crystal axes: (cart. coord. in units of alat)
               a(1) = (   1.000000   0.000000   0.000000 )  
               a(2) = (  -0.480769   0.832709   0.000000 )  
               a(3) = (   0.000000   0.000000   4.943891 )  

     reciprocal axes: (cart. coord. in units 2 pi/alat)
               b(1) = (  1.000000  0.577356 -0.000000 )  
               b(2) = (  0.000000  1.200900  0.000000 )  
               b(3) = (  0.000000 -0.000000  0.202270 )  


     PseudoPot. # 1 for Sb read from file:
     /zfs-home/202401017n1/pseudos/Sb_ONCV_PBE_FR-1.1.upf
     MD5 check sum: 7dc1726f2158e3c51e4807d42b9c5c65
     Pseudo is Norm-conserving, Zval = 15.0
     Generated using ONCVPSP code by D. R. Hamann
     Using radial grid of  602 points, 10 beta functions with: 
                l(1) =   0
                l(2) =   0
                l(3) =   1
                l(4) =   1
                l(5) =   1
                l(6) =   1
                l(7) =   2
                l(8) =   2
                l(9) =   2
               l(10) =   2

     PseudoPot. # 2 for Te read from file:
     /zfs-home/202401017n1/pseudos/Te_ONCV_PBE_FR-1.1.upf
     MD5 check sum: c6e17480449037a9a9d16e6377b5c7c4
     Pseudo is Norm-conserving, Zval = 16.0
     Generated using ONCVPSP code by D. R. Hamann
     Using radial grid of  602 points, 10 beta functions with: 
                l(1) =   0
                l(2) =   0
                l(3) =   1
                l(4) =   1
                l(5) =   1
                l(6) =   1
                l(7) =   2
                l(8) =   2
                l(9) =   2
               l(10) =   2

     atomic species   valence    mass     pseudopotential
     Sb               15.00   121.76000     Sb( 1.00)
     Te               16.00   127.60000     Te( 1.00)

     No symmetry found


                                    s                        frac. trans.

      isym =  1     identity                                     

 cryst.   s( 1) = (     1          0          0      )
                  (     0          1          0      )
                  (     0          0          1      )

 cart.    s( 1) = (  1.0000000  0.0000000  0.0000000 )
                  (  0.0000000  1.0000000  0.0000000 )
                  (  0.0000000  0.0000000  1.0000000 )


   Cartesian axes

     site n.     atom                  positions (alat units)
         1        Sb     tau(   1) = (   0.5904646   0.4157527   2.9115514  )
         2        Te     tau(   2) = (   0.5755298   0.3904446   1.6605492  )
         3        Sb     tau(   3) = (   0.0721083   0.1184920   2.0322939  )
         4        Te     tau(   4) = (   0.0869606   0.1439524   3.2833161  )
         5        Te     tau(   5) = (   0.0908738   0.6835524   2.4719228  )

     -------------------------------------------------
     Parameters for Dispersion (Grimme-D2) Correction:
     -------------------------------------------------
       atom      VdW radius       C_6     

        Sb         3.555       1333.532
        Te         3.575       1101.101

   Crystallographic axes

     site n.     atom                  positions (cryst. coord.)
         1        Sb     tau(   1) = (  0.8305018  0.4992775  0.5889190  )
         2        Te     tau(   2) = (  0.8009552  0.4688850  0.3358790  )
         3        Sb     tau(   3) = (  0.1405204  0.1422971  0.4110717  )
         4        Te     tau(   4) = (  0.1700723  0.1728725  0.6641158  )
         5        Te     tau(   5) = (  0.4855268  0.8208782  0.4999954  )

     number of k points=   221
                       cart. coord. in units 2pi/alat
        k(    1) = (   0.0000000   0.0000000   0.0000000), wk =   0.0022676
        k(    2) = (   0.0000000   0.0571857   0.0000000), wk =   0.0045351
        k(    3) = (   0.0000000   0.1143714   0.0000000), wk =   0.0045351
        k(    4) = (   0.0000000   0.1715572   0.0000000), wk =   0.0045351
        k(    5) = (   0.0000000   0.2287429   0.0000000), wk =   0.0045351
        k(    6) = (   0.0000000   0.2859286   0.0000000), wk =   0.0045351
        k(    7) = (   0.0000000   0.3431143   0.0000000), wk =   0.0045351
        k(    8) = (   0.0000000   0.4003001   0.0000000), wk =   0.0045351
        k(    9) = (   0.0000000   0.4574858   0.0000000), wk =   0.0045351
        k(   10) = (   0.0000000   0.5146715   0.0000000), wk =   0.0045351
        k(   11) = (   0.0000000   0.5718572   0.0000000), wk =   0.0045351
        k(   12) = (   0.0476190   0.0274931   0.0000000), wk =   0.0045351
        k(   13) = (   0.0476190   0.0846789   0.0000000), wk =   0.0045351
        k(   14) = (   0.0476190   0.1418646   0.0000000), wk =   0.0045351
        k(   15) = (   0.0476190   0.1990503   0.0000000), wk =   0.0045351
        k(   16) = (   0.0476190   0.2562360   0.0000000), wk =   0.0045351
        k(   17) = (   0.0476190   0.3134217   0.0000000), wk =   0.0045351
        k(   18) = (   0.0476190   0.3706075   0.0000000), wk =   0.0045351
        k(   19) = (   0.0476190   0.4277932   0.0000000), wk =   0.0045351
        k(   20) = (   0.0476190   0.4849789   0.0000000), wk =   0.0045351
        k(   21) = (   0.0476190   0.5421646   0.0000000), wk =   0.0045351
        k(   22) = (   0.0476190   0.5993504   0.0000000), wk =   0.0045351
        k(   23) = (   0.0476190  -0.5443641   0.0000000), wk =   0.0045351
        k(   24) = (   0.0476190  -0.4871784   0.0000000), wk =   0.0045351
        k(   25) = (   0.0476190  -0.4299926   0.0000000), wk =   0.0045351
        k(   26) = (   0.0476190  -0.3728069   0.0000000), wk =   0.0045351
        k(   27) = (   0.0476190  -0.3156212   0.0000000), wk =   0.0045351
        k(   28) = (   0.0476190  -0.2584355   0.0000000), wk =   0.0045351
        k(   29) = (   0.0476190  -0.2012498   0.0000000), wk =   0.0045351
        k(   30) = (   0.0476190  -0.1440640   0.0000000), wk =   0.0045351
        k(   31) = (   0.0476190  -0.0868783   0.0000000), wk =   0.0045351
        k(   32) = (   0.0476190  -0.0296926   0.0000000), wk =   0.0045351
        k(   33) = (   0.0952381   0.0549863   0.0000000), wk =   0.0045351
        k(   34) = (   0.0952381   0.1121720   0.0000000), wk =   0.0045351
        k(   35) = (   0.0952381   0.1693577   0.0000000), wk =   0.0045351
        k(   36) = (   0.0952381   0.2265434   0.0000000), wk =   0.0045351
        k(   37) = (   0.0952381   0.2837292   0.0000000), wk =   0.0045351
        k(   38) = (   0.0952381   0.3409149   0.0000000), wk =   0.0045351
        k(   39) = (   0.0952381   0.3981006   0.0000000), wk =   0.0045351
        k(   40) = (   0.0952381   0.4552863   0.0000000), wk =   0.0045351
        k(   41) = (   0.0952381   0.5124721   0.0000000), wk =   0.0045351
        k(   42) = (   0.0952381   0.5696578   0.0000000), wk =   0.0045351
        k(   43) = (   0.0952381   0.6268435   0.0000000), wk =   0.0045351
        k(   44) = (   0.0952381  -0.5168710   0.0000000), wk =   0.0045351
        k(   45) = (   0.0952381  -0.4596852   0.0000000), wk =   0.0045351
        k(   46) = (   0.0952381  -0.4024995   0.0000000), wk =   0.0045351
        k(   47) = (   0.0952381  -0.3453138   0.0000000), wk =   0.0045351
        k(   48) = (   0.0952381  -0.2881281   0.0000000), wk =   0.0045351
        k(   49) = (   0.0952381  -0.2309423   0.0000000), wk =   0.0045351
        k(   50) = (   0.0952381  -0.1737566   0.0000000), wk =   0.0045351
        k(   51) = (   0.0952381  -0.1165709   0.0000000), wk =   0.0045351
        k(   52) = (   0.0952381  -0.0593852   0.0000000), wk =   0.0045351
        k(   53) = (   0.0952381  -0.0021995   0.0000000), wk =   0.0045351
        k(   54) = (   0.1428571   0.0824794   0.0000000), wk =   0.0045351
        k(   55) = (   0.1428571   0.1396651   0.0000000), wk =   0.0045351
        k(   56) = (   0.1428571   0.1968509   0.0000000), wk =   0.0045351
        k(   57) = (   0.1428571   0.2540366   0.0000000), wk =   0.0045351
        k(   58) = (   0.1428571   0.3112223   0.0000000), wk =   0.0045351
        k(   59) = (   0.1428571   0.3684080   0.0000000), wk =   0.0045351
        k(   60) = (   0.1428571   0.4255937   0.0000000), wk =   0.0045351
        k(   61) = (   0.1428571   0.4827795   0.0000000), wk =   0.0045351
        k(   62) = (   0.1428571   0.5399652   0.0000000), wk =   0.0045351
        k(   63) = (   0.1428571   0.5971509   0.0000000), wk =   0.0045351
        k(   64) = (   0.1428571   0.6543366   0.0000000), wk =   0.0045351
        k(   65) = (   0.1428571  -0.4893778   0.0000000), wk =   0.0045351
        k(   66) = (   0.1428571  -0.4321921   0.0000000), wk =   0.0045351
        k(   67) = (   0.1428571  -0.3750064   0.0000000), wk =   0.0045351
        k(   68) = (   0.1428571  -0.3178207   0.0000000), wk =   0.0045351
        k(   69) = (   0.1428571  -0.2606349   0.0000000), wk =   0.0045351
        k(   70) = (   0.1428571  -0.2034492   0.0000000), wk =   0.0045351
        k(   71) = (   0.1428571  -0.1462635   0.0000000), wk =   0.0045351
        k(   72) = (   0.1428571  -0.0890778   0.0000000), wk =   0.0045351
        k(   73) = (   0.1428571  -0.0318920   0.0000000), wk =   0.0045351
        k(   74) = (   0.1428571   0.0252937   0.0000000), wk =   0.0045351
        k(   75) = (   0.1904762   0.1099725   0.0000000), wk =   0.0045351
        k(   76) = (   0.1904762   0.1671583   0.0000000), wk =   0.0045351
        k(   77) = (   0.1904762   0.2243440   0.0000000), wk =   0.0045351
        k(   78) = (   0.1904762   0.2815297   0.0000000), wk =   0.0045351
        k(   79) = (   0.1904762   0.3387154   0.0000000), wk =   0.0045351
        k(   80) = (   0.1904762   0.3959012   0.0000000), wk =   0.0045351
        k(   81) = (   0.1904762   0.4530869   0.0000000), wk =   0.0045351
        k(   82) = (   0.1904762   0.5102726   0.0000000), wk =   0.0045351
        k(   83) = (   0.1904762   0.5674583   0.0000000), wk =   0.0045351
        k(   84) = (   0.1904762   0.6246440   0.0000000), wk =   0.0045351
        k(   85) = (   0.1904762   0.6818298   0.0000000), wk =   0.0045351
        k(   86) = (   0.1904762  -0.4618847   0.0000000), wk =   0.0045351
        k(   87) = (   0.1904762  -0.4046990   0.0000000), wk =   0.0045351
        k(   88) = (   0.1904762  -0.3475132   0.0000000), wk =   0.0045351
        k(   89) = (   0.1904762  -0.2903275   0.0000000), wk =   0.0045351
        k(   90) = (   0.1904762  -0.2331418   0.0000000), wk =   0.0045351
        k(   91) = (   0.1904762  -0.1759561   0.0000000), wk =   0.0045351
        k(   92) = (   0.1904762  -0.1187703   0.0000000), wk =   0.0045351
        k(   93) = (   0.1904762  -0.0615846   0.0000000), wk =   0.0045351
        k(   94) = (   0.1904762  -0.0043989   0.0000000), wk =   0.0045351
        k(   95) = (   0.1904762   0.0527868   0.0000000), wk =   0.0045351
        k(   96) = (   0.2380952   0.1374657   0.0000000), wk =   0.0045351
        k(   97) = (   0.2380952   0.1946514   0.0000000), wk =   0.0045351
        k(   98) = (   0.2380952   0.2518371   0.0000000), wk =   0.0045351
        k(   99) = (   0.2380952   0.3090228   0.0000000), wk =   0.0045351
        k(  100) = (   0.2380952   0.3662086   0.0000000), wk =   0.0045351
        k(  101) = (   0.2380952   0.4233943   0.0000000), wk =   0.0045351
        k(  102) = (   0.2380952   0.4805800   0.0000000), wk =   0.0045351
        k(  103) = (   0.2380952   0.5377657   0.0000000), wk =   0.0045351
        k(  104) = (   0.2380952   0.5949515   0.0000000), wk =   0.0045351
        k(  105) = (   0.2380952   0.6521372   0.0000000), wk =   0.0045351
        k(  106) = (   0.2380952   0.7093229   0.0000000), wk =   0.0045351
        k(  107) = (   0.2380952  -0.4343915   0.0000000), wk =   0.0045351
        k(  108) = (   0.2380952  -0.3772058   0.0000000), wk =   0.0045351
        k(  109) = (   0.2380952  -0.3200201   0.0000000), wk =   0.0045351
        k(  110) = (   0.2380952  -0.2628344   0.0000000), wk =   0.0045351
        k(  111) = (   0.2380952  -0.2056487   0.0000000), wk =   0.0045351
        k(  112) = (   0.2380952  -0.1484629   0.0000000), wk =   0.0045351
        k(  113) = (   0.2380952  -0.0912772   0.0000000), wk =   0.0045351
        k(  114) = (   0.2380952  -0.0340915   0.0000000), wk =   0.0045351
        k(  115) = (   0.2380952   0.0230942   0.0000000), wk =   0.0045351
        k(  116) = (   0.2380952   0.0802800   0.0000000), wk =   0.0045351
        k(  117) = (   0.2857143   0.1649588   0.0000000), wk =   0.0045351
        k(  118) = (   0.2857143   0.2221445   0.0000000), wk =   0.0045351
        k(  119) = (   0.2857143   0.2793303   0.0000000), wk =   0.0045351
        k(  120) = (   0.2857143   0.3365160   0.0000000), wk =   0.0045351
        k(  121) = (   0.2857143   0.3937017   0.0000000), wk =   0.0045351
        k(  122) = (   0.2857143   0.4508874   0.0000000), wk =   0.0045351
        k(  123) = (   0.2857143   0.5080732   0.0000000), wk =   0.0045351
        k(  124) = (   0.2857143   0.5652589   0.0000000), wk =   0.0045351
        k(  125) = (   0.2857143   0.6224446   0.0000000), wk =   0.0045351
        k(  126) = (   0.2857143   0.6796303   0.0000000), wk =   0.0045351
        k(  127) = (   0.2857143   0.7368160   0.0000000), wk =   0.0045351
        k(  128) = (   0.2857143  -0.4068984   0.0000000), wk =   0.0045351
        k(  129) = (   0.2857143  -0.3497127   0.0000000), wk =   0.0045351
        k(  130) = (   0.2857143  -0.2925270   0.0000000), wk =   0.0045351
        k(  131) = (   0.2857143  -0.2353412   0.0000000), wk =   0.0045351
        k(  132) = (   0.2857143  -0.1781555   0.0000000), wk =   0.0045351
        k(  133) = (   0.2857143  -0.1209698   0.0000000), wk =   0.0045351
        k(  134) = (   0.2857143  -0.0637841   0.0000000), wk =   0.0045351
        k(  135) = (   0.2857143  -0.0065984   0.0000000), wk =   0.0045351
        k(  136) = (   0.2857143   0.0505874   0.0000000), wk =   0.0045351
        k(  137) = (   0.2857143   0.1077731   0.0000000), wk =   0.0045351
        k(  138) = (   0.3333333   0.1924520   0.0000000), wk =   0.0045351
        k(  139) = (   0.3333333   0.2496377   0.0000000), wk =   0.0045351
        k(  140) = (   0.3333333   0.3068234   0.0000000), wk =   0.0045351
        k(  141) = (   0.3333333   0.3640091   0.0000000), wk =   0.0045351
        k(  142) = (   0.3333333   0.4211948   0.0000000), wk =   0.0045351
        k(  143) = (   0.3333333   0.4783806   0.0000000), wk =   0.0045351
        k(  144) = (   0.3333333   0.5355663   0.0000000), wk =   0.0045351
        k(  145) = (   0.3333333   0.5927520   0.0000000), wk =   0.0045351
        k(  146) = (   0.3333333   0.6499377   0.0000000), wk =   0.0045351
        k(  147) = (   0.3333333   0.7071235   0.0000000), wk =   0.0045351
        k(  148) = (   0.3333333   0.7643092   0.0000000), wk =   0.0045351
        k(  149) = (   0.3333333  -0.3794053   0.0000000), wk =   0.0045351
        k(  150) = (   0.3333333  -0.3222196   0.0000000), wk =   0.0045351
        k(  151) = (   0.3333333  -0.2650338   0.0000000), wk =   0.0045351
        k(  152) = (   0.3333333  -0.2078481   0.0000000), wk =   0.0045351
        k(  153) = (   0.3333333  -0.1506624   0.0000000), wk =   0.0045351
        k(  154) = (   0.3333333  -0.0934767   0.0000000), wk =   0.0045351
        k(  155) = (   0.3333333  -0.0362909   0.0000000), wk =   0.0045351
        k(  156) = (   0.3333333   0.0208948   0.0000000), wk =   0.0045351
        k(  157) = (   0.3333333   0.0780805   0.0000000), wk =   0.0045351
        k(  158) = (   0.3333333   0.1352662   0.0000000), wk =   0.0045351
        k(  159) = (   0.3809524   0.2199451   0.0000000), wk =   0.0045351
        k(  160) = (   0.3809524   0.2771308   0.0000000), wk =   0.0045351
        k(  161) = (   0.3809524   0.3343165   0.0000000), wk =   0.0045351
        k(  162) = (   0.3809524   0.3915023   0.0000000), wk =   0.0045351
        k(  163) = (   0.3809524   0.4486880   0.0000000), wk =   0.0045351
        k(  164) = (   0.3809524   0.5058737   0.0000000), wk =   0.0045351
        k(  165) = (   0.3809524   0.5630594   0.0000000), wk =   0.0045351
        k(  166) = (   0.3809524   0.6202451   0.0000000), wk =   0.0045351
        k(  167) = (   0.3809524   0.6774309   0.0000000), wk =   0.0045351
        k(  168) = (   0.3809524   0.7346166   0.0000000), wk =   0.0045351
        k(  169) = (   0.3809524   0.7918023   0.0000000), wk =   0.0045351
        k(  170) = (   0.3809524  -0.3519121   0.0000000), wk =   0.0045351
        k(  171) = (   0.3809524  -0.2947264   0.0000000), wk =   0.0045351
        k(  172) = (   0.3809524  -0.2375407   0.0000000), wk =   0.0045351
        k(  173) = (   0.3809524  -0.1803550   0.0000000), wk =   0.0045351
        k(  174) = (   0.3809524  -0.1231692   0.0000000), wk =   0.0045351
        k(  175) = (   0.3809524  -0.0659835   0.0000000), wk =   0.0045351
        k(  176) = (   0.3809524  -0.0087978   0.0000000), wk =   0.0045351
        k(  177) = (   0.3809524   0.0483879   0.0000000), wk =   0.0045351
        k(  178) = (   0.3809524   0.1055736   0.0000000), wk =   0.0045351
        k(  179) = (   0.3809524   0.1627594   0.0000000), wk =   0.0045351
        k(  180) = (   0.4285714   0.2474382   0.0000000), wk =   0.0045351
        k(  181) = (   0.4285714   0.3046239   0.0000000), wk =   0.0045351
        k(  182) = (   0.4285714   0.3618097   0.0000000), wk =   0.0045351
        k(  183) = (   0.4285714   0.4189954   0.0000000), wk =   0.0045351
        k(  184) = (   0.4285714   0.4761811   0.0000000), wk =   0.0045351
        k(  185) = (   0.4285714   0.5333668   0.0000000), wk =   0.0045351
        k(  186) = (   0.4285714   0.5905526   0.0000000), wk =   0.0045351
        k(  187) = (   0.4285714   0.6477383   0.0000000), wk =   0.0045351
        k(  188) = (   0.4285714   0.7049240   0.0000000), wk =   0.0045351
        k(  189) = (   0.4285714   0.7621097   0.0000000), wk =   0.0045351
        k(  190) = (   0.4285714   0.8192954   0.0000000), wk =   0.0045351
        k(  191) = (   0.4285714  -0.3244190   0.0000000), wk =   0.0045351
        k(  192) = (   0.4285714  -0.2672333   0.0000000), wk =   0.0045351
        k(  193) = (   0.4285714  -0.2100476   0.0000000), wk =   0.0045351
        k(  194) = (   0.4285714  -0.1528618   0.0000000), wk =   0.0045351
        k(  195) = (   0.4285714  -0.0956761   0.0000000), wk =   0.0045351
        k(  196) = (   0.4285714  -0.0384904   0.0000000), wk =   0.0045351
        k(  197) = (   0.4285714   0.0186953   0.0000000), wk =   0.0045351
        k(  198) = (   0.4285714   0.0758811   0.0000000), wk =   0.0045351
        k(  199) = (   0.4285714   0.1330668   0.0000000), wk =   0.0045351
        k(  200) = (   0.4285714   0.1902525   0.0000000), wk =   0.0045351
        k(  201) = (   0.4761905   0.2749314   0.0000000), wk =   0.0045351
        k(  202) = (   0.4761905   0.3321171   0.0000000), wk =   0.0045351
        k(  203) = (   0.4761905   0.3893028   0.0000000), wk =   0.0045351
        k(  204) = (   0.4761905   0.4464885   0.0000000), wk =   0.0045351
        k(  205) = (   0.4761905   0.5036742   0.0000000), wk =   0.0045351
        k(  206) = (   0.4761905   0.5608600   0.0000000), wk =   0.0045351
        k(  207) = (   0.4761905   0.6180457   0.0000000), wk =   0.0045351
        k(  208) = (   0.4761905   0.6752314   0.0000000), wk =   0.0045351
        k(  209) = (   0.4761905   0.7324171   0.0000000), wk =   0.0045351
        k(  210) = (   0.4761905   0.7896029   0.0000000), wk =   0.0045351
        k(  211) = (   0.4761905   0.8467886   0.0000000), wk =   0.0045351
        k(  212) = (   0.4761905  -0.2969259   0.0000000), wk =   0.0045351
        k(  213) = (   0.4761905  -0.2397401   0.0000000), wk =   0.0045351
        k(  214) = (   0.4761905  -0.1825544   0.0000000), wk =   0.0045351
        k(  215) = (   0.4761905  -0.1253687   0.0000000), wk =   0.0045351
        k(  216) = (   0.4761905  -0.0681830   0.0000000), wk =   0.0045351
        k(  217) = (   0.4761905  -0.0109973   0.0000000), wk =   0.0045351
        k(  218) = (   0.4761905   0.0461885   0.0000000), wk =   0.0045351
        k(  219) = (   0.4761905   0.1033742   0.0000000), wk =   0.0045351
        k(  220) = (   0.4761905   0.1605599   0.0000000), wk =   0.0045351
        k(  221) = (   0.4761905   0.2177456   0.0000000), wk =   0.0045351

                       cryst. coord.
        k(    1) = (   0.0000000   0.0000000   0.0000000), wk =   0.0022676
        k(    2) = (   0.0000000   0.0476190   0.0000000), wk =   0.0045351
        k(    3) = (   0.0000000   0.0952381   0.0000000), wk =   0.0045351
        k(    4) = (   0.0000000   0.1428571   0.0000000), wk =   0.0045351
        k(    5) = (   0.0000000   0.1904762   0.0000000), wk =   0.0045351
        k(    6) = (   0.0000000   0.2380952   0.0000000), wk =   0.0045351
        k(    7) = (   0.0000000   0.2857143   0.0000000), wk =   0.0045351
        k(    8) = (   0.0000000   0.3333333   0.0000000), wk =   0.0045351
        k(    9) = (   0.0000000   0.3809524   0.0000000), wk =   0.0045351
        k(   10) = (   0.0000000   0.4285714   0.0000000), wk =   0.0045351
        k(   11) = (   0.0000000   0.4761905   0.0000000), wk =   0.0045351
        k(   12) = (   0.0476190   0.0000000   0.0000000), wk =   0.0045351
        k(   13) = (   0.0476190   0.0476190   0.0000000), wk =   0.0045351
        k(   14) = (   0.0476190   0.0952381   0.0000000), wk =   0.0045351
        k(   15) = (   0.0476190   0.1428571   0.0000000), wk =   0.0045351
        k(   16) = (   0.0476190   0.1904762   0.0000000), wk =   0.0045351
        k(   17) = (   0.0476190   0.2380952   0.0000000), wk =   0.0045351
        k(   18) = (   0.0476190   0.2857143   0.0000000), wk =   0.0045351
        k(   19) = (   0.0476190   0.3333333   0.0000000), wk =   0.0045351
        k(   20) = (   0.0476190   0.3809524   0.0000000), wk =   0.0045351
        k(   21) = (   0.0476190   0.4285714   0.0000000), wk =   0.0045351
        k(   22) = (   0.0476190   0.4761905   0.0000000), wk =   0.0045351
        k(   23) = (   0.0476190  -0.4761905   0.0000000), wk =   0.0045351
        k(   24) = (   0.0476190  -0.4285714   0.0000000), wk =   0.0045351
        k(   25) = (   0.0476190  -0.3809524   0.0000000), wk =   0.0045351
        k(   26) = (   0.0476190  -0.3333333   0.0000000), wk =   0.0045351
        k(   27) = (   0.0476190  -0.2857143   0.0000000), wk =   0.0045351
        k(   28) = (   0.0476190  -0.2380952   0.0000000), wk =   0.0045351
        k(   29) = (   0.0476190  -0.1904762   0.0000000), wk =   0.0045351
        k(   30) = (   0.0476190  -0.1428571   0.0000000), wk =   0.0045351
        k(   31) = (   0.0476190  -0.0952381   0.0000000), wk =   0.0045351
        k(   32) = (   0.0476190  -0.0476190   0.0000000), wk =   0.0045351
        k(   33) = (   0.0952381   0.0000000   0.0000000), wk =   0.0045351
        k(   34) = (   0.0952381   0.0476190   0.0000000), wk =   0.0045351
        k(   35) = (   0.0952381   0.0952381   0.0000000), wk =   0.0045351
        k(   36) = (   0.0952381   0.1428571   0.0000000), wk =   0.0045351
        k(   37) = (   0.0952381   0.1904762   0.0000000), wk =   0.0045351
        k(   38) = (   0.0952381   0.2380952   0.0000000), wk =   0.0045351
        k(   39) = (   0.0952381   0.2857143   0.0000000), wk =   0.0045351
        k(   40) = (   0.0952381   0.3333333   0.0000000), wk =   0.0045351
        k(   41) = (   0.0952381   0.3809524   0.0000000), wk =   0.0045351
        k(   42) = (   0.0952381   0.4285714   0.0000000), wk =   0.0045351
        k(   43) = (   0.0952381   0.4761905   0.0000000), wk =   0.0045351
        k(   44) = (   0.0952381  -0.4761905   0.0000000), wk =   0.0045351
        k(   45) = (   0.0952381  -0.4285714   0.0000000), wk =   0.0045351
        k(   46) = (   0.0952381  -0.3809524   0.0000000), wk =   0.0045351
        k(   47) = (   0.0952381  -0.3333333   0.0000000), wk =   0.0045351
        k(   48) = (   0.0952381  -0.2857143   0.0000000), wk =   0.0045351
        k(   49) = (   0.0952381  -0.2380952   0.0000000), wk =   0.0045351
        k(   50) = (   0.0952381  -0.1904762   0.0000000), wk =   0.0045351
        k(   51) = (   0.0952381  -0.1428571   0.0000000), wk =   0.0045351
        k(   52) = (   0.0952381  -0.0952381   0.0000000), wk =   0.0045351
        k(   53) = (   0.0952381  -0.0476190   0.0000000), wk =   0.0045351
        k(   54) = (   0.1428571   0.0000000   0.0000000), wk =   0.0045351
        k(   55) = (   0.1428571   0.0476190   0.0000000), wk =   0.0045351
        k(   56) = (   0.1428571   0.0952381   0.0000000), wk =   0.0045351
        k(   57) = (   0.1428571   0.1428571   0.0000000), wk =   0.0045351
        k(   58) = (   0.1428571   0.1904762   0.0000000), wk =   0.0045351
        k(   59) = (   0.1428571   0.2380952   0.0000000), wk =   0.0045351
        k(   60) = (   0.1428571   0.2857143   0.0000000), wk =   0.0045351
        k(   61) = (   0.1428571   0.3333333   0.0000000), wk =   0.0045351
        k(   62) = (   0.1428571   0.3809524   0.0000000), wk =   0.0045351
        k(   63) = (   0.1428571   0.4285714   0.0000000), wk =   0.0045351
        k(   64) = (   0.1428571   0.4761905   0.0000000), wk =   0.0045351
        k(   65) = (   0.1428571  -0.4761905   0.0000000), wk =   0.0045351
        k(   66) = (   0.1428571  -0.4285714   0.0000000), wk =   0.0045351
        k(   67) = (   0.1428571  -0.3809524   0.0000000), wk =   0.0045351
        k(   68) = (   0.1428571  -0.3333333   0.0000000), wk =   0.0045351
        k(   69) = (   0.1428571  -0.2857143   0.0000000), wk =   0.0045351
        k(   70) = (   0.1428571  -0.2380952   0.0000000), wk =   0.0045351
        k(   71) = (   0.1428571  -0.1904762   0.0000000), wk =   0.0045351
        k(   72) = (   0.1428571  -0.1428571   0.0000000), wk =   0.0045351
        k(   73) = (   0.1428571  -0.0952381   0.0000000), wk =   0.0045351
        k(   74) = (   0.1428571  -0.0476190   0.0000000), wk =   0.0045351
        k(   75) = (   0.1904762   0.0000000   0.0000000), wk =   0.0045351
        k(   76) = (   0.1904762   0.0476190   0.0000000), wk =   0.0045351
        k(   77) = (   0.1904762   0.0952381   0.0000000), wk =   0.0045351
        k(   78) = (   0.1904762   0.1428571   0.0000000), wk =   0.0045351
        k(   79) = (   0.1904762   0.1904762   0.0000000), wk =   0.0045351
        k(   80) = (   0.1904762   0.2380952   0.0000000), wk =   0.0045351
        k(   81) = (   0.1904762   0.2857143   0.0000000), wk =   0.0045351
        k(   82) = (   0.1904762   0.3333333   0.0000000), wk =   0.0045351
        k(   83) = (   0.1904762   0.3809524   0.0000000), wk =   0.0045351
        k(   84) = (   0.1904762   0.4285714   0.0000000), wk =   0.0045351
        k(   85) = (   0.1904762   0.4761905   0.0000000), wk =   0.0045351
        k(   86) = (   0.1904762  -0.4761905   0.0000000), wk =   0.0045351
        k(   87) = (   0.1904762  -0.4285714   0.0000000), wk =   0.0045351
        k(   88) = (   0.1904762  -0.3809524   0.0000000), wk =   0.0045351
        k(   89) = (   0.1904762  -0.3333333   0.0000000), wk =   0.0045351
        k(   90) = (   0.1904762  -0.2857143   0.0000000), wk =   0.0045351
        k(   91) = (   0.1904762  -0.2380952   0.0000000), wk =   0.0045351
        k(   92) = (   0.1904762  -0.1904762   0.0000000), wk =   0.0045351
        k(   93) = (   0.1904762  -0.1428571   0.0000000), wk =   0.0045351
        k(   94) = (   0.1904762  -0.0952381   0.0000000), wk =   0.0045351
        k(   95) = (   0.1904762  -0.0476190   0.0000000), wk =   0.0045351
        k(   96) = (   0.2380952   0.0000000   0.0000000), wk =   0.0045351
        k(   97) = (   0.2380952   0.0476190   0.0000000), wk =   0.0045351
        k(   98) = (   0.2380952   0.0952381   0.0000000), wk =   0.0045351
        k(   99) = (   0.2380952   0.1428571   0.0000000), wk =   0.0045351
        k(  100) = (   0.2380952   0.1904762   0.0000000), wk =   0.0045351
        k(  101) = (   0.2380952   0.2380952   0.0000000), wk =   0.0045351
        k(  102) = (   0.2380952   0.2857143   0.0000000), wk =   0.0045351
        k(  103) = (   0.2380952   0.3333333   0.0000000), wk =   0.0045351
        k(  104) = (   0.2380952   0.3809524   0.0000000), wk =   0.0045351
        k(  105) = (   0.2380952   0.4285714   0.0000000), wk =   0.0045351
        k(  106) = (   0.2380952   0.4761905   0.0000000), wk =   0.0045351
        k(  107) = (   0.2380952  -0.4761905   0.0000000), wk =   0.0045351
        k(  108) = (   0.2380952  -0.4285714   0.0000000), wk =   0.0045351
        k(  109) = (   0.2380952  -0.3809524   0.0000000), wk =   0.0045351
        k(  110) = (   0.2380952  -0.3333333   0.0000000), wk =   0.0045351
        k(  111) = (   0.2380952  -0.2857143   0.0000000), wk =   0.0045351
        k(  112) = (   0.2380952  -0.2380952   0.0000000), wk =   0.0045351
        k(  113) = (   0.2380952  -0.1904762   0.0000000), wk =   0.0045351
        k(  114) = (   0.2380952  -0.1428571   0.0000000), wk =   0.0045351
        k(  115) = (   0.2380952  -0.0952381   0.0000000), wk =   0.0045351
        k(  116) = (   0.2380952  -0.0476190   0.0000000), wk =   0.0045351
        k(  117) = (   0.2857143   0.0000000   0.0000000), wk =   0.0045351
        k(  118) = (   0.2857143   0.0476190   0.0000000), wk =   0.0045351
        k(  119) = (   0.2857143   0.0952381   0.0000000), wk =   0.0045351
        k(  120) = (   0.2857143   0.1428571   0.0000000), wk =   0.0045351
        k(  121) = (   0.2857143   0.1904762   0.0000000), wk =   0.0045351
        k(  122) = (   0.2857143   0.2380952   0.0000000), wk =   0.0045351
        k(  123) = (   0.2857143   0.2857143   0.0000000), wk =   0.0045351
        k(  124) = (   0.2857143   0.3333333   0.0000000), wk =   0.0045351
        k(  125) = (   0.2857143   0.3809524   0.0000000), wk =   0.0045351
        k(  126) = (   0.2857143   0.4285714   0.0000000), wk =   0.0045351
        k(  127) = (   0.2857143   0.4761905   0.0000000), wk =   0.0045351
        k(  128) = (   0.2857143  -0.4761905   0.0000000), wk =   0.0045351
        k(  129) = (   0.2857143  -0.4285714   0.0000000), wk =   0.0045351
        k(  130) = (   0.2857143  -0.3809524   0.0000000), wk =   0.0045351
        k(  131) = (   0.2857143  -0.3333333   0.0000000), wk =   0.0045351
        k(  132) = (   0.2857143  -0.2857143   0.0000000), wk =   0.0045351
        k(  133) = (   0.2857143  -0.2380952   0.0000000), wk =   0.0045351
        k(  134) = (   0.2857143  -0.1904762   0.0000000), wk =   0.0045351
        k(  135) = (   0.2857143  -0.1428571   0.0000000), wk =   0.0045351
        k(  136) = (   0.2857143  -0.0952381   0.0000000), wk =   0.0045351
        k(  137) = (   0.2857143  -0.0476190   0.0000000), wk =   0.0045351
        k(  138) = (   0.3333333  -0.0000000   0.0000000), wk =   0.0045351
        k(  139) = (   0.3333333   0.0476190   0.0000000), wk =   0.0045351
        k(  140) = (   0.3333333   0.0952381   0.0000000), wk =   0.0045351
        k(  141) = (   0.3333333   0.1428571   0.0000000), wk =   0.0045351
        k(  142) = (   0.3333333   0.1904762   0.0000000), wk =   0.0045351
        k(  143) = (   0.3333333   0.2380952   0.0000000), wk =   0.0045351
        k(  144) = (   0.3333333   0.2857143   0.0000000), wk =   0.0045351
        k(  145) = (   0.3333333   0.3333333   0.0000000), wk =   0.0045351
        k(  146) = (   0.3333333   0.3809524   0.0000000), wk =   0.0045351
        k(  147) = (   0.3333333   0.4285714   0.0000000), wk =   0.0045351
        k(  148) = (   0.3333333   0.4761905   0.0000000), wk =   0.0045351
        k(  149) = (   0.3333333  -0.4761905   0.0000000), wk =   0.0045351
        k(  150) = (   0.3333333  -0.4285714   0.0000000), wk =   0.0045351
        k(  151) = (   0.3333333  -0.3809524   0.0000000), wk =   0.0045351
        k(  152) = (   0.3333333  -0.3333333   0.0000000), wk =   0.0045351
        k(  153) = (   0.3333333  -0.2857143   0.0000000), wk =   0.0045351
        k(  154) = (   0.3333333  -0.2380952   0.0000000), wk =   0.0045351
        k(  155) = (   0.3333333  -0.1904762   0.0000000), wk =   0.0045351
        k(  156) = (   0.3333333  -0.1428571   0.0000000), wk =   0.0045351
        k(  157) = (   0.3333333  -0.0952381   0.0000000), wk =   0.0045351
        k(  158) = (   0.3333333  -0.0476190   0.0000000), wk =   0.0045351
        k(  159) = (   0.3809524   0.0000000   0.0000000), wk =   0.0045351
        k(  160) = (   0.3809524   0.0476190   0.0000000), wk =   0.0045351
        k(  161) = (   0.3809524   0.0952381   0.0000000), wk =   0.0045351
        k(  162) = (   0.3809524   0.1428571   0.0000000), wk =   0.0045351
        k(  163) = (   0.3809524   0.1904762   0.0000000), wk =   0.0045351
        k(  164) = (   0.3809524   0.2380952   0.0000000), wk =   0.0045351
        k(  165) = (   0.3809524   0.2857143   0.0000000), wk =   0.0045351
        k(  166) = (   0.3809524   0.3333333   0.0000000), wk =   0.0045351
        k(  167) = (   0.3809524   0.3809524   0.0000000), wk =   0.0045351
        k(  168) = (   0.3809524   0.4285714   0.0000000), wk =   0.0045351
        k(  169) = (   0.3809524   0.4761905   0.0000000), wk =   0.0045351
        k(  170) = (   0.3809524  -0.4761905   0.0000000), wk =   0.0045351
        k(  171) = (   0.3809524  -0.4285714   0.0000000), wk =   0.0045351
        k(  172) = (   0.3809524  -0.3809524   0.0000000), wk =   0.0045351
        k(  173) = (   0.3809524  -0.3333333   0.0000000), wk =   0.0045351
        k(  174) = (   0.3809524  -0.2857143   0.0000000), wk =   0.0045351
        k(  175) = (   0.3809524  -0.2380952   0.0000000), wk =   0.0045351
        k(  176) = (   0.3809524  -0.1904762   0.0000000), wk =   0.0045351
        k(  177) = (   0.3809524  -0.1428571   0.0000000), wk =   0.0045351
        k(  178) = (   0.3809524  -0.0952381   0.0000000), wk =   0.0045351
        k(  179) = (   0.3809524  -0.0476190   0.0000000), wk =   0.0045351
        k(  180) = (   0.4285714   0.0000000   0.0000000), wk =   0.0045351
        k(  181) = (   0.4285714   0.0476190   0.0000000), wk =   0.0045351
        k(  182) = (   0.4285714   0.0952381   0.0000000), wk =   0.0045351
        k(  183) = (   0.4285714   0.1428571   0.0000000), wk =   0.0045351
        k(  184) = (   0.4285714   0.1904762   0.0000000), wk =   0.0045351
        k(  185) = (   0.4285714   0.2380952   0.0000000), wk =   0.0045351
        k(  186) = (   0.4285714   0.2857143   0.0000000), wk =   0.0045351
        k(  187) = (   0.4285714   0.3333333   0.0000000), wk =   0.0045351
        k(  188) = (   0.4285714   0.3809524   0.0000000), wk =   0.0045351
        k(  189) = (   0.4285714   0.4285714   0.0000000), wk =   0.0045351
        k(  190) = (   0.4285714   0.4761905   0.0000000), wk =   0.0045351
        k(  191) = (   0.4285714  -0.4761905   0.0000000), wk =   0.0045351
        k(  192) = (   0.4285714  -0.4285714   0.0000000), wk =   0.0045351
        k(  193) = (   0.4285714  -0.3809524   0.0000000), wk =   0.0045351
        k(  194) = (   0.4285714  -0.3333333   0.0000000), wk =   0.0045351
        k(  195) = (   0.4285714  -0.2857143   0.0000000), wk =   0.0045351
        k(  196) = (   0.4285714  -0.2380952   0.0000000), wk =   0.0045351
        k(  197) = (   0.4285714  -0.1904762   0.0000000), wk =   0.0045351
        k(  198) = (   0.4285714  -0.1428571   0.0000000), wk =   0.0045351
        k(  199) = (   0.4285714  -0.0952381   0.0000000), wk =   0.0045351
        k(  200) = (   0.4285714  -0.0476190   0.0000000), wk =   0.0045351
        k(  201) = (   0.4761905   0.0000000   0.0000000), wk =   0.0045351
        k(  202) = (   0.4761905   0.0476190   0.0000000), wk =   0.0045351
        k(  203) = (   0.4761905   0.0952381   0.0000000), wk =   0.0045351
        k(  204) = (   0.4761905   0.1428571   0.0000000), wk =   0.0045351
        k(  205) = (   0.4761905   0.1904762   0.0000000), wk =   0.0045351
        k(  206) = (   0.4761905   0.2380952   0.0000000), wk =   0.0045351
        k(  207) = (   0.4761905   0.2857143   0.0000000), wk =   0.0045351
        k(  208) = (   0.4761905   0.3333333   0.0000000), wk =   0.0045351
        k(  209) = (   0.4761905   0.3809524   0.0000000), wk =   0.0045351
        k(  210) = (   0.4761905   0.4285714   0.0000000), wk =   0.0045351
        k(  211) = (   0.4761905   0.4761905   0.0000000), wk =   0.0045351
        k(  212) = (   0.4761905  -0.4761905   0.0000000), wk =   0.0045351
        k(  213) = (   0.4761905  -0.4285714   0.0000000), wk =   0.0045351
        k(  214) = (   0.4761905  -0.3809524   0.0000000), wk =   0.0045351
        k(  215) = (   0.4761905  -0.3333333   0.0000000), wk =   0.0045351
        k(  216) = (   0.4761905  -0.2857143   0.0000000), wk =   0.0045351
        k(  217) = (   0.4761905  -0.2380952   0.0000000), wk =   0.0045351
        k(  218) = (   0.4761905  -0.1904762   0.0000000), wk =   0.0045351
        k(  219) = (   0.4761905  -0.1428571   0.0000000), wk =   0.0045351
        k(  220) = (   0.4761905  -0.0952381   0.0000000), wk =   0.0045351
        k(  221) = (   0.4761905  -0.0476190   0.0000000), wk =   0.0045351

     Dense  grid:   782755 G-vectors     FFT dimensions: (  72,  72, 360)

     Smooth grid:   198065 G-vectors     FFT dimensions: (  45,  45, 225)

     Dynamical RAM for                 wfc:       2.45 MB

     Dynamical RAM for     wfc (w. buffer):     544.82 MB

     Dynamical RAM for           str. fact:       1.00 MB

     Dynamical RAM for           local pot:       0.00 MB

     Dynamical RAM for          nlocal pot:       2.67 MB

     Dynamical RAM for                qrad:      11.12 MB

     Dynamical RAM for          rho,v,vnew:      13.09 MB

     Dynamical RAM for               rhoin:       4.36 MB

     Dynamical RAM for            rho*nmix:      31.84 MB

     Dynamical RAM for           G-vectors:       1.93 MB

     Dynamical RAM for          h,s,v(r/c):       1.11 MB

     Dynamical RAM for          <psi|beta>:       0.40 MB

     Dynamical RAM for                 psi:       4.91 MB

     Dynamical RAM for                hpsi:       4.91 MB

     Dynamical RAM for      wfcinit/wfcrot:       3.82 MB

     Estimated static dynamical RAM per process >     585.23 MB

     Estimated max dynamical RAM per process >     628.41 MB

     Estimated total dynamical RAM >      14.73 GB

     Initial potential from superposition of free atoms

     starting charge      77.7613, renormalised to      78.0000

     negative rho (up, down):  2.729E-04 0.000E+00
     Starting wfcs are random

     total cpu time spent up to now is       33.3 secs

     Self-consistent Calculation

     iteration #  1     ecut=    70.00 Ry     beta= 0.70
     Davidson diagonalization with overlap

---- Real-time Memory Report at c_bands before calling an iterative solver
           789 MiB given to the printing process from OS
             0 MiB allocation reported by mallinfo(arena+hblkhd)
         17719 MiB available memory on the node where the printing process lives
------------------
     ethr =  1.00E-02,  avg # of iterations = 12.4

     Threshold (ethr) on eigenvalues was too large:
     Diagonalizing with lowered threshold

     Davidson diagonalization with overlap

---- Real-time Memory Report at c_bands before calling an iterative solver
           802 MiB given to the printing process from OS
             0 MiB allocation reported by mallinfo(arena+hblkhd)
         17573 MiB available memory on the node where the printing process lives
------------------
     ethr =  1.22E-04,  avg # of iterations =  6.0

     negative rho (up, down):  3.251E-06 0.000E+00

     total cpu time spent up to now is      526.6 secs

     total energy              =    -806.63255911 Ry
     estimated scf accuracy    <       0.08331317 Ry

     iteration #  2     ecut=    70.00 Ry     beta= 0.70
     Davidson diagonalization with overlap

---- Real-time Memory Report at c_bands before calling an iterative solver
           803 MiB given to the printing process from OS
             0 MiB allocation reported by mallinfo(arena+hblkhd)
         17559 MiB available memory on the node where the printing process lives
------------------
     ethr =  1.07E-04,  avg # of iterations =  5.4

     negative rho (up, down):  2.301E-05 0.000E+00

     total cpu time spent up to now is      660.5 secs

     total energy              =    -806.58652996 Ry
     estimated scf accuracy    <       0.45050806 Ry

     iteration #  3     ecut=    70.00 Ry     beta= 0.70
     Davidson diagonalization with overlap

---- Real-time Memory Report at c_bands before calling an iterative solver
           805 MiB given to the printing process from OS
             0 MiB allocation reported by mallinfo(arena+hblkhd)
         17531 MiB available memory on the node where the printing process lives
------------------
     ethr =  1.07E-04,  avg # of iterations =  5.4

     negative rho (up, down):  1.987E-05 0.000E+00

     total cpu time spent up to now is      782.7 secs

     total energy              =    -806.64441492 Ry
     estimated scf accuracy    <       0.22747390 Ry

     iteration #  4     ecut=    70.00 Ry     beta= 0.70
     Davidson diagonalization with overlap

---- Real-time Memory Report at c_bands before calling an iterative solver
           809 MiB given to the printing process from OS
             0 MiB allocation reported by mallinfo(arena+hblkhd)
         17517 MiB available memory on the node where the printing process lives
------------------
     ethr =  1.07E-04,  avg # of iterations =  3.5

     negative rho (up, down):  3.181E-06 0.000E+00

     total cpu time spent up to now is      885.0 secs

     total energy              =    -806.66834248 Ry
     estimated scf accuracy    <       0.00353319 Ry

     iteration #  5     ecut=    70.00 Ry     beta= 0.70
     Davidson diagonalization with overlap

---- Real-time Memory Report at c_bands before calling an iterative solver
           817 MiB given to the printing process from OS
             0 MiB allocation reported by mallinfo(arena+hblkhd)
         17496 MiB available memory on the node where the printing process lives
------------------
     ethr =  4.53E-06,  avg # of iterations =  6.4

     negative rho (up, down):  2.334E-06 0.000E+00

     total cpu time spent up to now is     1010.2 secs

     total energy              =    -806.66739397 Ry
     estimated scf accuracy    <       0.04148551 Ry

     iteration #  6     ecut=    70.00 Ry     beta= 0.70
     Davidson diagonalization with overlap

---- Real-time Memory Report at c_bands before calling an iterative solver
           818 MiB given to the printing process from OS
             0 MiB allocation reported by mallinfo(arena+hblkhd)
         17486 MiB available memory on the node where the printing process lives
------------------
     ethr =  4.53E-06,  avg # of iterations =  6.6

     negative rho (up, down):  3.186E-08 0.000E+00

     total cpu time spent up to now is     1122.9 secs

     total energy              =    -806.66940323 Ry
     estimated scf accuracy    <       0.00308977 Ry

     iteration #  7     ecut=    70.00 Ry     beta= 0.70
     Davidson diagonalization with overlap

---- Real-time Memory Report at c_bands before calling an iterative solver
           820 MiB given to the printing process from OS
             0 MiB allocation reported by mallinfo(arena+hblkhd)
         17471 MiB available memory on the node where the printing process lives
------------------
     ethr =  3.96E-06,  avg # of iterations =  2.8

     total cpu time spent up to now is     1215.8 secs

     total energy              =    -806.66965398 Ry
     estimated scf accuracy    <       0.00011474 Ry

     iteration #  8     ecut=    70.00 Ry     beta= 0.70
     Davidson diagonalization with overlap

---- Real-time Memory Report at c_bands before calling an iterative solver
           821 MiB given to the printing process from OS
             0 MiB allocation reported by mallinfo(arena+hblkhd)
         17460 MiB available memory on the node where the printing process lives
------------------
     ethr =  1.47E-07,  avg # of iterations =  5.8

     total cpu time spent up to now is     1332.8 secs

     total energy              =    -806.66968947 Ry
     estimated scf accuracy    <       0.00014118 Ry

     iteration #  9     ecut=    70.00 Ry     beta= 0.70
     Davidson diagonalization with overlap

---- Real-time Memory Report at c_bands before calling an iterative solver
           824 MiB given to the printing process from OS
             0 MiB allocation reported by mallinfo(arena+hblkhd)
         17445 MiB available memory on the node where the printing process lives
------------------
     ethr =  1.47E-07,  avg # of iterations =  2.0

     total cpu time spent up to now is     1421.6 secs

     total energy              =    -806.66968570 Ry
     estimated scf accuracy    <       0.00005340 Ry

     iteration # 10     ecut=    70.00 Ry     beta= 0.70
     Davidson diagonalization with overlap

---- Real-time Memory Report at c_bands before calling an iterative solver
           826 MiB given to the printing process from OS
             0 MiB allocation reported by mallinfo(arena+hblkhd)
         17433 MiB available memory on the node where the printing process lives
------------------
     ethr =  6.85E-08,  avg # of iterations =  3.7

     total cpu time spent up to now is     1518.5 secs

     total energy              =    -806.66969010 Ry
     estimated scf accuracy    <       0.00000166 Ry

     iteration # 11     ecut=    70.00 Ry     beta= 0.70
     Davidson diagonalization with overlap

---- Real-time Memory Report at c_bands before calling an iterative solver
           827 MiB given to the printing process from OS
             0 MiB allocation reported by mallinfo(arena+hblkhd)
         17423 MiB available memory on the node where the printing process lives
------------------
     ethr =  2.13E-09,  avg # of iterations =  6.0

     total cpu time spent up to now is     1638.3 secs

     total energy              =    -806.66969061 Ry
     estimated scf accuracy    <       0.00000401 Ry

     iteration # 12     ecut=    70.00 Ry     beta= 0.70
     Davidson diagonalization with overlap

---- Real-time Memory Report at c_bands before calling an iterative solver
           827 MiB given to the printing process from OS
             0 MiB allocation reported by mallinfo(arena+hblkhd)
         17412 MiB available memory on the node where the printing process lives
------------------
     ethr =  2.13E-09,  avg # of iterations =  3.5

     total cpu time spent up to now is     1735.2 secs

     total energy              =    -806.66969085 Ry
     estimated scf accuracy    <       0.00000016 Ry

     iteration # 13     ecut=    70.00 Ry     beta= 0.70
     Davidson diagonalization with overlap

---- Real-time Memory Report at c_bands before calling an iterative solver
           827 MiB given to the printing process from OS
             0 MiB allocation reported by mallinfo(arena+hblkhd)
         17410 MiB available memory on the node where the printing process lives
------------------
     ethr =  2.01E-10,  avg # of iterations =  5.8

     total cpu time spent up to now is     1849.7 secs

     total energy              =    -806.66969089 Ry
     estimated scf accuracy    <       0.00000011 Ry

     iteration # 14     ecut=    70.00 Ry     beta= 0.70
     Davidson diagonalization with overlap

---- Real-time Memory Report at c_bands before calling an iterative solver
           827 MiB given to the printing process from OS
             0 MiB allocation reported by mallinfo(arena+hblkhd)
         17411 MiB available memory on the node where the printing process lives
------------------
     ethr =  1.45E-10,  avg # of iterations =  2.2

     total cpu time spent up to now is     1939.3 secs

     End of self-consistent calculation

          k = 0.0000 0.0000 0.0000 ( 24691 PWs)   bands (ev):

   -35.6359 -35.6359 -35.6356 -35.6356 -35.6021 -35.6021 -35.6019 -35.6019
   -35.5329 -35.5329 -35.5020 -35.5020 -34.1775 -34.1775 -34.1772 -34.1772
   -34.1492 -34.1492 -34.1490 -34.1490 -34.1336 -34.1336 -34.1334 -34.1334
   -34.0714 -34.0714 -34.0541 -34.0541 -34.0308 -34.0308 -28.2850 -28.2850
   -28.2847 -28.2847 -28.2765 -28.2765 -28.2763 -28.2763 -27.0455 -27.0455
   -27.0452 -27.0452 -27.0371 -27.0371 -27.0369 -27.0369 -27.0338 -27.0338
   -27.0336 -27.0336 -10.7120 -10.7120 -10.1726 -10.1726  -9.1015  -9.1015
    -6.3659  -6.3659  -5.0226  -5.0226  -0.6466  -0.6466  -0.2270  -0.2270
     0.0688   0.0688   0.3174   0.3174   0.3956   0.3956   0.4844   0.4844
     0.7820   0.7820   1.0409   1.0409   1.2393   1.2393

     occupation numbers 
     1.0000   1.0000   1.0000   1.0000   1.0000   1.0000   1.0000   1.0000
     1.0000   1.0000   1.0000   1.0000   1.0000   1.0000   1.0000   1.0000
     1.0000   1.0000   1.0000   1.0000   1.0000   1.0000   1.0000   1.0000
     1.0000   1.0000   1.0000   1.0000   1.0000   1.0000   1.0000   1.0000
     1.0000   1.0000   1.0000   1.0000   1.0000   1.0000   1.0000   1.0000
     1.0000   1.0000   1.0000   1.0000   1.0000   1.0000   1.0000   1.0000
     1.0000   1.0000   1.0000   1.0000   1.0000   1.0000   1.0000   1.0000
     1.0000   1.0000   1.0000   1.0000   1.0000   1.0000   1.0000   1.0000
     1.0000   1.0000   1.0000   1.0000   1.0000   1.0000   1.0000   1.0000
     1.0000   1.0000   1.0000   1.0000   1.0000   1.0000

          k = 0.0000 0.0572 0.0000 ( 24710 PWs)   bands (ev):

   -35.6359 -35.6358 -35.6356 -35.6356 -35.6021 -35.6021 -35.6019 -35.6019
   -35.5329 -35.5329 -35.5020 -35.5020 -34.1775 -34.1775 -34.1772 -34.1772
   -34.1492 -34.1492 -34.1490 -34.1490 -34.1336 -34.1336 -34.1334 -34.1334
   -34.0714 -34.0714 -34.0541 -34.0541 -34.0308 -34.0308 -28.2850 -28.2850
   -28.2847 -28.2847 -28.2765 -28.2765 -28.2763 -28.2763 -27.0455 -27.0454
   -27.0452 -27.0452 -27.0371 -27.0371 -27.0369 -27.0369 -27.0338 -27.0338
   -27.0337 -27.0336 -10.6923 -10.6922 -10.1546 -10.1546  -9.0905  -9.0905
    -6.3689  -6.3689  -5.0551  -5.0551  -0.6766  -0.6766  -0.3850  -0.3847
     0.0331   0.0336   0.1419   0.1422   0.2573   0.2576   0.5119   0.5127
     0.8155   0.8157   1.0037   1.0039   1.3606   1.3608

     occupation numbers 
     1.0000   1.0000   1.0000   1.0000   1.0000   1.0000   1.0000   1.0000
     1.0000   1.0000   1.0000   1.0000   1.0000   1.0000   1.0000   1.0000
     1.0000   1.0000   1.0000   1.0000   1.0000   1.0000   1.0000   1.0000
     1.0000   1.0000   1.0000   1.0000   1.0000   1.0000   1.0000   1.0000
     1.0000   1.0000   1.0000   1.0000   1.0000   1.0000   1.0000   1.0000
     1.0000   1.0000   1.0000   1.0000   1.0000   1.0000   1.0000   1.0000
     1.0000   1.0000   1.0000   1.0000   1.0000   1.0000   1.0000   1.0000
     1.0000   1.0000   1.0000   1.0000   1.0000   1.0000   1.0000   1.0000
     1.0000   1.0000   1.0000   1.0000   1.0000   1.0000   1.0000   1.0000
     1.0000   1.0000   1.0000   1.0000   1.0000   1.0000

          k = 0.0000 0.1144 0.0000 ( 24705 PWs)   bands (ev):

   -35.6358 -35.6358 -35.6356 -35.6356 -35.6021 -35.6021 -35.6019 -35.6019
   -35.5329 -35.5329 -35.5020 -35.5020 -34.1774 -34.1774 -34.1772 -34.1772
   -34.1492 -34.1492 -34.1490 -34.1490 -34.1336 -34.1336 -34.1334 -34.1333
   -34.0714 -34.0714 -34.0541 -34.0541 -34.0307 -34.0307 -28.2849 -28.2849
   -28.2847 -28.2847 -28.2765 -28.2765 -28.2764 -28.2763 -27.0453 -27.0453
   -27.0451 -27.0451 -27.0371 -27.0371 -27.0369 -27.0368 -27.0339 -27.0338
   -27.0337 -27.0336 -10.6333 -10.6333 -10.1007 -10.1007  -9.0585  -9.0585
    -6.3799  -6.3798  -5.1525  -5.1525  -0.8137  -0.8136  -0.6773  -0.6770
    -0.2922  -0.2917  -0.0153  -0.0152   0.0935   0.0937   0.3608   0.3611
     0.7353   0.7355   1.1980   1.1981   1.4824   1.4827

     occupation numbers 
     1.0000   1.0000   1.0000   1.0000   1.0000   1.0000   1.0000   1.0000
     1.0000   1.0000   1.0000   1.0000   1.0000   1.0000   1.0000   1.0000
     1.0000   1.0000   1.0000   1.0000   1.0000   1.0000   1.0000   1.0000
     1.0000   1.0000   1.0000   1.0000   1.0000   1.0000   1.0000   1.0000
     1.0000   1.0000   1.0000   1.0000   1.0000   1.0000   1.0000   1.0000
     1.0000   1.0000   1.0000   1.0000   1.0000   1.0000   1.0000   1.0000
     1.0000   1.0000   1.0000   1.0000   1.0000   1.0000   1.0000   1.0000
     1.0000   1.0000   1.0000   1.0000   1.0000   1.0000   1.0000   1.0000
     1.0000   1.0000   1.0000   1.0000   1.0000   1.0000   1.0000   1.0000
     1.0000   1.0000   1.0000   1.0000   1.0000   1.0000

          k = 0.0000 0.1716 0.0000 ( 24721 PWs)   bands (ev):

   -35.6358 -35.6358 -35.6355 -35.6355 -35.6021 -35.6021 -35.6019 -35.6018
   -35.5329 -35.5329 -35.5019 -35.5019 -34.1774 -34.1773 -34.1771 -34.1771
   -34.1492 -34.1492 -34.1490 -34.1490 -34.1336 -34.1335 -34.1333 -34.1333
   -34.0713 -34.0713 -34.0541 -34.0541 -34.0307 -34.0307 -28.2848 -28.2848
   -28.2846 -28.2846 -28.2766 -28.2765 -28.2764 -28.2763 -27.0452 -27.0452
   -27.0449 -27.0449 -27.0371 -27.0370 -27.0369 -27.0368 -27.0340 -27.0338
   -27.0338 -27.0336 -10.5360 -10.5360 -10.0121 -10.0121  -9.0078  -9.0078
    -6.4045  -6.4045  -5.3128  -5.3128  -1.2024  -1.2022  -0.8503  -0.8501
    -0.6269  -0.6265  -0.2413  -0.2412  -0.1510  -0.1508   0.2429   0.2432
     0.7255   0.7257   1.1864   1.1866   1.4667   1.4670

     occupation numbers 
     1.0000   1.0000   1.0000   1.0000   1.0000   1.0000   1.0000   1.0000
     1.0000   1.0000   1.0000   1.0000   1.0000   1.0000   1.0000   1.0000
     1.0000   1.0000   1.0000   1.0000   1.0000   1.0000   1.0000   1.0000
     1.0000   1.0000   1.0000   1.0000   1.0000   1.0000   1.0000   1.0000
     1.0000   1.0000   1.0000   1.0000   1.0000   1.0000   1.0000   1.0000
     1.0000   1.0000   1.0000   1.0000   1.0000   1.0000   1.0000   1.0000
     1.0000   1.0000   1.0000   1.0000   1.0000   1.0000   1.0000   1.0000
     1.0000   1.0000   1.0000   1.0000   1.0000   1.0000   1.0000   1.0000
     1.0000   1.0000   1.0000   1.0000   1.0000   1.0000   1.0000   1.0000
     1.0000   1.0000   1.0000   1.0000   1.0000   1.0000

          k = 0.0000 0.2287 0.0000 ( 24747 PWs)   bands (ev):

   -35.6357 -35.6357 -35.6355 -35.6355 -35.6021 -35.6020 -35.6019 -35.6018
   -35.5329 -35.5329 -35.5018 -35.5018 -34.1773 -34.1772 -34.1770 -34.1770
   -34.1492 -34.1492 -34.1490 -34.1490 -34.1335 -34.1335 -34.1333 -34.1332
   -34.0713 -34.0713 -34.0541 -34.0541 -34.0305 -34.0305 -28.2847 -28.2847
   -28.2845 -28.2845 -28.2766 -28.2765 -28.2764 -28.2763 -27.0449 -27.0449
   -27.0447 -27.0447 -27.0371 -27.0370 -27.0369 -27.0368 -27.0341 -27.0339
   -27.0338 -27.0336 -10.4015 -10.4015  -9.8912  -9.8912  -8.9428  -8.9428
    -6.4520  -6.4520  -5.5294  -5.5294  -1.6395  -1.6393  -1.0335  -1.0334
    -0.9314  -0.9313  -0.4947  -0.4945  -0.3608  -0.3606   0.1890   0.1893
     0.6309   0.6312   0.9339   0.9342   1.5591   1.5593

     occupation numbers 
     1.0000   1.0000   1.0000   1.0000   1.0000   1.0000   1.0000   1.0000
     1.0000   1.0000   1.0000   1.0000   1.0000   1.0000   1.0000   1.0000
     1.0000   1.0000   1.0000   1.0000   1.0000   1.0000   1.0000   1.0000
     1.0000   1.0000   1.0000   1.0000   1.0000   1.0000   1.0000   1.0000
     1.0000   1.0000   1.0000   1.0000   1.0000   1.0000   1.0000   1.0000
     1.0000   1.0000   1.0000   1.0000   1.0000   1.0000   1.0000   1.0000
     1.0000   1.0000   1.0000   1.0000   1.0000   1.0000   1.0000   1.0000
     1.0000   1.0000   1.0000   1.0000   1.0000   1.0000   1.0000   1.0000
     1.0000   1.0000   1.0000   1.0000   1.0000   1.0000   1.0000   1.0000
     1.0000   1.0000   1.0000   1.0000   1.0000   1.0000

          k = 0.0000 0.2859 0.0000 ( 24780 PWs)   bands (ev):

   -35.6357 -35.6356 -35.6354 -35.6354 -35.6021 -35.6020 -35.6018 -35.6018
   -35.5329 -35.5329 -35.5018 -35.5018 -34.1772 -34.1771 -34.1769 -34.1769
   -34.1492 -34.1492 -34.1490 -34.1490 -34.1335 -34.1334 -34.1332 -34.1332
   -34.0713 -34.0713 -34.0541 -34.0541 -34.0304 -34.0304 -28.2846 -28.2845
   -28.2844 -28.2843 -28.2767 -28.2766 -28.2764 -28.2763 -27.0447 -27.0447
   -27.0445 -27.0445 -27.0371 -27.0370 -27.0369 -27.0368 -27.0341 -27.0340
   -27.0338 -27.0337 -10.2321 -10.2321  -9.7415  -9.7415  -8.8703  -8.8703
    -6.5339  -6.5339  -5.7883  -5.7883  -2.0454  -2.0453  -1.2993  -1.2990
    -1.1363  -1.1359  -0.7043  -0.7041  -0.5414  -0.5413   0.1482   0.1485
     0.3856   0.3858   0.8234   0.8236   1.5158   1.5160

     occupation numbers 
     1.0000   1.0000   1.0000   1.0000   1.0000   1.0000   1.0000   1.0000
     1.0000   1.0000   1.0000   1.0000   1.0000   1.0000   1.0000   1.0000
     1.0000   1.0000   1.0000   1.0000   1.0000   1.0000   1.0000   1.0000
     1.0000   1.0000   1.0000   1.0000   1.0000   1.0000   1.0000   1.0000
     1.0000   1.0000   1.0000   1.0000   1.0000   1.0000   1.0000   1.0000
     1.0000   1.0000   1.0000   1.0000   1.0000   1.0000   1.0000   1.0000
     1.0000   1.0000   1.0000   1.0000   1.0000   1.0000   1.0000   1.0000
     1.0000   1.0000   1.0000   1.0000   1.0000   1.0000   1.0000   1.0000
     1.0000   1.0000   1.0000   1.0000   1.0000   1.0000   1.0000   1.0000
     1.0000   1.0000   1.0000   1.0000   1.0000   1.0000

          k = 0.0000 0.3431 0.0000 ( 24786 PWs)   bands (ev):

   -35.6356 -35.6356 -35.6354 -35.6353 -35.6020 -35.6020 -35.6018 -35.6018
   -35.5328 -35.5328 -35.5017 -35.5017 -34.1770 -34.1770 -34.1768 -34.1768
   -34.1492 -34.1492 -34.1490 -34.1490 -34.1334 -34.1334 -34.1332 -34.1331
   -34.0713 -34.0713 -34.0541 -34.0541 -34.0303 -34.0303 -28.2845 -28.2844
   -28.2843 -28.2842 -28.2767 -28.2766 -28.2765 -28.2763 -27.0445 -27.0445
   -27.0443 -27.0443 -27.0372 -27.0370 -27.0369 -27.0368 -27.0342 -27.0340
   -27.0338 -27.0337 -10.0311 -10.0311  -9.5687  -9.5687  -8.8001  -8.8001
    -6.6610  -6.6610  -6.0669  -6.0668  -2.3957  -2.3956  -1.5536  -1.5534
    -1.2996  -1.2992  -0.8582  -0.8579  -0.7096  -0.7094   0.0155   0.0157
     0.2256   0.2258   0.7729   0.7730   1.3603   1.3605

     occupation numbers 
     1.0000   1.0000   1.0000   1.0000   1.0000   1.0000   1.0000   1.0000
     1.0000   1.0000   1.0000   1.0000   1.0000   1.0000   1.0000   1.0000
     1.0000   1.0000   1.0000   1.0000   1.0000   1.0000   1.0000   1.0000
     1.0000   1.0000   1.0000   1.0000   1.0000   1.0000   1.0000   1.0000
     1.0000   1.0000   1.0000   1.0000   1.0000   1.0000   1.0000   1.0000
     1.0000   1.0000   1.0000   1.0000   1.0000   1.0000   1.0000   1.0000
     1.0000   1.0000   1.0000   1.0000   1.0000   1.0000   1.0000   1.0000
     1.0000   1.0000   1.0000   1.0000   1.0000   1.0000   1.0000   1.0000
     1.0000   1.0000   1.0000   1.0000   1.0000   1.0000   1.0000   1.0000
     1.0000   1.0000   1.0000   1.0000   1.0000   1.0000

          k = 0.0000 0.4003 0.0000 ( 24803 PWs)   bands (ev):

   -35.6355 -35.6355 -35.6353 -35.6353 -35.6020 -35.6020 -35.6018 -35.6018
   -35.5328 -35.5328 -35.5016 -35.5016 -34.1769 -34.1769 -34.1767 -34.1767
   -34.1492 -34.1492 -34.1490 -34.1490 -34.1334 -34.1333 -34.1331 -34.1331
   -34.0713 -34.0713 -34.0541 -34.0541 -34.0302 -34.0302 -28.2843 -28.2843
   -28.2842 -28.2841 -28.2767 -28.2766 -28.2765 -28.2764 -27.0443 -27.0443
   -27.0441 -27.0441 -27.0372 -27.0370 -27.0369 -27.0368 -27.0341 -27.0340
   -27.0338 -27.0337  -9.8037  -9.8037  -9.3820  -9.3820  -8.7466  -8.7466
    -6.8366  -6.8366  -6.3356  -6.3356  -2.6811  -2.6810  -1.7418  -1.7416
    -1.4456  -1.4452  -0.9783  -0.9780  -0.8658  -0.8657  -0.1757  -0.1755
     0.1836   0.1838   0.7438   0.7440   1.1725   1.1727

     occupation numbers 
     1.0000   1.0000   1.0000   1.0000   1.0000   1.0000   1.0000   1.0000
     1.0000   1.0000   1.0000   1.0000   1.0000   1.0000   1.0000   1.0000
     1.0000   1.0000   1.0000   1.0000   1.0000   1.0000   1.0000   1.0000
     1.0000   1.0000   1.0000   1.0000   1.0000   1.0000   1.0000   1.0000
     1.0000   1.0000   1.0000   1.0000   1.0000   1.0000   1.0000   1.0000
     1.0000   1.0000   1.0000   1.0000   1.0000   1.0000   1.0000   1.0000
     1.0000   1.0000   1.0000   1.0000   1.0000   1.0000   1.0000   1.0000
     1.0000   1.0000   1.0000   1.0000   1.0000   1.0000   1.0000   1.0000
     1.0000   1.0000   1.0000   1.0000   1.0000   1.0000   1.0000   1.0000
     1.0000   1.0000   1.0000   1.0000   1.0000   1.0000

          k = 0.0000 0.4575 0.0000 ( 24803 PWs)   bands (ev):

   -35.6355 -35.6355 -35.6352 -35.6352 -35.6020 -35.6020 -35.6018 -35.6017
   -35.5328 -35.5328 -35.5016 -35.5016 -34.1769 -34.1768 -34.1766 -34.1766
   -34.1492 -34.1492 -34.1490 -34.1490 -34.1333 -34.1333 -34.1331 -34.1330
   -34.0712 -34.0712 -34.0541 -34.0541 -34.0301 -34.0301 -28.2842 -28.2842
   -28.2840 -28.2840 -28.2767 -28.2766 -28.2765 -28.2764 -27.0441 -27.0441
   -27.0440 -27.0440 -27.0372 -27.0371 -27.0370 -27.0369 -27.0341 -27.0340
   -27.0338 -27.0337  -9.5584  -9.5584  -9.1967  -9.1967  -8.7290  -8.7290
    -7.0431  -7.0431  -6.5673  -6.5673  -2.8988  -2.8988  -1.8494  -1.8492
    -1.5711  -1.5709  -1.1017  -1.1015  -0.9888  -0.9887  -0.2957  -0.2956
     0.1433   0.1435   0.7331   0.7333   1.0084   1.0085

     occupation numbers 
     1.0000   1.0000   1.0000   1.0000   1.0000   1.0000   1.0000   1.0000
     1.0000   1.0000   1.0000   1.0000   1.0000   1.0000   1.0000   1.0000
     1.0000   1.0000   1.0000   1.0000   1.0000   1.0000   1.0000   1.0000
     1.0000   1.0000   1.0000   1.0000   1.0000   1.0000   1.0000   1.0000
     1.0000   1.0000   1.0000   1.0000   1.0000   1.0000   1.0000   1.0000
     1.0000   1.0000   1.0000   1.0000   1.0000   1.0000   1.0000   1.0000
     1.0000   1.0000   1.0000   1.0000   1.0000   1.0000   1.0000   1.0000
     1.0000   1.0000   1.0000   1.0000   1.0000   1.0000   1.0000   1.0000
     1.0000   1.0000   1.0000   1.0000   1.0000   1.0000   1.0000   1.0000
     1.0000   1.0000   1.0000   1.0000   1.0000   1.0000

          k = 0.0000 0.5147 0.0000 ( 24811 PWs)   bands (ev):

   -35.6354 -35.6354 -35.6352 -35.6352 -35.6020 -35.6020 -35.6017 -35.6017
   -35.5328 -35.5328 -35.5015 -35.5015 -34.1768 -34.1768 -34.1765 -34.1765
   -34.1492 -34.1492 -34.1490 -34.1490 -34.1333 -34.1333 -34.1330 -34.1330
   -34.0712 -34.0712 -34.0541 -34.0541 -34.0300 -34.0300 -28.2842 -28.2841
   -28.2840 -28.2839 -28.2767 -28.2767 -28.2765 -28.2765 -27.0440 -27.0440
   -27.0439 -27.0439 -27.0371 -27.0371 -27.0370 -27.0369 -27.0341 -27.0340
   -27.0338 -27.0337  -9.3087  -9.3087  -9.0377  -9.0377  -8.7704  -8.7704
    -7.2340  -7.2340  -6.7417  -6.7417  -3.0473  -3.0472  -1.8782  -1.8780
    -1.6770  -1.6768  -1.2311  -1.2310  -1.0597  -1.0596  -0.3433  -0.3432
     0.0949   0.0951   0.7293   0.7294   0.8998   0.8999

     occupation numbers 
     1.0000   1.0000   1.0000   1.0000   1.0000   1.0000   1.0000   1.0000
     1.0000   1.0000   1.0000   1.0000   1.0000   1.0000   1.0000   1.0000
     1.0000   1.0000   1.0000   1.0000   1.0000   1.0000   1.0000   1.0000
     1.0000   1.0000   1.0000   1.0000   1.0000   1.0000   1.0000   1.0000
     1.0000   1.0000   1.0000   1.0000   1.0000   1.0000   1.0000   1.0000
     1.0000   1.0000   1.0000   1.0000   1.0000   1.0000   1.0000   1.0000
     1.0000   1.0000   1.0000   1.0000   1.0000   1.0000   1.0000   1.0000
     1.0000   1.0000   1.0000   1.0000   1.0000   1.0000   1.0000   1.0000
     1.0000   1.0000   1.0000   1.0000   1.0000   1.0000   1.0000   1.0000
     1.0000   1.0000   1.0000   1.0000   1.0000   1.0000

          k = 0.0000 0.5719 0.0000 ( 24789 PWs)   bands (ev):

   -35.6354 -35.6354 -35.6352 -35.6352 -35.6020 -35.6020 -35.6017 -35.6017
   -35.5328 -35.5328 -35.5015 -35.5015 -34.1768 -34.1767 -34.1765 -34.1765
   -34.1492 -34.1492 -34.1490 -34.1490 -34.1333 -34.1332 -34.1330 -34.1330
   -34.0712 -34.0712 -34.0541 -34.0541 -34.0300 -34.0300 -28.2841 -28.2841
   -28.2839 -28.2839 -28.2767 -28.2767 -28.2765 -28.2765 -27.0440 -27.0440
   -27.0438 -27.0438 -27.0371 -27.0371 -27.0369 -27.0369 -27.0340 -27.0340
   -27.0337 -27.0337  -9.0759  -9.0759  -8.9413  -8.9413  -8.8869  -8.8869
    -7.3507  -7.3507  -6.8380  -6.8380  -3.1230  -3.1230  -1.8447  -1.8446
    -1.7673  -1.7672  -1.3137  -1.3137  -1.0926  -1.0925  -0.3517  -0.3517
     0.0585   0.0585   0.7211   0.7211   0.8559   0.8560

     occupation numbers 
     1.0000   1.0000   1.0000   1.0000   1.0000   1.0000   1.0000   1.0000
     1.0000   1.0000   1.0000   1.0000   1.0000   1.0000   1.0000   1.0000
     1.0000   1.0000   1.0000   1.0000   1.0000   1.0000   1.0000   1.0000
     1.0000   1.0000   1.0000   1.0000   1.0000   1.0000   1.0000   1.0000
     1.0000   1.0000   1.0000   1.0000   1.0000   1.0000   1.0000   1.0000
     1.0000   1.0000   1.0000   1.0000   1.0000   1.0000   1.0000   1.0000
     1.0000   1.0000   1.0000   1.0000   1.0000   1.0000   1.0000   1.0000
     1.0000   1.0000   1.0000   1.0000   1.0000   1.0000   1.0000   1.0000
     1.0000   1.0000   1.0000   1.0000   1.0000   1.0000   1.0000   1.0000
     1.0000   1.0000   1.0000   1.0000   1.0000   1.0000

          k = 0.0476 0.0275 0.0000 ( 24716 PWs)   bands (ev):

   -35.6359 -35.6358 -35.6356 -35.6356 -35.6021 -35.6021 -35.6019 -35.6019
   -35.5329 -35.5329 -35.5020 -35.5020 -34.1775 -34.1775 -34.1772 -34.1772
   -34.1492 -34.1492 -34.1490 -34.1490 -34.1336 -34.1336 -34.1334 -34.1334
   -34.0714 -34.0714 -34.0541 -34.0541 -34.0308 -34.0308 -28.2850 -28.2850
   -28.2847 -28.2847 -28.2765 -28.2765 -28.2763 -28.2763 -27.0455 -27.0455
   -27.0452 -27.0452 -27.0371 -27.0371 -27.0369 -27.0369 -27.0338 -27.0338
   -27.0336 -27.0336 -10.6937 -10.6937 -10.1561 -10.1561  -9.0919  -9.0919
    -6.3708  -6.3708  -5.0599  -5.0599  -0.6848  -0.6847  -0.4456  -0.4454
     0.0559   0.0564   0.1029   0.1032   0.3390   0.3395   0.5601   0.5610
     0.8281   0.8286   1.0140   1.0145   1.3448   1.3452

     occupation numbers 
     1.0000   1.0000   1.0000   1.0000   1.0000   1.0000   1.0000   1.0000
     1.0000   1.0000   1.0000   1.0000   1.0000   1.0000   1.0000   1.0000
     1.0000   1.0000   1.0000   1.0000   1.0000   1.0000   1.0000   1.0000
     1.0000   1.0000   1.0000   1.0000   1.0000   1.0000   1.0000   1.0000
     1.0000   1.0000   1.0000   1.0000   1.0000   1.0000   1.0000   1.0000
     1.0000   1.0000   1.0000   1.0000   1.0000   1.0000   1.0000   1.0000
     1.0000   1.0000   1.0000   1.0000   1.0000   1.0000   1.0000   1.0000
     1.0000   1.0000   1.0000   1.0000   1.0000   1.0000   1.0000   1.0000
     1.0000   1.0000   1.0000   1.0000   1.0000   1.0000   1.0000   1.0000
     1.0000   1.0000   1.0000   1.0000   1.0000   1.0000

          k = 0.0476 0.0847 0.0000 ( 24712 PWs)   bands (ev):

   -35.6358 -35.6358 -35.6356 -35.6356 -35.6021 -35.6021 -35.6019 -35.6019
   -35.5329 -35.5329 -35.5020 -35.5020 -34.1775 -34.1774 -34.1772 -34.1772
   -34.1492 -34.1492 -34.1490 -34.1490 -34.1336 -34.1336 -34.1334 -34.1334
   -34.0714 -34.0714 -34.0541 -34.0541 -34.0308 -34.0308 -28.2850 -28.2849
   -28.2847 -28.2847 -28.2765 -28.2765 -28.2763 -28.2763 -27.0454 -27.0454
   -27.0452 -27.0452 -27.0371 -27.0371 -27.0369 -27.0368 -27.0338 -27.0338
   -27.0337 -27.0336 -10.6551 -10.6551 -10.1209 -10.1209  -9.0711  -9.0711
    -6.3788  -6.3788  -5.1274  -5.1274  -0.7704  -0.7702  -0.6634  -0.6630
    -0.2102  -0.2096   0.0443   0.0448   0.2385   0.2389   0.4310   0.4315
     0.7909   0.7911   1.1260   1.1262   1.4731   1.4733

     occupation numbers 
     1.0000   1.0000   1.0000   1.0000   1.0000   1.0000   1.0000   1.0000
     1.0000   1.0000   1.0000   1.0000   1.0000   1.0000   1.0000   1.0000
     1.0000   1.0000   1.0000   1.0000   1.0000   1.0000   1.0000   1.0000
     1.0000   1.0000   1.0000   1.0000   1.0000   1.0000   1.0000   1.0000
     1.0000   1.0000   1.0000   1.0000   1.0000   1.0000   1.0000   1.0000
     1.0000   1.0000   1.0000   1.0000   1.0000   1.0000   1.0000   1.0000
     1.0000   1.0000   1.0000   1.0000   1.0000   1.0000   1.0000   1.0000
     1.0000   1.0000   1.0000   1.0000   1.0000   1.0000   1.0000   1.0000
     1.0000   1.0000   1.0000   1.0000   1.0000   1.0000   1.0000   1.0000
     1.0000   1.0000   1.0000   1.0000   1.0000   1.0000

          k = 0.0476 0.1419 0.0000 ( 24732 PWs)   bands (ev):

   -35.6358 -35.6358 -35.6356 -35.6356 -35.6021 -35.6021 -35.6019 -35.6018
   -35.5329 -35.5329 -35.5019 -35.5019 -34.1774 -34.1774 -34.1771 -34.1771
   -34.1492 -34.1492 -34.1490 -34.1490 -34.1336 -34.1336 -34.1334 -34.1333
   -34.0714 -34.0714 -34.0541 -34.0541 -34.0307 -34.0307 -28.2849 -28.2848
   -28.2847 -28.2846 -28.2766 -28.2765 -28.2764 -28.2763 -27.0453 -27.0452
   -27.0450 -27.0450 -27.0372 -27.0371 -27.0369 -27.0368 -27.0339 -27.0338
   -27.0337 -27.0336 -10.5777 -10.5777 -10.0505 -10.0505  -9.0304  -9.0304
    -6.3975  -6.3975  -5.2580  -5.2580  -1.0519  -1.0517  -0.8269  -0.8268
    -0.5788  -0.5784  -0.1715  -0.1712   0.1093   0.1095   0.2901   0.2903
     0.6947   0.6948   1.2802   1.2805   1.4752   1.4756

     occupation numbers 
     1.0000   1.0000   1.0000   1.0000   1.0000   1.0000   1.0000   1.0000
     1.0000   1.0000   1.0000   1.0000   1.0000   1.0000   1.0000   1.0000
     1.0000   1.0000   1.0000   1.0000   1.0000   1.0000   1.0000   1.0000
     1.0000   1.0000   1.0000   1.0000   1.0000   1.0000   1.0000   1.0000
     1.0000   1.0000   1.0000   1.0000   1.0000   1.0000   1.0000   1.0000
     1.0000   1.0000   1.0000   1.0000   1.0000   1.0000   1.0000   1.0000
     1.0000   1.0000   1.0000   1.0000   1.0000   1.0000   1.0000   1.0000
     1.0000   1.0000   1.0000   1.0000   1.0000   1.0000   1.0000   1.0000
     1.0000   1.0000   1.0000   1.0000   1.0000   1.0000   1.0000   1.0000
     1.0000   1.0000   1.0000   1.0000   1.0000   1.0000

          k = 0.0476 0.1991 0.0000 ( 24760 PWs)   bands (ev):

   -35.6358 -35.6357 -35.6355 -35.6355 -35.6021 -35.6020 -35.6019 -35.6018
   -35.5329 -35.5329 -35.5019 -35.5019 -34.1773 -34.1773 -34.1771 -34.1770
   -34.1492 -34.1492 -34.1490 -34.1490 -34.1336 -34.1335 -34.1333 -34.1333
   -34.0713 -34.0713 -34.0541 -34.0541 -34.0306 -34.0306 -28.2848 -28.2847
   -28.2846 -28.2845 -28.2766 -28.2765 -28.2764 -28.2763 -27.0451 -27.0450
   -27.0449 -27.0448 -27.0372 -27.0371 -27.0369 -27.0368 -27.0340 -27.0339
   -27.0338 -27.0336 -10.4625 -10.4625  -9.9465  -9.9465  -8.9730  -8.9730
    -6.4338  -6.4337  -5.4476  -5.4476  -1.4371  -1.4369  -1.0362  -1.0362
    -0.8518  -0.8517  -0.4211  -0.4209  -0.1232  -0.1229   0.1656   0.1658
     0.6695   0.6696   1.1181   1.1183   1.5441   1.5443

     occupation numbers 
     1.0000   1.0000   1.0000   1.0000   1.0000   1.0000   1.0000   1.0000
     1.0000   1.0000   1.0000   1.0000   1.0000   1.0000   1.0000   1.0000
     1.0000   1.0000   1.0000   1.0000   1.0000   1.0000   1.0000   1.0000
     1.0000   1.0000   1.0000   1.0000   1.0000   1.0000   1.0000   1.0000
     1.0000   1.0000   1.0000   1.0000   1.0000   1.0000   1.0000   1.0000
     1.0000   1.0000   1.0000   1.0000   1.0000   1.0000   1.0000   1.0000
     1.0000   1.0000   1.0000   1.0000   1.0000   1.0000   1.0000   1.0000
     1.0000   1.0000   1.0000   1.0000   1.0000   1.0000   1.0000   1.0000
     1.0000   1.0000   1.0000   1.0000   1.0000   1.0000   1.0000   1.0000
     1.0000   1.0000   1.0000   1.0000   1.0000   1.0000

          k = 0.0476 0.2562 0.0000 ( 24781 PWs)   bands (ev):

   -35.6357 -35.6357 -35.6355 -35.6354 -35.6021 -35.6020 -35.6018 -35.6018
   -35.5328 -35.5328 -35.5018 -35.5018 -34.1772 -34.1772 -34.1770 -34.1769
   -34.1492 -34.1492 -34.1490 -34.1490 -34.1335 -34.1335 -34.1333 -34.1332
   -34.0713 -34.0713 -34.0541 -34.0541 -34.0305 -34.0305 -28.2847 -28.2846
   -28.2845 -28.2844 -28.2767 -28.2765 -28.2764 -28.2763 -27.0449 -27.0448
   -27.0447 -27.0446 -27.0372 -27.0371 -27.0369 -27.0368 -27.0341 -27.0339
   -27.0338 -27.0336 -10.3111 -10.3111  -9.8117  -9.8117  -8.9042  -8.9042
    -6.4976  -6.4976  -5.6863  -5.6863  -1.8400  -1.8398  -1.3046  -1.3045
    -1.0163  -1.0161  -0.6711  -0.6708  -0.3732  -0.3730   0.0835   0.0836
     0.6050   0.6050   0.8853   0.8855   1.5603   1.5605

     occupation numbers 
     1.0000   1.0000   1.0000   1.0000   1.0000   1.0000   1.0000   1.0000
     1.0000   1.0000   1.0000   1.0000   1.0000   1.0000   1.0000   1.0000
     1.0000   1.0000   1.0000   1.0000   1.0000   1.0000   1.0000   1.0000
     1.0000   1.0000   1.0000   1.0000   1.0000   1.0000   1.0000   1.0000
     1.0000   1.0000   1.0000   1.0000   1.0000   1.0000   1.0000   1.0000
     1.0000   1.0000   1.0000   1.0000   1.0000   1.0000   1.0000   1.0000
     1.0000   1.0000   1.0000   1.0000   1.0000   1.0000   1.0000   1.0000
     1.0000   1.0000   1.0000   1.0000   1.0000   1.0000   1.0000   1.0000
     1.0000   1.0000   1.0000   1.0000   1.0000   1.0000   1.0000   1.0000
     1.0000   1.0000   1.0000   1.0000   1.0000   1.0000

          k = 0.0476 0.3134 0.0000 ( 24768 PWs)   bands (ev):

   -35.6356 -35.6356 -35.6354 -35.6354 -35.6020 -35.6020 -35.6018 -35.6018
   -35.5328 -35.5328 -35.5017 -35.5017 -34.1771 -34.1771 -34.1769 -34.1768
   -34.1492 -34.1492 -34.1490 -34.1490 -34.1335 -34.1334 -34.1332 -34.1332
   -34.0713 -34.0713 -34.0541 -34.0541 -34.0304 -34.0304 -28.2846 -28.2845
   -28.2844 -28.2843 -28.2767 -28.2766 -28.2764 -28.2763 -27.0446 -27.0446
   -27.0445 -27.0444 -27.0372 -27.0371 -27.0369 -27.0368 -27.0341 -27.0340
   -27.0338 -27.0337 -10.1262 -10.1262  -9.6505  -9.6505  -8.8321  -8.8321
    -6.6001  -6.6000  -5.9566  -5.9566  -2.2134  -2.2133  -1.5335  -1.5333
    -1.1813  -1.1810  -0.9038  -0.9035  -0.5565  -0.5564  -0.0118  -0.0117
     0.4429   0.4431   0.7725   0.7726   1.4661   1.4663

     occupation numbers 
     1.0000   1.0000   1.0000   1.0000   1.0000   1.0000   1.0000   1.0000
     1.0000   1.0000   1.0000   1.0000   1.0000   1.0000   1.0000   1.0000
     1.0000   1.0000   1.0000   1.0000   1.0000   1.0000   1.0000   1.0000
     1.0000   1.0000   1.0000   1.0000   1.0000   1.0000   1.0000   1.0000
     1.0000   1.0000   1.0000   1.0000   1.0000   1.0000   1.0000   1.0000
     1.0000   1.0000   1.0000   1.0000   1.0000   1.0000   1.0000   1.0000
     1.0000   1.0000   1.0000   1.0000   1.0000   1.0000   1.0000   1.0000
     1.0000   1.0000   1.0000   1.0000   1.0000   1.0000   1.0000   1.0000
     1.0000   1.0000   1.0000   1.0000   1.0000   1.0000   1.0000   1.0000
     1.0000   1.0000   1.0000   1.0000   1.0000   1.0000

          k = 0.0476 0.3706 0.0000 ( 24793 PWs)   bands (ev):

   -35.6356 -35.6355 -35.6353 -35.6353 -35.6020 -35.6020 -35.6018 -35.6018
   -35.5328 -35.5328 -35.5017 -35.5017 -34.1770 -34.1770 -34.1768 -34.1767
   -34.1492 -34.1492 -34.1490 -34.1490 -34.1334 -34.1333 -34.1332 -34.1331
   -34.0713 -34.0713 -34.0541 -34.0541 -34.0303 -34.0303 -28.2844 -28.2843
   -28.2842 -28.2841 -28.2767 -28.2766 -28.2765 -28.2763 -27.0444 -27.0444
   -27.0443 -27.0442 -27.0372 -27.0371 -27.0369 -27.0368 -27.0341 -27.0340
   -27.0338 -27.0337  -9.9121  -9.9121  -9.4703  -9.4703  -8.7682  -8.7682
    -6.7494  -6.7494  -6.2327  -6.2327  -2.5319  -2.5318  -1.7043  -1.7042
    -1.3657  -1.3655  -1.0890  -1.0887  -0.6792  -0.6791  -0.1532  -0.1531
     0.2965   0.2968   0.7355   0.7356   1.3055   1.3057

     occupation numbers 
     1.0000   1.0000   1.0000   1.0000   1.0000   1.0000   1.0000   1.0000
     1.0000   1.0000   1.0000   1.0000   1.0000   1.0000   1.0000   1.0000
     1.0000   1.0000   1.0000   1.0000   1.0000   1.0000   1.0000   1.0000
     1.0000   1.0000   1.0000   1.0000   1.0000   1.0000   1.0000   1.0000
     1.0000   1.0000   1.0000   1.0000   1.0000   1.0000   1.0000   1.0000
     1.0000   1.0000   1.0000   1.0000   1.0000   1.0000   1.0000   1.0000
     1.0000   1.0000   1.0000   1.0000   1.0000   1.0000   1.0000   1.0000
     1.0000   1.0000   1.0000   1.0000   1.0000   1.0000   1.0000   1.0000
     1.0000   1.0000   1.0000   1.0000   1.0000   1.0000   1.0000   1.0000
     1.0000   1.0000   1.0000   1.0000   1.0000   1.0000

          k = 0.0476 0.4278 0.0000 ( 24812 PWs)   bands (ev):

   -35.6355 -35.6355 -35.6353 -35.6352 -35.6020 -35.6020 -35.6018 -35.6017
   -35.5328 -35.5328 -35.5016 -35.5016 -34.1769 -34.1769 -34.1767 -34.1766
   -34.1492 -34.1492 -34.1490 -34.1490 -34.1333 -34.1333 -34.1331 -34.1331
   -34.0712 -34.0712 -34.0541 -34.0541 -34.0302 -34.0302 -28.2843 -28.2842
   -28.2841 -28.2840 -28.2767 -28.2766 -28.2765 -28.2764 -27.0443 -27.0442
   -27.0441 -27.0440 -27.0372 -27.0371 -27.0369 -27.0368 -27.0341 -27.0340
   -27.0338 -27.0337  -9.6753  -9.6753  -9.2825  -9.2825  -8.7290  -8.7290
    -6.9418  -6.9418  -6.4846  -6.4846  -2.7849  -2.7849  -1.8155  -1.8155
    -1.5352  -1.5350  -1.2321  -1.2319  -0.7787  -0.7786  -0.3031  -0.3029
     0.2151   0.2154   0.7213   0.7214   1.1337   1.1338

     occupation numbers 
     1.0000   1.0000   1.0000   1.0000   1.0000   1.0000   1.0000   1.0000
[...]
   -27.0334 -27.0334  -9.0233  -9.0232  -9.0104  -9.0104  -8.9756  -8.9755
    -7.4016  -7.4016  -6.8695  -6.8695  -3.1108  -3.1108  -1.8428  -1.8423
    -1.7288  -1.7283  -1.3826  -1.3823  -0.9234  -0.9230  -0.3724  -0.3720
     0.2061   0.2063   0.7803   0.7803   1.0436   1.0437

     occupation numbers 
     1.0000   1.0000   1.0000   1.0000   1.0000   1.0000   1.0000   1.0000
     1.0000   1.0000   1.0000   1.0000   1.0000   1.0000   1.0000   1.0000
     1.0000   1.0000   1.0000   1.0000   1.0000   1.0000   1.0000   1.0000
     1.0000   1.0000   1.0000   1.0000   1.0000   1.0000   1.0000   1.0000
     1.0000   1.0000   1.0000   1.0000   1.0000   1.0000   1.0000   1.0000
     1.0000   1.0000   1.0000   1.0000   1.0000   1.0000   1.0000   1.0000
     1.0000   1.0000   1.0000   1.0000   1.0000   1.0000   1.0000   1.0000
     1.0000   1.0000   1.0000   1.0000   1.0000   1.0000   1.0000   1.0000
     1.0000   1.0000   1.0000   1.0000   1.0000   1.0000   1.0000   1.0000
     1.0000   1.0000   1.0000   1.0000   1.0000   1.0000

          k = 0.4762-0.2969 0.0000 ( 24754 PWs)   bands (ev):

   -35.6355 -35.6354 -35.6352 -35.6352 -35.6020 -35.6020 -35.6018 -35.6018
   -35.5328 -35.5328 -35.5016 -35.5016 -34.1768 -34.1768 -34.1766 -34.1766
   -34.1492 -34.1492 -34.1490 -34.1490 -34.1333 -34.1333 -34.1331 -34.1331
   -34.0712 -34.0712 -34.0542 -34.0542 -34.0301 -34.0301 -28.2843 -28.2843
   -28.2841 -28.2841 -28.2767 -28.2766 -28.2764 -28.2764 -27.0441 -27.0441
   -27.0440 -27.0439 -27.0375 -27.0374 -27.0372 -27.0372 -27.0337 -27.0337
   -27.0334 -27.0334  -9.1259  -9.1259  -8.9995  -8.9995  -8.9377  -8.9377
    -7.3841  -7.3841  -6.8356  -6.8356  -3.1146  -3.1146  -1.8184  -1.8182
    -1.7106  -1.7104  -1.2824  -1.2824  -0.9535  -0.9535  -0.2975  -0.2974
     0.1425   0.1425   0.7979   0.7979   1.0238   1.0238

     occupation numbers 
     1.0000   1.0000   1.0000   1.0000   1.0000   1.0000   1.0000   1.0000
     1.0000   1.0000   1.0000   1.0000   1.0000   1.0000   1.0000   1.0000
     1.0000   1.0000   1.0000   1.0000   1.0000   1.0000   1.0000   1.0000
     1.0000   1.0000   1.0000   1.0000   1.0000   1.0000   1.0000   1.0000
     1.0000   1.0000   1.0000   1.0000   1.0000   1.0000   1.0000   1.0000
     1.0000   1.0000   1.0000   1.0000   1.0000   1.0000   1.0000   1.0000
     1.0000   1.0000   1.0000   1.0000   1.0000   1.0000   1.0000   1.0000
     1.0000   1.0000   1.0000   1.0000   1.0000   1.0000   1.0000   1.0000
     1.0000   1.0000   1.0000   1.0000   1.0000   1.0000   1.0000   1.0000
     1.0000   1.0000   1.0000   1.0000   1.0000   1.0000

          k = 0.4762-0.2397 0.0000 ( 24723 PWs)   bands (ev):

   -35.6355 -35.6354 -35.6352 -35.6352 -35.6020 -35.6020 -35.6018 -35.6018
   -35.5328 -35.5328 -35.5016 -35.5016 -34.1768 -34.1768 -34.1766 -34.1766
   -34.1492 -34.1492 -34.1490 -34.1490 -34.1333 -34.1333 -34.1331 -34.1331
   -34.0712 -34.0712 -34.0542 -34.0542 -34.0301 -34.0301 -28.2844 -28.2843
   -28.2842 -28.2841 -28.2767 -28.2766 -28.2764 -28.2764 -27.0442 -27.0441
   -27.0440 -27.0439 -27.0375 -27.0374 -27.0373 -27.0372 -27.0337 -27.0337
   -27.0335 -27.0334  -9.2341  -9.2341  -9.0292  -9.0292  -8.8563  -8.8562
    -7.3403  -7.3403  -6.8235  -6.8235  -3.0721  -3.0721  -1.8760  -1.8758
    -1.6535  -1.6535  -1.3720  -1.3716  -0.8886  -0.8882  -0.3725  -0.3722
     0.2197   0.2201   0.7922   0.7923   1.0645   1.0646

     occupation numbers 
     1.0000   1.0000   1.0000   1.0000   1.0000   1.0000   1.0000   1.0000
     1.0000   1.0000   1.0000   1.0000   1.0000   1.0000   1.0000   1.0000
     1.0000   1.0000   1.0000   1.0000   1.0000   1.0000   1.0000   1.0000
     1.0000   1.0000   1.0000   1.0000   1.0000   1.0000   1.0000   1.0000
     1.0000   1.0000   1.0000   1.0000   1.0000   1.0000   1.0000   1.0000
     1.0000   1.0000   1.0000   1.0000   1.0000   1.0000   1.0000   1.0000
     1.0000   1.0000   1.0000   1.0000   1.0000   1.0000   1.0000   1.0000
     1.0000   1.0000   1.0000   1.0000   1.0000   1.0000   1.0000   1.0000
     1.0000   1.0000   1.0000   1.0000   1.0000   1.0000   1.0000   1.0000
     1.0000   1.0000   1.0000   1.0000   1.0000   1.0000

          k = 0.4762-0.1826 0.0000 ( 24706 PWs)   bands (ev):

   -35.6355 -35.6354 -35.6352 -35.6352 -35.6020 -35.6020 -35.6018 -35.6018
   -35.5328 -35.5328 -35.5016 -35.5016 -34.1769 -34.1768 -34.1766 -34.1766
   -34.1492 -34.1491 -34.1490 -34.1489 -34.1333 -34.1333 -34.1331 -34.1331
   -34.0712 -34.0712 -34.0542 -34.0542 -34.0301 -34.0301 -28.2844 -28.2843
   -28.2842 -28.2840 -28.2767 -28.2766 -28.2764 -28.2764 -27.0442 -27.0441
   -27.0440 -27.0439 -27.0376 -27.0375 -27.0373 -27.0372 -27.0338 -27.0337
   -27.0335 -27.0334  -9.3268  -9.3268  -9.0629  -9.0629  -8.7852  -8.7852
    -7.2753  -7.2753  -6.8342  -6.8342  -2.9875  -2.9875  -1.9104  -1.9100
    -1.7202  -1.7197  -1.4955  -1.4953  -0.7978  -0.7977  -0.5069  -0.5067
     0.3114   0.3118   0.7793   0.7795   1.2161   1.2162

     occupation numbers 
     1.0000   1.0000   1.0000   1.0000   1.0000   1.0000   1.0000   1.0000
     1.0000   1.0000   1.0000   1.0000   1.0000   1.0000   1.0000   1.0000
     1.0000   1.0000   1.0000   1.0000   1.0000   1.0000   1.0000   1.0000
     1.0000   1.0000   1.0000   1.0000   1.0000   1.0000   1.0000   1.0000
     1.0000   1.0000   1.0000   1.0000   1.0000   1.0000   1.0000   1.0000
     1.0000   1.0000   1.0000   1.0000   1.0000   1.0000   1.0000   1.0000
     1.0000   1.0000   1.0000   1.0000   1.0000   1.0000   1.0000   1.0000
     1.0000   1.0000   1.0000   1.0000   1.0000   1.0000   1.0000   1.0000
     1.0000   1.0000   1.0000   1.0000   1.0000   1.0000   1.0000   1.0000
     1.0000   1.0000   1.0000   1.0000   1.0000   1.0000

          k = 0.4762-0.1254 0.0000 ( 24732 PWs)   bands (ev):

   -35.6355 -35.6354 -35.6353 -35.6352 -35.6020 -35.6020 -35.6018 -35.6018
   -35.5328 -35.5328 -35.5016 -35.5016 -34.1769 -34.1768 -34.1766 -34.1766
   -34.1492 -34.1491 -34.1490 -34.1489 -34.1333 -34.1333 -34.1331 -34.1331
   -34.0712 -34.0712 -34.0542 -34.0542 -34.0301 -34.0301 -28.2845 -28.2843
   -28.2842 -28.2840 -28.2767 -28.2766 -28.2764 -28.2763 -27.0443 -27.0441
   -27.0440 -27.0438 -27.0376 -27.0375 -27.0373 -27.0371 -27.0338 -27.0337
   -27.0335 -27.0335  -9.3986  -9.3986  -9.0948  -9.0947  -8.7323  -8.7323
    -7.1979  -7.1979  -6.8669  -6.8669  -2.8655  -2.8655  -2.0483  -2.0481
    -1.7501  -1.7496  -1.5544  -1.5542  -0.8404  -0.8401  -0.5795  -0.5791
     0.3938   0.3942   0.8444   0.8446   1.3391   1.3392

     occupation numbers 
     1.0000   1.0000   1.0000   1.0000   1.0000   1.0000   1.0000   1.0000
     1.0000   1.0000   1.0000   1.0000   1.0000   1.0000   1.0000   1.0000
     1.0000   1.0000   1.0000   1.0000   1.0000   1.0000   1.0000   1.0000
     1.0000   1.0000   1.0000   1.0000   1.0000   1.0000   1.0000   1.0000
     1.0000   1.0000   1.0000   1.0000   1.0000   1.0000   1.0000   1.0000
     1.0000   1.0000   1.0000   1.0000   1.0000   1.0000   1.0000   1.0000
     1.0000   1.0000   1.0000   1.0000   1.0000   1.0000   1.0000   1.0000
     1.0000   1.0000   1.0000   1.0000   1.0000   1.0000   1.0000   1.0000
     1.0000   1.0000   1.0000   1.0000   1.0000   1.0000   1.0000   1.0000
     1.0000   1.0000   1.0000   1.0000   1.0000   1.0000

          k = 0.4762-0.0682 0.0000 ( 24751 PWs)   bands (ev):

   -35.6355 -35.6354 -35.6353 -35.6352 -35.6020 -35.6020 -35.6018 -35.6018
   -35.5328 -35.5328 -35.5016 -35.5016 -34.1769 -34.1768 -34.1766 -34.1766
   -34.1492 -34.1491 -34.1490 -34.1489 -34.1334 -34.1333 -34.1331 -34.1331
   -34.0712 -34.0712 -34.0541 -34.0541 -34.0302 -34.0302 -28.2846 -28.2844
   -28.2842 -28.2840 -28.2767 -28.2765 -28.2764 -28.2763 -27.0443 -27.0441
   -27.0440 -27.0438 -27.0377 -27.0375 -27.0372 -27.0371 -27.0338 -27.0337
   -27.0336 -27.0335  -9.4459  -9.4458  -9.1199  -9.1199  -8.7031  -8.7030
    -7.1245  -7.1245  -6.9130  -6.9130  -2.7081  -2.7081  -2.2818  -2.2818
    -1.6882  -1.6880  -1.5227  -1.5226  -1.0610  -1.0607  -0.5465  -0.5463
     0.4969   0.4972   0.9618   0.9620   1.3123   1.3123

     occupation numbers 
     1.0000   1.0000   1.0000   1.0000   1.0000   1.0000   1.0000   1.0000
     1.0000   1.0000   1.0000   1.0000   1.0000   1.0000   1.0000   1.0000
     1.0000   1.0000   1.0000   1.0000   1.0000   1.0000   1.0000   1.0000
     1.0000   1.0000   1.0000   1.0000   1.0000   1.0000   1.0000   1.0000
     1.0000   1.0000   1.0000   1.0000   1.0000   1.0000   1.0000   1.0000
     1.0000   1.0000   1.0000   1.0000   1.0000   1.0000   1.0000   1.0000
     1.0000   1.0000   1.0000   1.0000   1.0000   1.0000   1.0000   1.0000
     1.0000   1.0000   1.0000   1.0000   1.0000   1.0000   1.0000   1.0000
     1.0000   1.0000   1.0000   1.0000   1.0000   1.0000   1.0000   1.0000
     1.0000   1.0000   1.0000   1.0000   1.0000   1.0000

          k = 0.4762-0.0110 0.0000 ( 24754 PWs)   bands (ev):

   -35.6355 -35.6355 -35.6353 -35.6352 -35.6020 -35.6020 -35.6018 -35.6018
   -35.5328 -35.5328 -35.5017 -35.5017 -34.1769 -34.1768 -34.1767 -34.1766
   -34.1492 -34.1491 -34.1490 -34.1489 -34.1334 -34.1333 -34.1331 -34.1331
   -34.0711 -34.0711 -34.0541 -34.0541 -34.0302 -34.0302 -28.2846 -28.2844
   -28.2842 -28.2840 -28.2766 -28.2765 -28.2764 -28.2763 -27.0444 -27.0442
   -27.0440 -27.0439 -27.0377 -27.0375 -27.0372 -27.0371 -27.0338 -27.0337
   -27.0336 -27.0335  -9.4665  -9.4665  -9.1351  -9.1351  -8.7001  -8.7000
    -7.0973  -7.0973  -6.9356  -6.9356  -2.5643  -2.5642  -2.4516  -2.4515
    -1.6703  -1.6701  -1.4107  -1.4104  -1.2209  -1.2207  -0.5296  -0.5295
     0.5583   0.5585   1.0690   1.0693   1.2394   1.2395

     occupation numbers 
     1.0000   1.0000   1.0000   1.0000   1.0000   1.0000   1.0000   1.0000
     1.0000   1.0000   1.0000   1.0000   1.0000   1.0000   1.0000   1.0000
     1.0000   1.0000   1.0000   1.0000   1.0000   1.0000   1.0000   1.0000
     1.0000   1.0000   1.0000   1.0000   1.0000   1.0000   1.0000   1.0000
     1.0000   1.0000   1.0000   1.0000   1.0000   1.0000   1.0000   1.0000
     1.0000   1.0000   1.0000   1.0000   1.0000   1.0000   1.0000   1.0000
     1.0000   1.0000   1.0000   1.0000   1.0000   1.0000   1.0000   1.0000
     1.0000   1.0000   1.0000   1.0000   1.0000   1.0000   1.0000   1.0000
     1.0000   1.0000   1.0000   1.0000   1.0000   1.0000   1.0000   1.0000
     1.0000   1.0000   1.0000   1.0000   1.0000   1.0000

          k = 0.4762 0.0462 0.0000 ( 24737 PWs)   bands (ev):

   -35.6355 -35.6355 -35.6353 -35.6352 -35.6020 -35.6020 -35.6018 -35.6018
   -35.5328 -35.5328 -35.5017 -35.5017 -34.1769 -34.1768 -34.1767 -34.1766
   -34.1492 -34.1491 -34.1490 -34.1489 -34.1334 -34.1334 -34.1332 -34.1331
   -34.0711 -34.0711 -34.0541 -34.0541 -34.0302 -34.0302 -28.2846 -28.2845
   -28.2843 -28.2841 -28.2766 -28.2765 -28.2764 -28.2763 -27.0444 -27.0443
   -27.0441 -27.0439 -27.0376 -27.0375 -27.0372 -27.0371 -27.0337 -27.0337
   -27.0336 -27.0335  -9.4598  -9.4598  -9.1387  -9.1387  -8.7232  -8.7232
    -7.1506  -7.1506  -6.9014  -6.9014  -2.7146  -2.7145  -2.2620  -2.2620
    -1.6635  -1.6629  -1.5099  -1.5094  -1.0398  -1.0396  -0.5317  -0.5316
     0.5260   0.5262   0.9954   0.9955   1.3609   1.3609

     occupation numbers 
     1.0000   1.0000   1.0000   1.0000   1.0000   1.0000   1.0000   1.0000
     1.0000   1.0000   1.0000   1.0000   1.0000   1.0000   1.0000   1.0000
     1.0000   1.0000   1.0000   1.0000   1.0000   1.0000   1.0000   1.0000
     1.0000   1.0000   1.0000   1.0000   1.0000   1.0000   1.0000   1.0000
     1.0000   1.0000   1.0000   1.0000   1.0000   1.0000   1.0000   1.0000
     1.0000   1.0000   1.0000   1.0000   1.0000   1.0000   1.0000   1.0000
     1.0000   1.0000   1.0000   1.0000   1.0000   1.0000   1.0000   1.0000
     1.0000   1.0000   1.0000   1.0000   1.0000   1.0000   1.0000   1.0000
     1.0000   1.0000   1.0000   1.0000   1.0000   1.0000   1.0000   1.0000
     1.0000   1.0000   1.0000   1.0000   1.0000   1.0000

          k = 0.4762 0.1034 0.0000 ( 24764 PWs)   bands (ev):

   -35.6355 -35.6355 -35.6353 -35.6352 -35.6020 -35.6020 -35.6018 -35.6018
   -35.5328 -35.5328 -35.5017 -35.5017 -34.1769 -34.1769 -34.1767 -34.1766
   -34.1492 -34.1491 -34.1490 -34.1489 -34.1334 -34.1334 -34.1332 -34.1331
   -34.0711 -34.0711 -34.0541 -34.0541 -34.0303 -34.0303 -28.2846 -28.2845
   -28.2843 -28.2842 -28.2766 -28.2765 -28.2764 -28.2763 -27.0445 -27.0443
   -27.0442 -27.0441 -27.0376 -27.0375 -27.0372 -27.0371 -27.0337 -27.0337
   -27.0335 -27.0335  -9.4259  -9.4259  -9.1312  -9.1312  -8.7699  -8.7699
    -7.2320  -7.2320  -6.8594  -6.8594  -2.8669  -2.8669  -2.0394  -2.0393
    -1.7075  -1.7070  -1.4962  -1.4959  -0.8421  -0.8420  -0.5089  -0.5088
     0.4475   0.4478   0.8988   0.8990   1.4448   1.4449

     occupation numbers 
     1.0000   1.0000   1.0000   1.0000   1.0000   1.0000   1.0000   1.0000
     1.0000   1.0000   1.0000   1.0000   1.0000   1.0000   1.0000   1.0000
     1.0000   1.0000   1.0000   1.0000   1.0000   1.0000   1.0000   1.0000
     1.0000   1.0000   1.0000   1.0000   1.0000   1.0000   1.0000   1.0000
     1.0000   1.0000   1.0000   1.0000   1.0000   1.0000   1.0000   1.0000
     1.0000   1.0000   1.0000   1.0000   1.0000   1.0000   1.0000   1.0000
     1.0000   1.0000   1.0000   1.0000   1.0000   1.0000   1.0000   1.0000
     1.0000   1.0000   1.0000   1.0000   1.0000   1.0000   1.0000   1.0000
     1.0000   1.0000   1.0000   1.0000   1.0000   1.0000   1.0000   1.0000
     1.0000   1.0000   1.0000   1.0000   1.0000   1.0000

          k = 0.4762 0.1606 0.0000 ( 24787 PWs)   bands (ev):

   -35.6355 -35.6355 -35.6353 -35.6352 -35.6020 -35.6020 -35.6018 -35.6018
   -35.5328 -35.5328 -35.5017 -35.5017 -34.1769 -34.1769 -34.1767 -34.1766
   -34.1491 -34.1491 -34.1489 -34.1489 -34.1334 -34.1334 -34.1332 -34.1332
   -34.0711 -34.0711 -34.0541 -34.0541 -34.0303 -34.0303 -28.2846 -28.2845
   -28.2844 -28.2842 -28.2766 -28.2765 -28.2763 -28.2763 -27.0445 -27.0444
   -27.0443 -27.0442 -27.0375 -27.0374 -27.0372 -27.0371 -27.0337 -27.0337
   -27.0335 -27.0334  -9.3666  -9.3665  -9.1147  -9.1147  -8.8352  -8.8352
    -7.3110  -7.3110  -6.8332  -6.8332  -2.9861  -2.9861  -1.9207  -1.9207
    -1.6684  -1.6683  -1.4021  -1.4019  -0.7609  -0.7608  -0.4220  -0.4219
     0.3754   0.3758   0.8659   0.8661   1.3536   1.3537

     occupation numbers 
     1.0000   1.0000   1.0000   1.0000   1.0000   1.0000   1.0000   1.0000
     1.0000   1.0000   1.0000   1.0000   1.0000   1.0000   1.0000   1.0000
     1.0000   1.0000   1.0000   1.0000   1.0000   1.0000   1.0000   1.0000
     1.0000   1.0000   1.0000   1.0000   1.0000   1.0000   1.0000   1.0000
     1.0000   1.0000   1.0000   1.0000   1.0000   1.0000   1.0000   1.0000
     1.0000   1.0000   1.0000   1.0000   1.0000   1.0000   1.0000   1.0000
     1.0000   1.0000   1.0000   1.0000   1.0000   1.0000   1.0000   1.0000
     1.0000   1.0000   1.0000   1.0000   1.0000   1.0000   1.0000   1.0000
     1.0000   1.0000   1.0000   1.0000   1.0000   1.0000   1.0000   1.0000
     1.0000   1.0000   1.0000   1.0000   1.0000   1.0000

          k = 0.4762 0.2177 0.0000 ( 24772 PWs)   bands (ev):

   -35.6355 -35.6355 -35.6353 -35.6352 -35.6020 -35.6020 -35.6018 -35.6018
   -35.5328 -35.5328 -35.5017 -35.5017 -34.1769 -34.1769 -34.1767 -34.1766
   -34.1491 -34.1491 -34.1489 -34.1489 -34.1334 -34.1334 -34.1332 -34.1332
   -34.0711 -34.0711 -34.0541 -34.0541 -34.0303 -34.0303 -28.2846 -28.2845
   -28.2844 -28.2843 -28.2766 -28.2765 -28.2763 -28.2763 -27.0445 -27.0444
   -27.0444 -27.0443 -27.0375 -27.0374 -27.0371 -27.0371 -27.0337 -27.0336
   -27.0334 -27.0334  -9.2845  -9.2845  -9.0927  -9.0927  -8.9126  -8.9126
    -7.3750  -7.3750  -6.8269  -6.8269  -3.0687  -3.0687  -1.8795  -1.8794
    -1.6322  -1.6320  -1.2584  -1.2582  -0.7641  -0.7639  -0.3200  -0.3198
     0.2941   0.2944   0.9131   0.9132   1.1992   1.1992

     occupation numbers 
     1.0000   1.0000   1.0000   1.0000   1.0000   1.0000   1.0000   1.0000
     1.0000   1.0000   1.0000   1.0000   1.0000   1.0000   1.0000   1.0000
     1.0000   1.0000   1.0000   1.0000   1.0000   1.0000   1.0000   1.0000
     1.0000   1.0000   1.0000   1.0000   1.0000   1.0000   1.0000   1.0000
     1.0000   1.0000   1.0000   1.0000   1.0000   1.0000   1.0000   1.0000
     1.0000   1.0000   1.0000   1.0000   1.0000   1.0000   1.0000   1.0000
     1.0000   1.0000   1.0000   1.0000   1.0000   1.0000   1.0000   1.0000
     1.0000   1.0000   1.0000   1.0000   1.0000   1.0000   1.0000   1.0000
     1.0000   1.0000   1.0000   1.0000   1.0000   1.0000   1.0000   1.0000
     1.0000   1.0000   1.0000   1.0000   1.0000   1.0000

     highest occupied level (ev):     1.6552

!    total energy              =    -806.66969087 Ry
     estimated scf accuracy    <       0.00000002 Ry

     The total energy is the sum of the following terms:
     one-electron contribution =   -3375.29059561 Ry
     hartree contribution      =    1682.39220705 Ry
     xc contribution           =     -87.14346231 Ry
     ewald contribution        =     973.46807302 Ry
     Dispersion Correction     =      -0.09591303 Ry

     convergence has been achieved in  14 iterations

     Writing all to output data dir tmp/Sb2Te3-uatsx-c5-soc-4.0.save/ :
     XML data file, charge density, pseudopotentials, collected wavefunctions

     init_run     :     58.72s CPU     31.88s WALL (       1 calls)
     electrons    :   3611.77s CPU   1906.44s WALL (       1 calls)

     Called by init_run:
     wfcinit      :     57.43s CPU     30.59s WALL (       1 calls)
     wfcinit:wfcr :     54.52s CPU     28.37s WALL (     221 calls)
     potinit      :      0.26s CPU      0.23s WALL (       1 calls)
     hinit0       :      0.84s CPU      0.85s WALL (       1 calls)

     Called by electrons:
     c_bands      :   3237.98s CPU   1716.19s WALL (      15 calls)
     sum_band     :    371.58s CPU    188.37s WALL (      15 calls)
     v_of_rho     :      1.11s CPU      0.75s WALL (      15 calls)
     v_h          :      0.10s CPU      0.06s WALL (      15 calls)
     v_xc         :      1.01s CPU      0.69s WALL (      15 calls)
     mix_rho      :      0.58s CPU      0.38s WALL (      15 calls)
     energy_londo :      0.01s CPU      0.01s WALL (       1 calls)

     Called by c_bands:
     init_us_2    :     15.20s CPU      9.38s WALL (    6851 calls)
     cegterg      :   3122.56s CPU   1646.85s WALL (    3315 calls)

     Called by sum_band:
     sum_band:wei :      0.00s CPU      0.00s WALL (      15 calls)
     sum_band:loo :    371.24s CPU    188.19s WALL (      15 calls)
     sum_band:buf :      6.04s CPU      3.17s WALL (    3315 calls)
     sum_band:ini :      8.89s CPU      4.55s WALL (    3315 calls)

     Called by *egterg:
     cdiaghg      :    249.54s CPU    160.69s WALL (   20233 calls)
     cegterg:over :    149.34s CPU     79.56s WALL (   17139 calls)
     cegterg:upda :     76.66s CPU     37.39s WALL (   17139 calls)
     cegterg:last :    116.89s CPU     58.87s WALL (    8666 calls)
     h_psi        :   2456.59s CPU   1262.06s WALL (   20675 calls)
     g_psi        :     11.01s CPU      6.12s WALL (   17139 calls)

     Called by h_psi:
     h_psi:calbec :    146.34s CPU     75.28s WALL (   20675 calls)
     vloc_psi     :   2195.77s CPU   1119.95s WALL (   20675 calls)
     add_vuspsi   :    107.41s CPU     62.78s WALL (   20675 calls)

     General routines
     calbec       :    146.23s CPU     75.23s WALL (   20675 calls)
     fft          :      2.28s CPU      1.77s WALL (     349 calls)
     ffts         :      0.26s CPU      0.20s WALL (     120 calls)
     fftw         :   1976.10s CPU    979.53s WALL ( 3739124 calls)
     interpolate  :      0.47s CPU      0.34s WALL (      60 calls)

     Parallel routines

     PWSCF        :      1h 1m CPU  34m12.84s WALL


   This run was terminated on:   0:21: 1  23Aug2025            

=------------------------------------------------------------------------------=
   JOB DONE.
=------------------------------------------------------------------------------=
