
     Program PWSCF v.7.4.1 starts on 14Aug2025 at 20: 2: 0 

     This program is part of the open-source Quantum ESPRESSO suite
     for quantum simulation of materials; please cite
         "P. Giannozzi et al., J. Phys.:Condens. Matter 21 395502 (2009);
         "P. Giannozzi et al., J. Phys.:Condens. Matter 29 465901 (2017);
         "P. Giannozzi et al., J. Chem. Phys. 152 154105 (2020);
          URL http://www.quantum-espresso.org", 
     in publications or presentations arising from this work. More details at
     http://www.quantum-espresso.org/quote

     Parallel version (MPI & OpenMP), running on      48 processor cores
     Number of MPI processes:                24
     Threads/MPI process:                     2

     MPI processes distributed on     2 nodes
     118925 MiB available memory on the printing compute node when the environment starts

     Waiting for input...
     Reading input from standard input

     Current dimensions of program PWSCF are:
     Max number of different atomic species (ntypx) = 10
     Max number of k-points (npk) =  40000
     Max angular momentum in pseudopotentials (lmaxx) =  4

     IMPORTANT: XC functional enforced from input :
     Exchange-correlation= PBE
                           (   1   4   3   4   0   0   0)
     Any further DFT definition will be discarded
     Please, verify this is what you really want

     Message from routine setup:
     no reason to have ecutrho>4*ecutwfc

     R & G space division:  proc/nbgrp/npool/nimage =      24
     Subspace diagonalization in iterative solution of the eigenvalue problem:
     a serial algorithm will be used


     Parallelization info
     --------------------
     sticks:   dense  smooth     PW     G-vecs:    dense   smooth      PW
     Min          96      38     11                19112     4832     805
     Max          97      39     12                19125     4855     818
     Sum        2311     925    283               458817   116185   19467

     Using Slab Decomposition



     bravais-lattice index     =            0
     lattice parameter (alat)  =       8.2271  a.u.
     unit-cell volume          =    2430.6623 (a.u.)^3
     number of atoms/cell      =            5
     number of atomic types    =            2
     number of electrons       =        78.00
     number of Kohn-Sham states=           39
     kinetic-energy cutoff     =      50.0000  Ry
     charge density cutoff     =     500.0000  Ry
     scf convergence threshold =      1.0E-07
     mixing beta               =       0.7000
     number of iterations used =            8  plain     mixing
     Exchange-correlation= PBE
                           (   1   4   3   4   0   0   0)

     celldm(1)=   8.227090  celldm(2)=   0.000000  celldm(3)=   0.000000
     celldm(4)=   0.000000  celldm(5)=   0.000000  celldm(6)=   0.000000

     crystal axes: (cart. coord. in units of alat)
               a(1) = (   1.000000   0.000000   0.000000 )  
               a(2) = (  -0.495050   0.857443   0.000000 )  
               a(3) = (   0.000000   0.000000   5.090739 )  

     reciprocal axes: (cart. coord. in units 2 pi/alat)
               b(1) = (  1.000000  0.577356 -0.000000 )  
               b(2) = (  0.000000  1.166259  0.000000 )  
               b(3) = (  0.000000 -0.000000  0.196435 )  


     PseudoPot. # 1 for Sb read from file:
     /zfs-home/202401017n1/pseudos/Sb_ONCV_PBE-1.2.upf
     MD5 check sum: 0417cd6c0fe8ce4611e2b23135f1abd9
     Pseudo is Norm-conserving, Zval = 15.0
     Generated using ONCVPSP code by D. R. Hamann
     Using radial grid of  602 points,  6 beta functions with: 
                l(1) =   0
                l(2) =   0
                l(3) =   1
                l(4) =   1
                l(5) =   2
                l(6) =   2

     PseudoPot. # 2 for Te read from file:
     /zfs-home/202401017n1/pseudos/Te_ONCV_PBE-1.2.upf
     MD5 check sum: dd4de4dac1e38587f63aaf3700bb29d3
     Pseudo is Norm-conserving, Zval = 16.0
     Generated using ONCVPSP code by D. R. Hamann
     Using radial grid of  602 points,  6 beta functions with: 
                l(1) =   0
                l(2) =   0
                l(3) =   1
                l(4) =   1
                l(5) =   2
                l(6) =   2

     atomic species   valence    mass     pseudopotential
     Sb               15.00   121.76000     Sb( 1.00)
     Te               16.00   127.60000     Te( 1.00)

     No symmetry found


                                    s                        frac. trans.

      isym =  1     identity                                     

 cryst.   s( 1) = (     1          0          0      )
                  (     0          1          0      )
                  (     0          0          1      )

 cart.    s( 1) = (  1.0000000  0.0000000  0.0000000 )
                  (  0.0000000  1.0000000  0.0000000 )
                  (  0.0000000  0.0000000  1.0000000 )


   Cartesian axes

     site n.     atom                  positions (alat units)
         1        Sb     tau(   1) = (   0.5788554   0.4207610   3.0040749  )
         2        Te     tau(   2) = (   0.5752577   0.4138624   1.6972962  )
         3        Sb     tau(   3) = (   0.0743102   0.1298379   2.0866212  )
         4        Te     tau(   4) = (   0.0782247   0.1361538   3.3933943  )
         5        Te     tau(   5) = (   0.0792404   0.7036244   2.5453648  )

     -------------------------------------------------
     Parameters for Dispersion (Grimme-D2) Correction:
     -------------------------------------------------
       atom      VdW radius       C_6     

        Sb         3.555       1333.532
        Te         3.575       1101.101

   Crystallographic axes

     site n.     atom                  positions (cryst. coord.)
         1        Sb     tau(   1) = (  0.8217842  0.4907162  0.5901058  )
         2        Te     tau(   2) = (  0.8142035  0.4826706  0.3334086  )
         3        Sb     tau(   3) = (  0.1492728  0.1514246  0.4098857  )
         4        Te     tau(   4) = (  0.1568340  0.1587906  0.6665818  )
         5        Te     tau(   5) = (  0.4854821  0.8206082  0.4999990  )

     number of k points=   221
                       cart. coord. in units 2pi/alat
        k(    1) = (   0.0000000   0.0000000   0.0000000), wk =   0.0045351
        k(    2) = (   0.0000000   0.0555361   0.0000000), wk =   0.0090703
        k(    3) = (   0.0000000   0.1110723   0.0000000), wk =   0.0090703
        k(    4) = (   0.0000000   0.1666084   0.0000000), wk =   0.0090703
        k(    5) = (   0.0000000   0.2221445   0.0000000), wk =   0.0090703
        k(    6) = (   0.0000000   0.2776807   0.0000000), wk =   0.0090703
        k(    7) = (   0.0000000   0.3332168   0.0000000), wk =   0.0090703
        k(    8) = (   0.0000000   0.3887529   0.0000000), wk =   0.0090703
        k(    9) = (   0.0000000   0.4442891   0.0000000), wk =   0.0090703
        k(   10) = (   0.0000000   0.4998252   0.0000000), wk =   0.0090703
        k(   11) = (   0.0000000   0.5553613   0.0000000), wk =   0.0090703
        k(   12) = (   0.0476190   0.0274931   0.0000000), wk =   0.0090703
        k(   13) = (   0.0476190   0.0830293   0.0000000), wk =   0.0090703
        k(   14) = (   0.0476190   0.1385654   0.0000000), wk =   0.0090703
        k(   15) = (   0.0476190   0.1941015   0.0000000), wk =   0.0090703
        k(   16) = (   0.0476190   0.2496377   0.0000000), wk =   0.0090703
        k(   17) = (   0.0476190   0.3051738   0.0000000), wk =   0.0090703
        k(   18) = (   0.0476190   0.3607099   0.0000000), wk =   0.0090703
        k(   19) = (   0.0476190   0.4162461   0.0000000), wk =   0.0090703
        k(   20) = (   0.0476190   0.4717822   0.0000000), wk =   0.0090703
        k(   21) = (   0.0476190   0.5273183   0.0000000), wk =   0.0090703
        k(   22) = (   0.0476190   0.5828545   0.0000000), wk =   0.0090703
        k(   23) = (   0.0476190  -0.5278682   0.0000000), wk =   0.0090703
        k(   24) = (   0.0476190  -0.4723321   0.0000000), wk =   0.0090703
        k(   25) = (   0.0476190  -0.4167959   0.0000000), wk =   0.0090703
        k(   26) = (   0.0476190  -0.3612598   0.0000000), wk =   0.0090703
        k(   27) = (   0.0476190  -0.3057237   0.0000000), wk =   0.0090703
        k(   28) = (   0.0476190  -0.2501875   0.0000000), wk =   0.0090703
        k(   29) = (   0.0476190  -0.1946514   0.0000000), wk =   0.0090703
        k(   30) = (   0.0476190  -0.1391153   0.0000000), wk =   0.0090703
        k(   31) = (   0.0476190  -0.0835791   0.0000000), wk =   0.0090703
        k(   32) = (   0.0476190  -0.0280430   0.0000000), wk =   0.0090703
        k(   33) = (   0.0952381   0.0549863   0.0000000), wk =   0.0090703
        k(   34) = (   0.0952381   0.1105224   0.0000000), wk =   0.0090703
        k(   35) = (   0.0952381   0.1660585   0.0000000), wk =   0.0090703
        k(   36) = (   0.0952381   0.2215947   0.0000000), wk =   0.0090703
        k(   37) = (   0.0952381   0.2771308   0.0000000), wk =   0.0090703
        k(   38) = (   0.0952381   0.3326669   0.0000000), wk =   0.0090703
        k(   39) = (   0.0952381   0.3882031   0.0000000), wk =   0.0090703
        k(   40) = (   0.0952381   0.4437392   0.0000000), wk =   0.0090703
        k(   41) = (   0.0952381   0.4992753   0.0000000), wk =   0.0090703
        k(   42) = (   0.0952381   0.5548115   0.0000000), wk =   0.0090703
        k(   43) = (   0.0952381   0.6103476   0.0000000), wk =   0.0090703
        k(   44) = (   0.0952381  -0.5003751   0.0000000), wk =   0.0090703
        k(   45) = (   0.0952381  -0.4448389   0.0000000), wk =   0.0090703
        k(   46) = (   0.0952381  -0.3893028   0.0000000), wk =   0.0090703
        k(   47) = (   0.0952381  -0.3337667   0.0000000), wk =   0.0090703
        k(   48) = (   0.0952381  -0.2782305   0.0000000), wk =   0.0090703
        k(   49) = (   0.0952381  -0.2226944   0.0000000), wk =   0.0090703
        k(   50) = (   0.0952381  -0.1671583   0.0000000), wk =   0.0090703
        k(   51) = (   0.0952381  -0.1116221   0.0000000), wk =   0.0090703
        k(   52) = (   0.0952381  -0.0560860   0.0000000), wk =   0.0090703
        k(   53) = (   0.0952381  -0.0005499   0.0000000), wk =   0.0090703
        k(   54) = (   0.1428571   0.0824794   0.0000000), wk =   0.0090703
        k(   55) = (   0.1428571   0.1380155   0.0000000), wk =   0.0090703
        k(   56) = (   0.1428571   0.1935517   0.0000000), wk =   0.0090703
        k(   57) = (   0.1428571   0.2490878   0.0000000), wk =   0.0090703
        k(   58) = (   0.1428571   0.3046239   0.0000000), wk =   0.0090703
        k(   59) = (   0.1428571   0.3601601   0.0000000), wk =   0.0090703
        k(   60) = (   0.1428571   0.4156962   0.0000000), wk =   0.0090703
        k(   61) = (   0.1428571   0.4712323   0.0000000), wk =   0.0090703
        k(   62) = (   0.1428571   0.5267685   0.0000000), wk =   0.0090703
        k(   63) = (   0.1428571   0.5823046   0.0000000), wk =   0.0090703
        k(   64) = (   0.1428571   0.6378408   0.0000000), wk =   0.0090703
        k(   65) = (   0.1428571  -0.4728819   0.0000000), wk =   0.0090703
        k(   66) = (   0.1428571  -0.4173458   0.0000000), wk =   0.0090703
        k(   67) = (   0.1428571  -0.3618097   0.0000000), wk =   0.0090703
        k(   68) = (   0.1428571  -0.3062735   0.0000000), wk =   0.0090703
        k(   69) = (   0.1428571  -0.2507374   0.0000000), wk =   0.0090703
        k(   70) = (   0.1428571  -0.1952013   0.0000000), wk =   0.0090703
        k(   71) = (   0.1428571  -0.1396651   0.0000000), wk =   0.0090703
        k(   72) = (   0.1428571  -0.0841290   0.0000000), wk =   0.0090703
        k(   73) = (   0.1428571  -0.0285929   0.0000000), wk =   0.0090703
        k(   74) = (   0.1428571   0.0269433   0.0000000), wk =   0.0090703
        k(   75) = (   0.1904762   0.1099725   0.0000000), wk =   0.0090703
        k(   76) = (   0.1904762   0.1655087   0.0000000), wk =   0.0090703
        k(   77) = (   0.1904762   0.2210448   0.0000000), wk =   0.0090703
        k(   78) = (   0.1904762   0.2765809   0.0000000), wk =   0.0090703
        k(   79) = (   0.1904762   0.3321171   0.0000000), wk =   0.0090703
        k(   80) = (   0.1904762   0.3876532   0.0000000), wk =   0.0090703
        k(   81) = (   0.1904762   0.4431894   0.0000000), wk =   0.0090703
        k(   82) = (   0.1904762   0.4987255   0.0000000), wk =   0.0090703
        k(   83) = (   0.1904762   0.5542616   0.0000000), wk =   0.0090703
        k(   84) = (   0.1904762   0.6097978   0.0000000), wk =   0.0090703
        k(   85) = (   0.1904762   0.6653339   0.0000000), wk =   0.0090703
        k(   86) = (   0.1904762  -0.4453888   0.0000000), wk =   0.0090703
        k(   87) = (   0.1904762  -0.3898527   0.0000000), wk =   0.0090703
        k(   88) = (   0.1904762  -0.3343165   0.0000000), wk =   0.0090703
        k(   89) = (   0.1904762  -0.2787804   0.0000000), wk =   0.0090703
        k(   90) = (   0.1904762  -0.2232443   0.0000000), wk =   0.0090703
        k(   91) = (   0.1904762  -0.1677081   0.0000000), wk =   0.0090703
        k(   92) = (   0.1904762  -0.1121720   0.0000000), wk =   0.0090703
        k(   93) = (   0.1904762  -0.0566359   0.0000000), wk =   0.0090703
        k(   94) = (   0.1904762  -0.0010997   0.0000000), wk =   0.0090703
        k(   95) = (   0.1904762   0.0544364   0.0000000), wk =   0.0090703
        k(   96) = (   0.2380952   0.1374657   0.0000000), wk =   0.0090703
        k(   97) = (   0.2380952   0.1930018   0.0000000), wk =   0.0090703
        k(   98) = (   0.2380952   0.2485379   0.0000000), wk =   0.0090703
        k(   99) = (   0.2380952   0.3040741   0.0000000), wk =   0.0090703
        k(  100) = (   0.2380952   0.3596102   0.0000000), wk =   0.0090703
        k(  101) = (   0.2380952   0.4151464   0.0000000), wk =   0.0090703
        k(  102) = (   0.2380952   0.4706825   0.0000000), wk =   0.0090703
        k(  103) = (   0.2380952   0.5262186   0.0000000), wk =   0.0090703
        k(  104) = (   0.2380952   0.5817548   0.0000000), wk =   0.0090703
        k(  105) = (   0.2380952   0.6372909   0.0000000), wk =   0.0090703
        k(  106) = (   0.2380952   0.6928270   0.0000000), wk =   0.0090703
        k(  107) = (   0.2380952  -0.4178957   0.0000000), wk =   0.0090703
        k(  108) = (   0.2380952  -0.3623595   0.0000000), wk =   0.0090703
        k(  109) = (   0.2380952  -0.3068234   0.0000000), wk =   0.0090703
        k(  110) = (   0.2380952  -0.2512873   0.0000000), wk =   0.0090703
        k(  111) = (   0.2380952  -0.1957511   0.0000000), wk =   0.0090703
        k(  112) = (   0.2380952  -0.1402150   0.0000000), wk =   0.0090703
        k(  113) = (   0.2380952  -0.0846789   0.0000000), wk =   0.0090703
        k(  114) = (   0.2380952  -0.0291427   0.0000000), wk =   0.0090703
        k(  115) = (   0.2380952   0.0263934   0.0000000), wk =   0.0090703
        k(  116) = (   0.2380952   0.0819295   0.0000000), wk =   0.0090703
        k(  117) = (   0.2857143   0.1649588   0.0000000), wk =   0.0090703
        k(  118) = (   0.2857143   0.2204949   0.0000000), wk =   0.0090703
        k(  119) = (   0.2857143   0.2760311   0.0000000), wk =   0.0090703
        k(  120) = (   0.2857143   0.3315672   0.0000000), wk =   0.0090703
        k(  121) = (   0.2857143   0.3871034   0.0000000), wk =   0.0090703
        k(  122) = (   0.2857143   0.4426395   0.0000000), wk =   0.0090703
        k(  123) = (   0.2857143   0.4981756   0.0000000), wk =   0.0090703
        k(  124) = (   0.2857143   0.5537118   0.0000000), wk =   0.0090703
        k(  125) = (   0.2857143   0.6092479   0.0000000), wk =   0.0090703
        k(  126) = (   0.2857143   0.6647840   0.0000000), wk =   0.0090703
        k(  127) = (   0.2857143   0.7203202   0.0000000), wk =   0.0090703
        k(  128) = (   0.2857143  -0.3904025   0.0000000), wk =   0.0090703
        k(  129) = (   0.2857143  -0.3348664   0.0000000), wk =   0.0090703
        k(  130) = (   0.2857143  -0.2793303   0.0000000), wk =   0.0090703
        k(  131) = (   0.2857143  -0.2237941   0.0000000), wk =   0.0090703
        k(  132) = (   0.2857143  -0.1682580   0.0000000), wk =   0.0090703
        k(  133) = (   0.2857143  -0.1127219   0.0000000), wk =   0.0090703
        k(  134) = (   0.2857143  -0.0571857   0.0000000), wk =   0.0090703
        k(  135) = (   0.2857143  -0.0016496   0.0000000), wk =   0.0090703
        k(  136) = (   0.2857143   0.0538865   0.0000000), wk =   0.0090703
        k(  137) = (   0.2857143   0.1094227   0.0000000), wk =   0.0090703
        k(  138) = (   0.3333333   0.1924520   0.0000000), wk =   0.0090703
        k(  139) = (   0.3333333   0.2479881   0.0000000), wk =   0.0090703
        k(  140) = (   0.3333333   0.3035242   0.0000000), wk =   0.0090703
        k(  141) = (   0.3333333   0.3590604   0.0000000), wk =   0.0090703
        k(  142) = (   0.3333333   0.4145965   0.0000000), wk =   0.0090703
        k(  143) = (   0.3333333   0.4701326   0.0000000), wk =   0.0090703
        k(  144) = (   0.3333333   0.5256688   0.0000000), wk =   0.0090703
        k(  145) = (   0.3333333   0.5812049   0.0000000), wk =   0.0090703
        k(  146) = (   0.3333333   0.6367410   0.0000000), wk =   0.0090703
        k(  147) = (   0.3333333   0.6922772   0.0000000), wk =   0.0090703
        k(  148) = (   0.3333333   0.7478133   0.0000000), wk =   0.0090703
        k(  149) = (   0.3333333  -0.3629094   0.0000000), wk =   0.0090703
        k(  150) = (   0.3333333  -0.3073733   0.0000000), wk =   0.0090703
        k(  151) = (   0.3333333  -0.2518371   0.0000000), wk =   0.0090703
        k(  152) = (   0.3333333  -0.1963010   0.0000000), wk =   0.0090703
        k(  153) = (   0.3333333  -0.1407649   0.0000000), wk =   0.0090703
        k(  154) = (   0.3333333  -0.0852287   0.0000000), wk =   0.0090703
        k(  155) = (   0.3333333  -0.0296926   0.0000000), wk =   0.0090703
        k(  156) = (   0.3333333   0.0258435   0.0000000), wk =   0.0090703
        k(  157) = (   0.3333333   0.0813797   0.0000000), wk =   0.0090703
        k(  158) = (   0.3333333   0.1369158   0.0000000), wk =   0.0090703
        k(  159) = (   0.3809524   0.2199451   0.0000000), wk =   0.0090703
        k(  160) = (   0.3809524   0.2754812   0.0000000), wk =   0.0090703
        k(  161) = (   0.3809524   0.3310174   0.0000000), wk =   0.0090703
        k(  162) = (   0.3809524   0.3865535   0.0000000), wk =   0.0090703
        k(  163) = (   0.3809524   0.4420896   0.0000000), wk =   0.0090703
        k(  164) = (   0.3809524   0.4976258   0.0000000), wk =   0.0090703
        k(  165) = (   0.3809524   0.5531619   0.0000000), wk =   0.0090703
        k(  166) = (   0.3809524   0.6086980   0.0000000), wk =   0.0090703
        k(  167) = (   0.3809524   0.6642342   0.0000000), wk =   0.0090703
        k(  168) = (   0.3809524   0.7197703   0.0000000), wk =   0.0090703
        k(  169) = (   0.3809524   0.7753064   0.0000000), wk =   0.0090703
        k(  170) = (   0.3809524  -0.3354163   0.0000000), wk =   0.0090703
        k(  171) = (   0.3809524  -0.2798801   0.0000000), wk =   0.0090703
        k(  172) = (   0.3809524  -0.2243440   0.0000000), wk =   0.0090703
        k(  173) = (   0.3809524  -0.1688079   0.0000000), wk =   0.0090703
        k(  174) = (   0.3809524  -0.1132717   0.0000000), wk =   0.0090703
        k(  175) = (   0.3809524  -0.0577356   0.0000000), wk =   0.0090703
        k(  176) = (   0.3809524  -0.0021995   0.0000000), wk =   0.0090703
        k(  177) = (   0.3809524   0.0533367   0.0000000), wk =   0.0090703
        k(  178) = (   0.3809524   0.1088728   0.0000000), wk =   0.0090703
        k(  179) = (   0.3809524   0.1644090   0.0000000), wk =   0.0090703
        k(  180) = (   0.4285714   0.2474382   0.0000000), wk =   0.0090703
        k(  181) = (   0.4285714   0.3029744   0.0000000), wk =   0.0090703
        k(  182) = (   0.4285714   0.3585105   0.0000000), wk =   0.0090703
        k(  183) = (   0.4285714   0.4140466   0.0000000), wk =   0.0090703
        k(  184) = (   0.4285714   0.4695828   0.0000000), wk =   0.0090703
        k(  185) = (   0.4285714   0.5251189   0.0000000), wk =   0.0090703
        k(  186) = (   0.4285714   0.5806550   0.0000000), wk =   0.0090703
        k(  187) = (   0.4285714   0.6361912   0.0000000), wk =   0.0090703
        k(  188) = (   0.4285714   0.6917273   0.0000000), wk =   0.0090703
        k(  189) = (   0.4285714   0.7472634   0.0000000), wk =   0.0090703
        k(  190) = (   0.4285714   0.8027996   0.0000000), wk =   0.0090703
        k(  191) = (   0.4285714  -0.3079231   0.0000000), wk =   0.0090703
        k(  192) = (   0.4285714  -0.2523870   0.0000000), wk =   0.0090703
        k(  193) = (   0.4285714  -0.1968509   0.0000000), wk =   0.0090703
        k(  194) = (   0.4285714  -0.1413147   0.0000000), wk =   0.0090703
        k(  195) = (   0.4285714  -0.0857786   0.0000000), wk =   0.0090703
        k(  196) = (   0.4285714  -0.0302424   0.0000000), wk =   0.0090703
        k(  197) = (   0.4285714   0.0252937   0.0000000), wk =   0.0090703
        k(  198) = (   0.4285714   0.0808298   0.0000000), wk =   0.0090703
        k(  199) = (   0.4285714   0.1363660   0.0000000), wk =   0.0090703
        k(  200) = (   0.4285714   0.1919021   0.0000000), wk =   0.0090703
        k(  201) = (   0.4761905   0.2749314   0.0000000), wk =   0.0090703
        k(  202) = (   0.4761905   0.3304675   0.0000000), wk =   0.0090703
        k(  203) = (   0.4761905   0.3860036   0.0000000), wk =   0.0090703
        k(  204) = (   0.4761905   0.4415398   0.0000000), wk =   0.0090703
        k(  205) = (   0.4761905   0.4970759   0.0000000), wk =   0.0090703
        k(  206) = (   0.4761905   0.5526120   0.0000000), wk =   0.0090703
        k(  207) = (   0.4761905   0.6081482   0.0000000), wk =   0.0090703
        k(  208) = (   0.4761905   0.6636843   0.0000000), wk =   0.0090703
        k(  209) = (   0.4761905   0.7192204   0.0000000), wk =   0.0090703
        k(  210) = (   0.4761905   0.7747566   0.0000000), wk =   0.0090703
        k(  211) = (   0.4761905   0.8302927   0.0000000), wk =   0.0090703
        k(  212) = (   0.4761905  -0.2804300   0.0000000), wk =   0.0090703
        k(  213) = (   0.4761905  -0.2248939   0.0000000), wk =   0.0090703
        k(  214) = (   0.4761905  -0.1693577   0.0000000), wk =   0.0090703
        k(  215) = (   0.4761905  -0.1138216   0.0000000), wk =   0.0090703
        k(  216) = (   0.4761905  -0.0582854   0.0000000), wk =   0.0090703
        k(  217) = (   0.4761905  -0.0027493   0.0000000), wk =   0.0090703
        k(  218) = (   0.4761905   0.0527868   0.0000000), wk =   0.0090703
        k(  219) = (   0.4761905   0.1083230   0.0000000), wk =   0.0090703
        k(  220) = (   0.4761905   0.1638591   0.0000000), wk =   0.0090703
        k(  221) = (   0.4761905   0.2193952   0.0000000), wk =   0.0090703

                       cryst. coord.
        k(    1) = (   0.0000000   0.0000000   0.0000000), wk =   0.0045351
        k(    2) = (   0.0000000   0.0476190   0.0000000), wk =   0.0090703
        k(    3) = (   0.0000000   0.0952381   0.0000000), wk =   0.0090703
        k(    4) = (   0.0000000   0.1428571   0.0000000), wk =   0.0090703
        k(    5) = (   0.0000000   0.1904762   0.0000000), wk =   0.0090703
        k(    6) = (   0.0000000   0.2380952   0.0000000), wk =   0.0090703
        k(    7) = (   0.0000000   0.2857143   0.0000000), wk =   0.0090703
        k(    8) = (   0.0000000   0.3333333   0.0000000), wk =   0.0090703
        k(    9) = (   0.0000000   0.3809524   0.0000000), wk =   0.0090703
        k(   10) = (   0.0000000   0.4285714   0.0000000), wk =   0.0090703
        k(   11) = (   0.0000000   0.4761905   0.0000000), wk =   0.0090703
        k(   12) = (   0.0476190   0.0000000   0.0000000), wk =   0.0090703
        k(   13) = (   0.0476190   0.0476190   0.0000000), wk =   0.0090703
        k(   14) = (   0.0476190   0.0952381   0.0000000), wk =   0.0090703
        k(   15) = (   0.0476190   0.1428571   0.0000000), wk =   0.0090703
        k(   16) = (   0.0476190   0.1904762   0.0000000), wk =   0.0090703
        k(   17) = (   0.0476190   0.2380952   0.0000000), wk =   0.0090703
        k(   18) = (   0.0476190   0.2857143   0.0000000), wk =   0.0090703
        k(   19) = (   0.0476190   0.3333333   0.0000000), wk =   0.0090703
        k(   20) = (   0.0476190   0.3809524   0.0000000), wk =   0.0090703
        k(   21) = (   0.0476190   0.4285714   0.0000000), wk =   0.0090703
        k(   22) = (   0.0476190   0.4761905   0.0000000), wk =   0.0090703
        k(   23) = (   0.0476190  -0.4761905   0.0000000), wk =   0.0090703
        k(   24) = (   0.0476190  -0.4285714   0.0000000), wk =   0.0090703
        k(   25) = (   0.0476190  -0.3809524   0.0000000), wk =   0.0090703
        k(   26) = (   0.0476190  -0.3333333   0.0000000), wk =   0.0090703
        k(   27) = (   0.0476190  -0.2857143   0.0000000), wk =   0.0090703
        k(   28) = (   0.0476190  -0.2380952   0.0000000), wk =   0.0090703
        k(   29) = (   0.0476190  -0.1904762   0.0000000), wk =   0.0090703
        k(   30) = (   0.0476190  -0.1428571   0.0000000), wk =   0.0090703
        k(   31) = (   0.0476190  -0.0952381   0.0000000), wk =   0.0090703
        k(   32) = (   0.0476190  -0.0476190   0.0000000), wk =   0.0090703
        k(   33) = (   0.0952381   0.0000000   0.0000000), wk =   0.0090703
        k(   34) = (   0.0952381   0.0476190   0.0000000), wk =   0.0090703
        k(   35) = (   0.0952381   0.0952381   0.0000000), wk =   0.0090703
        k(   36) = (   0.0952381   0.1428571   0.0000000), wk =   0.0090703
        k(   37) = (   0.0952381   0.1904762   0.0000000), wk =   0.0090703
        k(   38) = (   0.0952381   0.2380952   0.0000000), wk =   0.0090703
        k(   39) = (   0.0952381   0.2857143   0.0000000), wk =   0.0090703
        k(   40) = (   0.0952381   0.3333333   0.0000000), wk =   0.0090703
        k(   41) = (   0.0952381   0.3809524   0.0000000), wk =   0.0090703
        k(   42) = (   0.0952381   0.4285714   0.0000000), wk =   0.0090703
        k(   43) = (   0.0952381   0.4761905   0.0000000), wk =   0.0090703
        k(   44) = (   0.0952381  -0.4761905   0.0000000), wk =   0.0090703
        k(   45) = (   0.0952381  -0.4285714   0.0000000), wk =   0.0090703
        k(   46) = (   0.0952381  -0.3809524   0.0000000), wk =   0.0090703
        k(   47) = (   0.0952381  -0.3333333   0.0000000), wk =   0.0090703
        k(   48) = (   0.0952381  -0.2857143   0.0000000), wk =   0.0090703
        k(   49) = (   0.0952381  -0.2380952   0.0000000), wk =   0.0090703
        k(   50) = (   0.0952381  -0.1904762   0.0000000), wk =   0.0090703
        k(   51) = (   0.0952381  -0.1428571   0.0000000), wk =   0.0090703
        k(   52) = (   0.0952381  -0.0952381   0.0000000), wk =   0.0090703
        k(   53) = (   0.0952381  -0.0476190   0.0000000), wk =   0.0090703
        k(   54) = (   0.1428571  -0.0000000   0.0000000), wk =   0.0090703
        k(   55) = (   0.1428571   0.0476190   0.0000000), wk =   0.0090703
        k(   56) = (   0.1428571   0.0952381   0.0000000), wk =   0.0090703
        k(   57) = (   0.1428571   0.1428571   0.0000000), wk =   0.0090703
        k(   58) = (   0.1428571   0.1904762   0.0000000), wk =   0.0090703
        k(   59) = (   0.1428571   0.2380952   0.0000000), wk =   0.0090703
        k(   60) = (   0.1428571   0.2857143   0.0000000), wk =   0.0090703
        k(   61) = (   0.1428571   0.3333333   0.0000000), wk =   0.0090703
        k(   62) = (   0.1428571   0.3809524   0.0000000), wk =   0.0090703
        k(   63) = (   0.1428571   0.4285714   0.0000000), wk =   0.0090703
        k(   64) = (   0.1428571   0.4761905   0.0000000), wk =   0.0090703
        k(   65) = (   0.1428571  -0.4761905   0.0000000), wk =   0.0090703
        k(   66) = (   0.1428571  -0.4285714   0.0000000), wk =   0.0090703
        k(   67) = (   0.1428571  -0.3809524   0.0000000), wk =   0.0090703
        k(   68) = (   0.1428571  -0.3333333   0.0000000), wk =   0.0090703
        k(   69) = (   0.1428571  -0.2857143   0.0000000), wk =   0.0090703
        k(   70) = (   0.1428571  -0.2380952   0.0000000), wk =   0.0090703
        k(   71) = (   0.1428571  -0.1904762   0.0000000), wk =   0.0090703
        k(   72) = (   0.1428571  -0.1428571   0.0000000), wk =   0.0090703
        k(   73) = (   0.1428571  -0.0952381   0.0000000), wk =   0.0090703
        k(   74) = (   0.1428571  -0.0476190   0.0000000), wk =   0.0090703
        k(   75) = (   0.1904762   0.0000000   0.0000000), wk =   0.0090703
        k(   76) = (   0.1904762   0.0476190   0.0000000), wk =   0.0090703
        k(   77) = (   0.1904762   0.0952381   0.0000000), wk =   0.0090703
        k(   78) = (   0.1904762   0.1428571   0.0000000), wk =   0.0090703
        k(   79) = (   0.1904762   0.1904762   0.0000000), wk =   0.0090703
        k(   80) = (   0.1904762   0.2380952   0.0000000), wk =   0.0090703
        k(   81) = (   0.1904762   0.2857143   0.0000000), wk =   0.0090703
        k(   82) = (   0.1904762   0.3333333   0.0000000), wk =   0.0090703
        k(   83) = (   0.1904762   0.3809524   0.0000000), wk =   0.0090703
        k(   84) = (   0.1904762   0.4285714   0.0000000), wk =   0.0090703
        k(   85) = (   0.1904762   0.4761905   0.0000000), wk =   0.0090703
        k(   86) = (   0.1904762  -0.4761905   0.0000000), wk =   0.0090703
        k(   87) = (   0.1904762  -0.4285714   0.0000000), wk =   0.0090703
        k(   88) = (   0.1904762  -0.3809524   0.0000000), wk =   0.0090703
        k(   89) = (   0.1904762  -0.3333333   0.0000000), wk =   0.0090703
        k(   90) = (   0.1904762  -0.2857143   0.0000000), wk =   0.0090703
        k(   91) = (   0.1904762  -0.2380952   0.0000000), wk =   0.0090703
        k(   92) = (   0.1904762  -0.1904762   0.0000000), wk =   0.0090703
        k(   93) = (   0.1904762  -0.1428571   0.0000000), wk =   0.0090703
        k(   94) = (   0.1904762  -0.0952381   0.0000000), wk =   0.0090703
        k(   95) = (   0.1904762  -0.0476190   0.0000000), wk =   0.0090703
        k(   96) = (   0.2380952   0.0000000   0.0000000), wk =   0.0090703
        k(   97) = (   0.2380952   0.0476190   0.0000000), wk =   0.0090703
        k(   98) = (   0.2380952   0.0952381   0.0000000), wk =   0.0090703
        k(   99) = (   0.2380952   0.1428571   0.0000000), wk =   0.0090703
        k(  100) = (   0.2380952   0.1904762   0.0000000), wk =   0.0090703
        k(  101) = (   0.2380952   0.2380952   0.0000000), wk =   0.0090703
        k(  102) = (   0.2380952   0.2857143   0.0000000), wk =   0.0090703
        k(  103) = (   0.2380952   0.3333333   0.0000000), wk =   0.0090703
        k(  104) = (   0.2380952   0.3809524   0.0000000), wk =   0.0090703
        k(  105) = (   0.2380952   0.4285714   0.0000000), wk =   0.0090703
        k(  106) = (   0.2380952   0.4761905   0.0000000), wk =   0.0090703
        k(  107) = (   0.2380952  -0.4761905   0.0000000), wk =   0.0090703
        k(  108) = (   0.2380952  -0.4285714   0.0000000), wk =   0.0090703
        k(  109) = (   0.2380952  -0.3809524   0.0000000), wk =   0.0090703
        k(  110) = (   0.2380952  -0.3333333   0.0000000), wk =   0.0090703
        k(  111) = (   0.2380952  -0.2857143   0.0000000), wk =   0.0090703
        k(  112) = (   0.2380952  -0.2380952   0.0000000), wk =   0.0090703
        k(  113) = (   0.2380952  -0.1904762   0.0000000), wk =   0.0090703
        k(  114) = (   0.2380952  -0.1428571   0.0000000), wk =   0.0090703
        k(  115) = (   0.2380952  -0.0952381   0.0000000), wk =   0.0090703
        k(  116) = (   0.2380952  -0.0476190   0.0000000), wk =   0.0090703
        k(  117) = (   0.2857143  -0.0000000   0.0000000), wk =   0.0090703
        k(  118) = (   0.2857143   0.0476190   0.0000000), wk =   0.0090703
        k(  119) = (   0.2857143   0.0952381   0.0000000), wk =   0.0090703
        k(  120) = (   0.2857143   0.1428571   0.0000000), wk =   0.0090703
        k(  121) = (   0.2857143   0.1904762   0.0000000), wk =   0.0090703
        k(  122) = (   0.2857143   0.2380952   0.0000000), wk =   0.0090703
        k(  123) = (   0.2857143   0.2857143   0.0000000), wk =   0.0090703
        k(  124) = (   0.2857143   0.3333333   0.0000000), wk =   0.0090703
        k(  125) = (   0.2857143   0.3809524   0.0000000), wk =   0.0090703
        k(  126) = (   0.2857143   0.4285714   0.0000000), wk =   0.0090703
        k(  127) = (   0.2857143   0.4761905   0.0000000), wk =   0.0090703
        k(  128) = (   0.2857143  -0.4761905   0.0000000), wk =   0.0090703
        k(  129) = (   0.2857143  -0.4285714   0.0000000), wk =   0.0090703
        k(  130) = (   0.2857143  -0.3809524   0.0000000), wk =   0.0090703
        k(  131) = (   0.2857143  -0.3333333   0.0000000), wk =   0.0090703
        k(  132) = (   0.2857143  -0.2857143   0.0000000), wk =   0.0090703
        k(  133) = (   0.2857143  -0.2380952   0.0000000), wk =   0.0090703
        k(  134) = (   0.2857143  -0.1904762   0.0000000), wk =   0.0090703
        k(  135) = (   0.2857143  -0.1428571   0.0000000), wk =   0.0090703
        k(  136) = (   0.2857143  -0.0952381   0.0000000), wk =   0.0090703
        k(  137) = (   0.2857143  -0.0476190   0.0000000), wk =   0.0090703
        k(  138) = (   0.3333333   0.0000000   0.0000000), wk =   0.0090703
        k(  139) = (   0.3333333   0.0476190   0.0000000), wk =   0.0090703
        k(  140) = (   0.3333333   0.0952381   0.0000000), wk =   0.0090703
        k(  141) = (   0.3333333   0.1428571   0.0000000), wk =   0.0090703
        k(  142) = (   0.3333333   0.1904762   0.0000000), wk =   0.0090703
        k(  143) = (   0.3333333   0.2380952   0.0000000), wk =   0.0090703
        k(  144) = (   0.3333333   0.2857143   0.0000000), wk =   0.0090703
        k(  145) = (   0.3333333   0.3333333   0.0000000), wk =   0.0090703
        k(  146) = (   0.3333333   0.3809524   0.0000000), wk =   0.0090703
        k(  147) = (   0.3333333   0.4285714   0.0000000), wk =   0.0090703
        k(  148) = (   0.3333333   0.4761905   0.0000000), wk =   0.0090703
        k(  149) = (   0.3333333  -0.4761905   0.0000000), wk =   0.0090703
        k(  150) = (   0.3333333  -0.4285714   0.0000000), wk =   0.0090703
        k(  151) = (   0.3333333  -0.3809524   0.0000000), wk =   0.0090703
        k(  152) = (   0.3333333  -0.3333333   0.0000000), wk =   0.0090703
        k(  153) = (   0.3333333  -0.2857143   0.0000000), wk =   0.0090703
        k(  154) = (   0.3333333  -0.2380952   0.0000000), wk =   0.0090703
        k(  155) = (   0.3333333  -0.1904762   0.0000000), wk =   0.0090703
        k(  156) = (   0.3333333  -0.1428571   0.0000000), wk =   0.0090703
        k(  157) = (   0.3333333  -0.0952381   0.0000000), wk =   0.0090703
        k(  158) = (   0.3333333  -0.0476190   0.0000000), wk =   0.0090703
        k(  159) = (   0.3809524   0.0000000   0.0000000), wk =   0.0090703
        k(  160) = (   0.3809524   0.0476190   0.0000000), wk =   0.0090703
        k(  161) = (   0.3809524   0.0952381   0.0000000), wk =   0.0090703
        k(  162) = (   0.3809524   0.1428571   0.0000000), wk =   0.0090703
        k(  163) = (   0.3809524   0.1904762   0.0000000), wk =   0.0090703
        k(  164) = (   0.3809524   0.2380952   0.0000000), wk =   0.0090703
        k(  165) = (   0.3809524   0.2857143   0.0000000), wk =   0.0090703
        k(  166) = (   0.3809524   0.3333333   0.0000000), wk =   0.0090703
        k(  167) = (   0.3809524   0.3809524   0.0000000), wk =   0.0090703
        k(  168) = (   0.3809524   0.4285714   0.0000000), wk =   0.0090703
        k(  169) = (   0.3809524   0.4761905   0.0000000), wk =   0.0090703
        k(  170) = (   0.3809524  -0.4761905   0.0000000), wk =   0.0090703
        k(  171) = (   0.3809524  -0.4285714   0.0000000), wk =   0.0090703
        k(  172) = (   0.3809524  -0.3809524   0.0000000), wk =   0.0090703
        k(  173) = (   0.3809524  -0.3333333   0.0000000), wk =   0.0090703
        k(  174) = (   0.3809524  -0.2857143   0.0000000), wk =   0.0090703
        k(  175) = (   0.3809524  -0.2380952   0.0000000), wk =   0.0090703
        k(  176) = (   0.3809524  -0.1904762   0.0000000), wk =   0.0090703
        k(  177) = (   0.3809524  -0.1428571   0.0000000), wk =   0.0090703
        k(  178) = (   0.3809524  -0.0952381   0.0000000), wk =   0.0090703
        k(  179) = (   0.3809524  -0.0476190   0.0000000), wk =   0.0090703
        k(  180) = (   0.4285714  -0.0000000   0.0000000), wk =   0.0090703
        k(  181) = (   0.4285714   0.0476190   0.0000000), wk =   0.0090703
        k(  182) = (   0.4285714   0.0952381   0.0000000), wk =   0.0090703
        k(  183) = (   0.4285714   0.1428571   0.0000000), wk =   0.0090703
        k(  184) = (   0.4285714   0.1904762   0.0000000), wk =   0.0090703
        k(  185) = (   0.4285714   0.2380952   0.0000000), wk =   0.0090703
        k(  186) = (   0.4285714   0.2857143   0.0000000), wk =   0.0090703
        k(  187) = (   0.4285714   0.3333333   0.0000000), wk =   0.0090703
        k(  188) = (   0.4285714   0.3809524   0.0000000), wk =   0.0090703
        k(  189) = (   0.4285714   0.4285714   0.0000000), wk =   0.0090703
        k(  190) = (   0.4285714   0.4761905   0.0000000), wk =   0.0090703
        k(  191) = (   0.4285714  -0.4761905   0.0000000), wk =   0.0090703
        k(  192) = (   0.4285714  -0.4285714   0.0000000), wk =   0.0090703
        k(  193) = (   0.4285714  -0.3809524   0.0000000), wk =   0.0090703
        k(  194) = (   0.4285714  -0.3333333   0.0000000), wk =   0.0090703
        k(  195) = (   0.4285714  -0.2857143   0.0000000), wk =   0.0090703
        k(  196) = (   0.4285714  -0.2380952   0.0000000), wk =   0.0090703
        k(  197) = (   0.4285714  -0.1904762   0.0000000), wk =   0.0090703
        k(  198) = (   0.4285714  -0.1428571   0.0000000), wk =   0.0090703
        k(  199) = (   0.4285714  -0.0952381   0.0000000), wk =   0.0090703
        k(  200) = (   0.4285714  -0.0476190   0.0000000), wk =   0.0090703
        k(  201) = (   0.4761905   0.0000000   0.0000000), wk =   0.0090703
        k(  202) = (   0.4761905   0.0476190   0.0000000), wk =   0.0090703
        k(  203) = (   0.4761905   0.0952381   0.0000000), wk =   0.0090703
        k(  204) = (   0.4761905   0.1428571   0.0000000), wk =   0.0090703
        k(  205) = (   0.4761905   0.1904762   0.0000000), wk =   0.0090703
        k(  206) = (   0.4761905   0.2380952   0.0000000), wk =   0.0090703
        k(  207) = (   0.4761905   0.2857143   0.0000000), wk =   0.0090703
        k(  208) = (   0.4761905   0.3333333   0.0000000), wk =   0.0090703
        k(  209) = (   0.4761905   0.3809524   0.0000000), wk =   0.0090703
        k(  210) = (   0.4761905   0.4285714   0.0000000), wk =   0.0090703
        k(  211) = (   0.4761905   0.4761905   0.0000000), wk =   0.0090703
        k(  212) = (   0.4761905  -0.4761905   0.0000000), wk =   0.0090703
        k(  213) = (   0.4761905  -0.4285714   0.0000000), wk =   0.0090703
        k(  214) = (   0.4761905  -0.3809524   0.0000000), wk =   0.0090703
        k(  215) = (   0.4761905  -0.3333333   0.0000000), wk =   0.0090703
        k(  216) = (   0.4761905  -0.2857143   0.0000000), wk =   0.0090703
        k(  217) = (   0.4761905  -0.2380952   0.0000000), wk =   0.0090703
        k(  218) = (   0.4761905  -0.1904762   0.0000000), wk =   0.0090703
        k(  219) = (   0.4761905  -0.1428571   0.0000000), wk =   0.0090703
        k(  220) = (   0.4761905  -0.0952381   0.0000000), wk =   0.0090703
        k(  221) = (   0.4761905  -0.0476190   0.0000000), wk =   0.0090703

     Dense  grid:   458817 G-vectors     FFT dimensions: (  60,  60, 300)

     Smooth grid:   116185 G-vectors     FFT dimensions: (  40,  40, 192)

     Dynamical RAM for                 wfc:       0.36 MB

     Dynamical RAM for     wfc (w. buffer):      79.79 MB

     Dynamical RAM for           str. fact:       0.58 MB

     Dynamical RAM for           local pot:       0.00 MB

     Dynamical RAM for          nlocal pot:       0.83 MB

     Dynamical RAM for                qrad:       3.59 MB

     Dynamical RAM for          rho,v,vnew:       1.95 MB

     Dynamical RAM for               rhoin:       0.65 MB

     Dynamical RAM for            rho*nmix:       4.67 MB

     Dynamical RAM for           G-vectors:       1.13 MB

     Dynamical RAM for          h,s,v(r/c):       0.28 MB

     Dynamical RAM for          <psi|beta>:       0.05 MB

     Dynamical RAM for                 psi:       0.72 MB

     Dynamical RAM for                hpsi:       0.72 MB

     Dynamical RAM for      wfcinit/wfcrot:       0.75 MB

     Estimated static dynamical RAM per process >      91.18 MB

     Estimated max dynamical RAM per process >      97.62 MB

     Estimated total dynamical RAM >       2.29 GB

     Initial potential from superposition of free atoms

     starting charge      77.7638, renormalised to      78.0000

     negative rho (up, down):  3.851E-04 0.000E+00
     Starting wfcs are random

     total cpu time spent up to now is        5.0 secs

     Self-consistent Calculation

     iteration #  1     ecut=    50.00 Ry     beta= 0.70
     Davidson diagonalization with overlap

---- Real-time Memory Report at c_bands before calling an iterative solver
           282 MiB given to the printing process from OS
             0 MiB allocation reported by mallinfo(arena+hblkhd)
        117757 MiB available memory on the node where the printing process lives
------------------
     ethr =  1.00E-02,  avg # of iterations = 10.9

     Threshold (ethr) on eigenvalues was too large:
     Diagonalizing with lowered threshold

     Davidson diagonalization with overlap

---- Real-time Memory Report at c_bands before calling an iterative solver
           288 MiB given to the printing process from OS
             0 MiB allocation reported by mallinfo(arena+hblkhd)
        117730 MiB available memory on the node where the printing process lives
------------------
     ethr =  1.21E-04,  avg # of iterations =  5.9

     negative rho (up, down):  1.629E-05 0.000E+00

     total cpu time spent up to now is       64.6 secs

     total energy              =    -806.58329280 Ry
     estimated scf accuracy    <       0.08265933 Ry

     iteration #  2     ecut=    50.00 Ry     beta= 0.70
     Davidson diagonalization with overlap

---- Real-time Memory Report at c_bands before calling an iterative solver
           293 MiB given to the printing process from OS
             0 MiB allocation reported by mallinfo(arena+hblkhd)
        117668 MiB available memory on the node where the printing process lives
------------------
     ethr =  1.06E-04,  avg # of iterations =  5.2

     negative rho (up, down):  2.735E-05 0.000E+00

     total cpu time spent up to now is       81.3 secs

     total energy              =    -806.53689514 Ry
     estimated scf accuracy    <       0.44926303 Ry

     iteration #  3     ecut=    50.00 Ry     beta= 0.70
     Davidson diagonalization with overlap

---- Real-time Memory Report at c_bands before calling an iterative solver
           294 MiB given to the printing process from OS
             0 MiB allocation reported by mallinfo(arena+hblkhd)
        117666 MiB available memory on the node where the printing process lives
------------------
     ethr =  1.06E-04,  avg # of iterations =  5.2

     negative rho (up, down):  2.300E-05 0.000E+00

     total cpu time spent up to now is       97.4 secs

     total energy              =    -806.59407628 Ry
     estimated scf accuracy    <       0.23747710 Ry

     iteration #  4     ecut=    50.00 Ry     beta= 0.70
     Davidson diagonalization with overlap

---- Real-time Memory Report at c_bands before calling an iterative solver
           294 MiB given to the printing process from OS
             0 MiB allocation reported by mallinfo(arena+hblkhd)
        117664 MiB available memory on the node where the printing process lives
------------------
     ethr =  1.06E-04,  avg # of iterations =  3.4

     negative rho (up, down):  6.000E-06 0.000E+00

     total cpu time spent up to now is      110.4 secs

     total energy              =    -806.61805123 Ry
     estimated scf accuracy    <       0.00450912 Ry

     iteration #  5     ecut=    50.00 Ry     beta= 0.70
     Davidson diagonalization with overlap

---- Real-time Memory Report at c_bands before calling an iterative solver
           294 MiB given to the printing process from OS
             0 MiB allocation reported by mallinfo(arena+hblkhd)
        117661 MiB available memory on the node where the printing process lives
------------------
     ethr =  5.78E-06,  avg # of iterations =  6.7

     negative rho (up, down):  2.689E-06 0.000E+00

     total cpu time spent up to now is      126.9 secs

     total energy              =    -806.61467202 Ry
     estimated scf accuracy    <       0.09064093 Ry

     iteration #  6     ecut=    50.00 Ry     beta= 0.70
     Davidson diagonalization with overlap

---- Real-time Memory Report at c_bands before calling an iterative solver
           294 MiB given to the printing process from OS
             0 MiB allocation reported by mallinfo(arena+hblkhd)
        117660 MiB available memory on the node where the printing process lives
------------------
     ethr =  5.78E-06,  avg # of iterations =  6.9

     negative rho (up, down):  2.373E-08 0.000E+00

     total cpu time spent up to now is      142.0 secs

     total energy              =    -806.61960120 Ry
     estimated scf accuracy    <       0.00296997 Ry

     iteration #  7     ecut=    50.00 Ry     beta= 0.70
     Davidson diagonalization with overlap

---- Real-time Memory Report at c_bands before calling an iterative solver
           295 MiB given to the printing process from OS
             0 MiB allocation reported by mallinfo(arena+hblkhd)
        117659 MiB available memory on the node where the printing process lives
------------------
     ethr =  3.81E-06,  avg # of iterations =  2.5

     total cpu time spent up to now is      153.3 secs

     total energy              =    -806.61982556 Ry
     estimated scf accuracy    <       0.00013892 Ry

     iteration #  8     ecut=    50.00 Ry     beta= 0.70
     Davidson diagonalization with overlap

---- Real-time Memory Report at c_bands before calling an iterative solver
           295 MiB given to the printing process from OS
             0 MiB allocation reported by mallinfo(arena+hblkhd)
        117656 MiB available memory on the node where the printing process lives
------------------
     ethr =  1.78E-07,  avg # of iterations =  5.6

     total cpu time spent up to now is      168.3 secs

     total energy              =    -806.61986643 Ry
     estimated scf accuracy    <       0.00013421 Ry

     iteration #  9     ecut=    50.00 Ry     beta= 0.70
     Davidson diagonalization with overlap

---- Real-time Memory Report at c_bands before calling an iterative solver
           295 MiB given to the printing process from OS
             0 MiB allocation reported by mallinfo(arena+hblkhd)
        117654 MiB available memory on the node where the printing process lives
------------------
     ethr =  1.72E-07,  avg # of iterations =  2.0

     total cpu time spent up to now is      179.0 secs

     total energy              =    -806.61986133 Ry
     estimated scf accuracy    <       0.00006237 Ry

     iteration # 10     ecut=    50.00 Ry     beta= 0.70
     Davidson diagonalization with overlap

---- Real-time Memory Report at c_bands before calling an iterative solver
           295 MiB given to the printing process from OS
             0 MiB allocation reported by mallinfo(arena+hblkhd)
        117653 MiB available memory on the node where the printing process lives
------------------
     ethr =  8.00E-08,  avg # of iterations =  3.4

     total cpu time spent up to now is      190.9 secs

     total energy              =    -806.61986600 Ry
     estimated scf accuracy    <       0.00000237 Ry

     iteration # 11     ecut=    50.00 Ry     beta= 0.70
     Davidson diagonalization with overlap

---- Real-time Memory Report at c_bands before calling an iterative solver
           295 MiB given to the printing process from OS
             0 MiB allocation reported by mallinfo(arena+hblkhd)
        117650 MiB available memory on the node where the printing process lives
------------------
     ethr =  3.04E-09,  avg # of iterations =  5.8

     total cpu time spent up to now is      206.2 secs

     total energy              =    -806.61986669 Ry
     estimated scf accuracy    <       0.00000387 Ry

     iteration # 12     ecut=    50.00 Ry     beta= 0.70
     Davidson diagonalization with overlap

---- Real-time Memory Report at c_bands before calling an iterative solver
           295 MiB given to the printing process from OS
             0 MiB allocation reported by mallinfo(arena+hblkhd)
        117650 MiB available memory on the node where the printing process lives
------------------
     ethr =  3.04E-09,  avg # of iterations =  2.9

     total cpu time spent up to now is      217.8 secs

     total energy              =    -806.61986686 Ry
     estimated scf accuracy    <       0.00000032 Ry

     iteration # 13     ecut=    50.00 Ry     beta= 0.70
     Davidson diagonalization with overlap

---- Real-time Memory Report at c_bands before calling an iterative solver
           297 MiB given to the printing process from OS
             0 MiB allocation reported by mallinfo(arena+hblkhd)
        117648 MiB available memory on the node where the printing process lives
------------------
     ethr =  4.04E-10,  avg # of iterations =  5.5

     total cpu time spent up to now is      232.3 secs

     total energy              =    -806.61986692 Ry
     estimated scf accuracy    <       0.00000020 Ry

     iteration # 14     ecut=    50.00 Ry     beta= 0.70
     Davidson diagonalization with overlap

---- Real-time Memory Report at c_bands before calling an iterative solver
           297 MiB given to the printing process from OS
             0 MiB allocation reported by mallinfo(arena+hblkhd)
        117648 MiB available memory on the node where the printing process lives
------------------
     ethr =  2.59E-10,  avg # of iterations =  2.2

     total cpu time spent up to now is      243.1 secs

     End of self-consistent calculation

          k = 0.0000 0.0000 0.0000 ( 14485 PWs)   bands (ev):

   -34.6312 -34.6311 -34.6310 -34.6310 -34.6034 -34.6031 -34.6015 -34.6012
   -34.5919 -34.5919 -34.5193 -34.5090 -34.5056 -34.4693 -34.4692 -27.3884
   -27.3884 -27.3883 -27.3882 -27.3799 -27.3796 -27.3766 -27.3765 -27.3760
   -27.3758 -10.6165 -10.0898  -9.0034  -6.2469  -4.8359  -0.1459   0.2564
     0.3427   0.4766   0.5409   0.8550   1.0845   1.1356   1.3904

     occupation numbers 
     1.0000   1.0000   1.0000   1.0000   1.0000   1.0000   1.0000   1.0000
     1.0000   1.0000   1.0000   1.0000   1.0000   1.0000   1.0000   1.0000
     1.0000   1.0000   1.0000   1.0000   1.0000   1.0000   1.0000   1.0000
     1.0000   1.0000   1.0000   1.0000   1.0000   1.0000   1.0000   1.0000
     1.0000   1.0000   1.0000   1.0000   1.0000   1.0000   1.0000

          k = 0.0000 0.0555 0.0000 ( 14480 PWs)   bands (ev):

   -34.6312 -34.6311 -34.6310 -34.6310 -34.6034 -34.6031 -34.6015 -34.6012
   -34.5919 -34.5919 -34.5193 -34.5090 -34.5056 -34.4693 -34.4692 -27.3884
   -27.3883 -27.3883 -27.3881 -27.3799 -27.3795 -27.3766 -27.3764 -27.3761
   -27.3758 -10.5966 -10.0714  -8.9919  -6.2486  -4.8676  -0.1965   0.1263
     0.1785   0.3449   0.4564   0.8316   1.1079   1.1278   1.5944

     occupation numbers 
     1.0000   1.0000   1.0000   1.0000   1.0000   1.0000   1.0000   1.0000
     1.0000   1.0000   1.0000   1.0000   1.0000   1.0000   1.0000   1.0000
     1.0000   1.0000   1.0000   1.0000   1.0000   1.0000   1.0000   1.0000
     1.0000   1.0000   1.0000   1.0000   1.0000   1.0000   1.0000   1.0000
     1.0000   1.0000   1.0000   1.0000   1.0000   1.0000   1.0000

          k = 0.0000 0.1111 0.0000 ( 14508 PWs)   bands (ev):

   -34.6312 -34.6311 -34.6309 -34.6309 -34.6034 -34.6031 -34.6015 -34.6013
   -34.5919 -34.5918 -34.5193 -34.5090 -34.5056 -34.4692 -34.4692 -27.3884
   -27.3883 -27.3880 -27.3879 -27.3797 -27.3794 -27.3767 -27.3765 -27.3762
   -27.3760 -10.5371 -10.0166  -8.9580  -6.2556  -4.9630  -0.4960  -0.1339
    -0.0110   0.0896   0.3646   0.4638   1.1598   1.3875   1.7304

     occupation numbers 
     1.0000   1.0000   1.0000   1.0000   1.0000   1.0000   1.0000   1.0000
     1.0000   1.0000   1.0000   1.0000   1.0000   1.0000   1.0000   1.0000
     1.0000   1.0000   1.0000   1.0000   1.0000   1.0000   1.0000   1.0000
     1.0000   1.0000   1.0000   1.0000   1.0000   1.0000   1.0000   1.0000
     1.0000   1.0000   1.0000   1.0000   1.0000   1.0000   1.0000

          k = 0.0000 0.1666 0.0000 ( 14497 PWs)   bands (ev):

   -34.6312 -34.6311 -34.6308 -34.6307 -34.6034 -34.6032 -34.6016 -34.6013
   -34.5918 -34.5918 -34.5192 -34.5090 -34.5057 -34.4692 -34.4690 -27.3885
   -27.3884 -27.3876 -27.3875 -27.3795 -27.3792 -27.3769 -27.3767 -27.3763
   -27.3762 -10.4386  -9.9266  -8.9044  -6.2741  -5.1211  -0.9751  -0.3734
    -0.2342  -0.1940   0.2174   0.2453   1.1808   1.4430   1.6573

     occupation numbers 
     1.0000   1.0000   1.0000   1.0000   1.0000   1.0000   1.0000   1.0000
     1.0000   1.0000   1.0000   1.0000   1.0000   1.0000   1.0000   1.0000
     1.0000   1.0000   1.0000   1.0000   1.0000   1.0000   1.0000   1.0000
     1.0000   1.0000   1.0000   1.0000   1.0000   1.0000   1.0000   1.0000
     1.0000   1.0000   1.0000   1.0000   1.0000   1.0000   1.0000

          k = 0.0000 0.2221 0.0000 ( 14501 PWs)   bands (ev):

   -34.6311 -34.6311 -34.6306 -34.6305 -34.6034 -34.6032 -34.6016 -34.6013
   -34.5917 -34.5917 -34.5191 -34.5090 -34.5057 -34.4691 -34.4689 -27.3886
   -27.3884 -27.3871 -27.3869 -27.3792 -27.3789 -27.3772 -27.3770 -27.3766
   -27.3763 -10.3026  -9.8037  -8.8354  -6.3143  -5.3370  -1.4527  -0.6517
    -0.5277  -0.4614   0.0496   0.2288   1.0647   1.1640   1.7885

     occupation numbers 
     1.0000   1.0000   1.0000   1.0000   1.0000   1.0000   1.0000   1.0000
     1.0000   1.0000   1.0000   1.0000   1.0000   1.0000   1.0000   1.0000
     1.0000   1.0000   1.0000   1.0000   1.0000   1.0000   1.0000   1.0000
     1.0000   1.0000   1.0000   1.0000   1.0000   1.0000   1.0000   1.0000
     1.0000   1.0000   1.0000   1.0000   1.0000   1.0000   1.0000

          k = 0.0000 0.2777 0.0000 ( 14496 PWs)   bands (ev):

   -34.6311 -34.6311 -34.6304 -34.6303 -34.6034 -34.6032 -34.6016 -34.6014
   -34.5916 -34.5916 -34.5190 -34.5090 -34.5058 -34.4691 -34.4686 -27.3887
   -27.3885 -27.3865 -27.3864 -27.3789 -27.3786 -27.3776 -27.3772 -27.3769
   -27.3764 -10.1313  -9.6514  -8.7580  -6.3892  -5.5968  -1.8810  -1.0119
    -0.7118  -0.6740  -0.1210   0.2442   0.7121   1.1168   1.7556

     occupation numbers 
     1.0000   1.0000   1.0000   1.0000   1.0000   1.0000   1.0000   1.0000
     1.0000   1.0000   1.0000   1.0000   1.0000   1.0000   1.0000   1.0000
     1.0000   1.0000   1.0000   1.0000   1.0000   1.0000   1.0000   1.0000
     1.0000   1.0000   1.0000   1.0000   1.0000   1.0000   1.0000   1.0000
     1.0000   1.0000   1.0000   1.0000   1.0000   1.0000   1.0000

          k = 0.0000 0.3332 0.0000 ( 14523 PWs)   bands (ev):

   -34.6311 -34.6311 -34.6301 -34.6301 -34.6034 -34.6032 -34.6017 -34.6014
   -34.5915 -34.5914 -34.5189 -34.5091 -34.5058 -34.4691 -34.4684 -27.3888
   -27.3886 -27.3859 -27.3858 -27.3787 -27.3783 -27.3779 -27.3775 -27.3771
   -27.3764  -9.9279  -9.4755  -8.6827  -6.5117  -5.8772  -2.2424  -1.3269
    -0.8618  -0.8378  -0.2787   0.1569   0.5254   1.0540   1.5871

     occupation numbers 
     1.0000   1.0000   1.0000   1.0000   1.0000   1.0000   1.0000   1.0000
     1.0000   1.0000   1.0000   1.0000   1.0000   1.0000   1.0000   1.0000
     1.0000   1.0000   1.0000   1.0000   1.0000   1.0000   1.0000   1.0000
     1.0000   1.0000   1.0000   1.0000   1.0000   1.0000   1.0000   1.0000
     1.0000   1.0000   1.0000   1.0000   1.0000   1.0000   1.0000

          k = 0.0000 0.3888 0.0000 ( 14540 PWs)   bands (ev):

   -34.6311 -34.6311 -34.6299 -34.6299 -34.6035 -34.6032 -34.6017 -34.6015
   -34.5914 -34.5913 -34.5188 -34.5091 -34.5059 -34.4691 -34.4682 -27.3889
   -27.3887 -27.3853 -27.3852 -27.3788 -27.3783 -27.3779 -27.3777 -27.3772
   -27.3764  -9.6976  -9.2856  -8.6247  -6.6861  -6.1479  -2.5323  -1.5561
    -1.0175  -0.9542  -0.4136  -0.0431   0.5300   0.9891   1.3738

     occupation numbers 
     1.0000   1.0000   1.0000   1.0000   1.0000   1.0000   1.0000   1.0000
     1.0000   1.0000   1.0000   1.0000   1.0000   1.0000   1.0000   1.0000
     1.0000   1.0000   1.0000   1.0000   1.0000   1.0000   1.0000   1.0000
     1.0000   1.0000   1.0000   1.0000   1.0000   1.0000   1.0000   1.0000
     1.0000   1.0000   1.0000   1.0000   1.0000   1.0000   1.0000

          k = 0.0000 0.4443 0.0000 ( 14541 PWs)   bands (ev):

   -34.6311 -34.6310 -34.6298 -34.6298 -34.6035 -34.6033 -34.6018 -34.6015
   -34.5913 -34.5912 -34.5187 -34.5091 -34.5059 -34.4691 -34.4681 -27.3890
   -27.3888 -27.3849 -27.3847 -27.3791 -27.3785 -27.3778 -27.3775 -27.3773
   -27.3764  -9.4489  -9.0968  -8.6043  -6.8935  -6.3814  -2.7527  -1.6830
    -1.1377  -1.0975  -0.5195  -0.1866   0.5670   0.9322   1.1825

     occupation numbers 
     1.0000   1.0000   1.0000   1.0000   1.0000   1.0000   1.0000   1.0000
     1.0000   1.0000   1.0000   1.0000   1.0000   1.0000   1.0000   1.0000
     1.0000   1.0000   1.0000   1.0000   1.0000   1.0000   1.0000   1.0000
     1.0000   1.0000   1.0000   1.0000   1.0000   1.0000   1.0000   1.0000
     1.0000   1.0000   1.0000   1.0000   1.0000   1.0000   1.0000

          k = 0.0000 0.4998 0.0000 ( 14528 PWs)   bands (ev):

   -34.6311 -34.6310 -34.6296 -34.6296 -34.6035 -34.6033 -34.6018 -34.6016
   -34.5912 -34.5912 -34.5187 -34.5091 -34.5060 -34.4691 -34.4679 -27.3891
   -27.3889 -27.3845 -27.3844 -27.3793 -27.3787 -27.3777 -27.3773 -27.3772
   -27.3764  -9.1950  -8.9349  -8.6456  -7.0856  -6.5575  -2.9042  -1.7090
    -1.2707  -1.2179  -0.5920  -0.2436   0.5791   0.8902   1.0563

     occupation numbers 
     1.0000   1.0000   1.0000   1.0000   1.0000   1.0000   1.0000   1.0000
     1.0000   1.0000   1.0000   1.0000   1.0000   1.0000   1.0000   1.0000
     1.0000   1.0000   1.0000   1.0000   1.0000   1.0000   1.0000   1.0000
     1.0000   1.0000   1.0000   1.0000   1.0000   1.0000   1.0000   1.0000
     1.0000   1.0000   1.0000   1.0000   1.0000   1.0000   1.0000

          k = 0.0000 0.5554 0.0000 ( 14542 PWs)   bands (ev):

   -34.6311 -34.6310 -34.6296 -34.6296 -34.6035 -34.6033 -34.6018 -34.6016
   -34.5912 -34.5911 -34.5187 -34.5091 -34.5060 -34.4691 -34.4679 -27.3891
   -27.3889 -27.3844 -27.3842 -27.3795 -27.3788 -27.3777 -27.3772 -27.3772
   -27.3764  -8.9575  -8.8368  -8.7651  -7.2030  -6.6547  -2.9822  -1.6638
    -1.4217  -1.2592  -0.6288  -0.2532   0.5672   0.8681   1.0048

     occupation numbers 
     1.0000   1.0000   1.0000   1.0000   1.0000   1.0000   1.0000   1.0000
     1.0000   1.0000   1.0000   1.0000   1.0000   1.0000   1.0000   1.0000
     1.0000   1.0000   1.0000   1.0000   1.0000   1.0000   1.0000   1.0000
     1.0000   1.0000   1.0000   1.0000   1.0000   1.0000   1.0000   1.0000
     1.0000   1.0000   1.0000   1.0000   1.0000   1.0000   1.0000

          k = 0.0476 0.0275 0.0000 ( 14477 PWs)   bands (ev):

   -34.6312 -34.6311 -34.6310 -34.6310 -34.6034 -34.6031 -34.6015 -34.6012
   -34.5919 -34.5919 -34.5193 -34.5090 -34.5056 -34.4693 -34.4692 -27.3884
   -27.3883 -27.3882 -27.3882 -27.3799 -27.3795 -27.3767 -27.3765 -27.3760
   -27.3758 -10.5970 -10.0718  -8.9922  -6.2491  -4.8688  -0.2017   0.0504
     0.2492   0.3128   0.5143   0.8103   1.1079   1.1617   1.5796

     occupation numbers 
     1.0000   1.0000   1.0000   1.0000   1.0000   1.0000   1.0000   1.0000
     1.0000   1.0000   1.0000   1.0000   1.0000   1.0000   1.0000   1.0000
     1.0000   1.0000   1.0000   1.0000   1.0000   1.0000   1.0000   1.0000
     1.0000   1.0000   1.0000   1.0000   1.0000   1.0000   1.0000   1.0000
     1.0000   1.0000   1.0000   1.0000   1.0000   1.0000   1.0000

          k = 0.0476 0.0830 0.0000 ( 14485 PWs)   bands (ev):

   -34.6311 -34.6311 -34.6309 -34.6309 -34.6034 -34.6031 -34.6015 -34.6013
   -34.5919 -34.5919 -34.5193 -34.5090 -34.5056 -34.4693 -34.4691 -27.3884
   -27.3883 -27.3881 -27.3880 -27.3798 -27.3795 -27.3768 -27.3765 -27.3761
   -27.3758 -10.5575 -10.0355  -8.9697  -6.2537  -4.9329  -0.3811  -0.1349
     0.0372   0.2192   0.3229   0.6986   1.0624   1.3487   1.7352

     occupation numbers 
     1.0000   1.0000   1.0000   1.0000   1.0000   1.0000   1.0000   1.0000
     1.0000   1.0000   1.0000   1.0000   1.0000   1.0000   1.0000   1.0000
     1.0000   1.0000   1.0000   1.0000   1.0000   1.0000   1.0000   1.0000
     1.0000   1.0000   1.0000   1.0000   1.0000   1.0000   1.0000   1.0000
     1.0000   1.0000   1.0000   1.0000   1.0000   1.0000   1.0000

          k = 0.0476 0.1386 0.0000 ( 14502 PWs)   bands (ev):

   -34.6311 -34.6311 -34.6308 -34.6308 -34.6034 -34.6032 -34.6015 -34.6013
   -34.5918 -34.5918 -34.5192 -34.5090 -34.5056 -34.4692 -34.4691 -27.3885
   -27.3883 -27.3878 -27.3877 -27.3796 -27.3793 -27.3769 -27.3766 -27.3763
   -27.3760 -10.4787  -9.9632  -8.9261  -6.2666  -5.0603  -0.7685  -0.3808
    -0.1706  -0.0812   0.2374   0.4886   1.0192   1.5868   1.6818

     occupation numbers 
     1.0000   1.0000   1.0000   1.0000   1.0000   1.0000   1.0000   1.0000
     1.0000   1.0000   1.0000   1.0000   1.0000   1.0000   1.0000   1.0000
     1.0000   1.0000   1.0000   1.0000   1.0000   1.0000   1.0000   1.0000
     1.0000   1.0000   1.0000   1.0000   1.0000   1.0000   1.0000   1.0000
     1.0000   1.0000   1.0000   1.0000   1.0000   1.0000   1.0000

          k = 0.0476 0.1941 0.0000 ( 14496 PWs)   bands (ev):

   -34.6311 -34.6311 -34.6307 -34.6306 -34.6034 -34.6032 -34.6016 -34.6013
   -34.5917 -34.5917 -34.5191 -34.5090 -34.5057 -34.4691 -34.4689 -27.3885
   -27.3884 -27.3873 -27.3872 -27.3794 -27.3790 -27.3771 -27.3770 -27.3763
   -27.3763 -10.3616  -9.8569  -8.8647  -6.2956  -5.2482  -1.2260  -0.6500
    -0.5022  -0.2311   0.0957   0.2889   0.9997   1.4071   1.7694

     occupation numbers 
     1.0000   1.0000   1.0000   1.0000   1.0000   1.0000   1.0000   1.0000
     1.0000   1.0000   1.0000   1.0000   1.0000   1.0000   1.0000   1.0000
     1.0000   1.0000   1.0000   1.0000   1.0000   1.0000   1.0000   1.0000
     1.0000   1.0000   1.0000   1.0000   1.0000   1.0000   1.0000   1.0000
     1.0000   1.0000   1.0000   1.0000   1.0000   1.0000   1.0000

          k = 0.0476 0.2496 0.0000 ( 14500 PWs)   bands (ev):

   -34.6311 -34.6311 -34.6305 -34.6304 -34.6034 -34.6032 -34.6016 -34.6014
   -34.5916 -34.5916 -34.5190 -34.5091 -34.5057 -34.4691 -34.4688 -27.3886
   -27.3884 -27.3868 -27.3867 -27.3791 -27.3787 -27.3774 -27.3773 -27.3766
   -27.3763 -10.2080  -9.7192  -8.7912  -6.3524  -5.4875  -1.6677  -0.9703
    -0.7035  -0.4498  -0.1348   0.2531   0.8961   1.1597   1.8034

     occupation numbers 
     1.0000   1.0000   1.0000   1.0000   1.0000   1.0000   1.0000   1.0000
     1.0000   1.0000   1.0000   1.0000   1.0000   1.0000   1.0000   1.0000
     1.0000   1.0000   1.0000   1.0000   1.0000   1.0000   1.0000   1.0000
     1.0000   1.0000   1.0000   1.0000   1.0000   1.0000   1.0000   1.0000
     1.0000   1.0000   1.0000   1.0000   1.0000   1.0000   1.0000

          k = 0.0476 0.3052 0.0000 ( 14521 PWs)   bands (ev):

   -34.6311 -34.6310 -34.6303 -34.6302 -34.6034 -34.6032 -34.6017 -34.6014
   -34.5915 -34.5915 -34.5190 -34.5091 -34.5058 -34.4691 -34.4685 -27.3887
   -27.3885 -27.3862 -27.3861 -27.3788 -27.3784 -27.3778 -27.3776 -27.3768
   -27.3764 -10.0206  -9.5549  -8.7140  -6.4497  -5.7603  -2.0584  -1.2602
    -0.8640  -0.6821  -0.3194   0.2234   0.6937   1.0340   1.7099

     occupation numbers 
     1.0000   1.0000   1.0000   1.0000   1.0000   1.0000   1.0000   1.0000
     1.0000   1.0000   1.0000   1.0000   1.0000   1.0000   1.0000   1.0000
     1.0000   1.0000   1.0000   1.0000   1.0000   1.0000   1.0000   1.0000
     1.0000   1.0000   1.0000   1.0000   1.0000   1.0000   1.0000   1.0000
     1.0000   1.0000   1.0000   1.0000   1.0000   1.0000   1.0000

          k = 0.0476 0.3607 0.0000 ( 14536 PWs)   bands (ev):

   -34.6311 -34.6310 -34.6300 -34.6300 -34.6035 -34.6032 -34.6017 -34.6015
   -34.5914 -34.5914 -34.5189 -34.5091 -34.5059 -34.4691 -34.4683 -27.3888
   -27.3886 -27.3856 -27.3855 -27.3788 -27.3782 -27.3780 -27.3777 -27.3770
   -27.3764  -9.8035  -9.3712  -8.6455  -6.5975  -6.0393  -2.3833  -1.4873
    -1.0329  -0.8676  -0.4456   0.1013   0.5694   0.9638   1.5398

     occupation numbers 
     1.0000   1.0000   1.0000   1.0000   1.0000   1.0000   1.0000   1.0000
     1.0000   1.0000   1.0000   1.0000   1.0000   1.0000   1.0000   1.0000
     1.0000   1.0000   1.0000   1.0000   1.0000   1.0000   1.0000   1.0000
     1.0000   1.0000   1.0000   1.0000   1.0000   1.0000   1.0000   1.0000
     1.0000   1.0000   1.0000   1.0000   1.0000   1.0000   1.0000

          k = 0.0476 0.4162 0.0000 ( 14542 PWs)   bands (ev):

   -34.6311 -34.6310 -34.6299 -34.6298 -34.6035 -34.6033 -34.6017 -34.6015
   -34.5913 -34.5913 -34.5188 -34.5091 -34.5059 -34.4691 -34.4682 -27.3889
   -27.3887 -27.3851 -27.3850 -27.3790 -27.3784 -27.3780 -27.3776 -27.3772
   -27.3764  -9.5633  -9.1800  -8.6031  -6.7911  -6.2939  -2.6387  -1.6355
    -1.1988  -1.0150  -0.5277  -0.0757   0.5471   0.9161   1.3540

     occupation numbers 
     1.0000   1.0000   1.0000   1.0000   1.0000   1.0000   1.0000   1.0000
     1.0000   1.0000   1.0000   1.0000   1.0000   1.0000   1.0000   1.0000
     1.0000   1.0000   1.0000   1.0000   1.0000   1.0000   1.0000   1.0000
     1.0000   1.0000   1.0000   1.0000   1.0000   1.0000   1.0000   1.0000
     1.0000   1.0000   1.0000   1.0000   1.0000   1.0000   1.0000

          k = 0.0476 0.4718 0.0000 ( 14525 PWs)   bands (ev):

   -34.6311 -34.6310 -34.6297 -34.6297 -34.6035 -34.6033 -34.6018 -34.6015
   -34.5912 -34.5912 -34.5187 -34.5091 -34.5060 -34.4690 -34.4680 -27.3890
   -27.3888 -27.3847 -27.3846 -27.3792 -27.3786 -27.3778 -27.3774 -27.3772
   -27.3764  -9.3106  -9.0011  -8.6094  -6.9974  -6.5007  -2.8247  -1.6990
    -1.3337  -1.1497  -0.5947  -0.2000   0.5529   0.8800   1.1999

     occupation numbers 
     1.0000   1.0000   1.0000   1.0000   1.0000   1.0000   1.0000   1.0000
     1.0000   1.0000   1.0000   1.0000   1.0000   1.0000   1.0000   1.0000
     1.0000   1.0000   1.0000   1.0000   1.0000   1.0000   1.0000   1.0000
     1.0000   1.0000   1.0000   1.0000   1.0000   1.0000   1.0000   1.0000
     1.0000   1.0000   1.0000   1.0000   1.0000   1.0000   1.0000

          k = 0.0476 0.5273 0.0000 ( 14550 PWs)   bands (ev):

   -34.6311 -34.6310 -34.6296 -34.6296 -34.6035 -34.6033 -34.6018 -34.6016
   -34.5912 -34.5912 -34.5187 -34.5091 -34.5060 -34.4690 -34.4679 -27.3890
   -27.3888 -27.3845 -27.3843 -27.3794 -27.3788 -27.3778 -27.3773 -27.3772
   -27.3764  -9.0626  -8.8662  -8.6870  -7.1593  -6.6398  -2.9394  -1.6904
    -1.4368  -1.2566  -0.6531  -0.2479   0.5619   0.8425   1.1112

     occupation numbers 
     1.0000   1.0000   1.0000   1.0000   1.0000   1.0000   1.0000   1.0000
     1.0000   1.0000   1.0000   1.0000   1.0000   1.0000   1.0000   1.0000
     1.0000   1.0000   1.0000   1.0000   1.0000   1.0000   1.0000   1.0000
     1.0000   1.0000   1.0000   1.0000   1.0000   1.0000   1.0000   1.0000
     1.0000   1.0000   1.0000   1.0000   1.0000   1.0000   1.0000

          k = 0.0476 0.5829 0.0000 ( 14553 PWs)   bands (ev):

   -34.6311 -34.6310 -34.6296 -34.6296 -34.6035 -34.6033 -34.6018 -34.6016
   -34.5912 -34.5911 -34.5187 -34.5091 -34.5060 -34.4690 -34.4679 -27.3890
   -27.3889 -27.3844 -27.3842 -27.3794 -27.3788 -27.3777 -27.3772 -27.3772
   -27.3765  -8.8496  -8.8388  -8.8138  -7.2214  -6.6897  -2.9786  -1.6612
    -1.4955  -1.2944  -0.6775  -0.2560   0.5666   0.8207   1.0870

     occupation numbers 
     1.0000   1.0000   1.0000   1.0000   1.0000   1.0000   1.0000   1.0000
     1.0000   1.0000   1.0000   1.0000   1.0000   1.0000   1.0000   1.0000
     1.0000   1.0000   1.0000   1.0000   1.0000   1.0000   1.0000   1.0000
     1.0000   1.0000   1.0000   1.0000   1.0000   1.0000   1.0000   1.0000
     1.0000   1.0000   1.0000   1.0000   1.0000   1.0000   1.0000

          k = 0.0476-0.5279 0.0000 ( 14559 PWs)   bands (ev):

   -34.6311 -34.6310 -34.6296 -34.6296 -34.6035 -34.6033 -34.6018 -34.6016
   -34.5912 -34.5912 -34.5187 -34.5091 -34.5060 -34.4690 -34.4679 -27.3890
   -27.3888 -27.3845 -27.3843 -27.3794 -27.3788 -27.3777 -27.3773 -27.3772
   -27.3765  -9.0605  -8.8651  -8.6880  -7.1599  -6.6396  -2.9402  -1.6880
    -1.4476  -1.2469  -0.6562  -0.2448   0.5630   0.8368   1.1138

     occupation numbers 
     1.0000   1.0000   1.0000   1.0000   1.0000   1.0000   1.0000   1.0000
     1.0000   1.0000   1.0000   1.0000   1.0000   1.0000   1.0000   1.0000
     1.0000   1.0000   1.0000   1.0000   1.0000   1.0000   1.0000   1.0000
     1.0000   1.0000   1.0000   1.0000   1.0000   1.0000   1.0000   1.0000
     1.0000   1.0000   1.0000   1.0000   1.0000   1.0000   1.0000

          k = 0.0476-0.4723 0.0000 ( 14543 PWs)   bands (ev):

   -34.6311 -34.6310 -34.6297 -34.6297 -34.6035 -34.6033 -34.6018 -34.6016
   -34.5912 -34.5912 -34.5187 -34.5091 -34.5060 -34.4691 -34.4680 -27.3890
   -27.3888 -27.3847 -27.3846 -27.3792 -27.3786 -27.3777 -27.3774 -27.3773
   -27.3765  -9.3083  -8.9994  -8.6095  -6.9983  -6.5001  -2.8261  -1.6997
    -1.3421  -1.1374  -0.6020  -0.1935   0.5563   0.8685   1.2032

     occupation numbers 
     1.0000   1.0000   1.0000   1.0000   1.0000   1.0000   1.0000   1.0000
     1.0000   1.0000   1.0000   1.0000   1.0000   1.0000   1.0000   1.0000
     1.0000   1.0000   1.0000   1.0000   1.0000   1.0000   1.0000   1.0000
     1.0000   1.0000   1.0000   1.0000   1.0000   1.0000   1.0000   1.0000
     1.0000   1.0000   1.0000   1.0000   1.0000   1.0000   1.0000

          k = 0.0476-0.4168 0.0000 ( 14539 PWs)   bands (ev):

   -34.6311 -34.6310 -34.6299 -34.6298 -34.6035 -34.6032 -34.6018 -34.6015
   -34.5913 -34.5913 -34.5188 -34.5091 -34.5059 -34.4691 -34.4681 -27.3889
   -27.3887 -27.3851 -27.3850 -27.3789 -27.3784 -27.3778 -27.3776 -27.3773
   -27.3765  -9.5610  -9.1779  -8.6024  -6.7917  -6.2928  -2.6407  -1.6386
    -1.2029  -1.0029  -0.5364  -0.0679   0.5501   0.9041   1.3539

     occupation numbers 
     1.0000   1.0000   1.0000   1.0000   1.0000   1.0000   1.0000   1.0000
     1.0000   1.0000   1.0000   1.0000   1.0000   1.0000   1.0000   1.0000
     1.0000   1.0000   1.0000   1.0000   1.0000   1.0000   1.0000   1.0000
     1.0000   1.0000   1.0000   1.0000   1.0000   1.0000   1.0000   1.0000
     1.0000   1.0000   1.0000   1.0000   1.0000   1.0000   1.0000

          k = 0.0476-0.3613 0.0000 ( 14534 PWs)   bands (ev):

   -34.6311 -34.6311 -34.6300 -34.6300 -34.6035 -34.6032 -34.6017 -34.6015
   -34.5914 -34.5914 -34.5189 -34.5091 -34.5059 -34.4691 -34.4683 -27.3888
   -27.3886 -27.3856 -27.3855 -27.3787 -27.3782 -27.3779 -27.3776 -27.3773
   -27.3765  -9.8013  -9.3690  -8.6444  -6.5974  -6.0376  -2.3860  -1.4903
    -1.0358  -0.8571  -0.4503   0.1095   0.5652   0.9558   1.5349

     occupation numbers 
     1.0000   1.0000   1.0000   1.0000   1.0000   1.0000   1.0000   1.0000
     1.0000   1.0000   1.0000   1.0000   1.0000   1.0000   1.0000   1.0000
     1.0000   1.0000   1.0000   1.0000   1.0000   1.0000   1.0000   1.0000
     1.0000   1.0000   1.0000   1.0000   1.0000   1.0000   1.0000   1.0000
     1.0000   1.0000   1.0000   1.0000   1.0000   1.0000   1.0000

          k = 0.0476-0.3057 0.0000 ( 14499 PWs)   bands (ev):

   -34.6311 -34.6311 -34.6302 -34.6302 -34.6034 -34.6032 -34.6017 -34.6014
   -34.5915 -34.5915 -34.5190 -34.5091 -34.5058 -34.4691 -34.4685 -27.3887
   -27.3885 -27.3862 -27.3861 -27.3788 -27.3784 -27.3778 -27.3773 -27.3772
   -27.3764 -10.0186  -9.5529  -8.7127  -6.4489  -5.7581  -2.0616  -1.2604
    -0.8676  -0.6749  -0.3183   0.2311   0.6807   1.0295   1.7020

     occupation numbers 
     1.0000   1.0000   1.0000   1.0000   1.0000   1.0000   1.0000   1.0000
     1.0000   1.0000   1.0000   1.0000   1.0000   1.0000   1.0000   1.0000
     1.0000   1.0000   1.0000   1.0000   1.0000   1.0000   1.0000   1.0000
     1.0000   1.0000   1.0000   1.0000   1.0000   1.0000   1.0000   1.0000
     1.0000   1.0000   1.0000   1.0000   1.0000   1.0000   1.0000

          k = 0.0476-0.2502 0.0000 ( 14514 PWs)   bands (ev):

   -34.6311 -34.6311 -34.6304 -34.6304 -34.6034 -34.6032 -34.6016 -34.6014
   -34.5916 -34.5916 -34.5190 -34.5090 -34.5058 -34.4691 -34.4687 -27.3886
   -27.3885 -27.3868 -27.3866 -27.3790 -27.3787 -27.3774 -27.3771 -27.3768
   -27.3764 -10.2063  -9.7175  -8.7900  -6.3511  -5.4849  -1.6707  -0.9656
    -0.7071  -0.4441  -0.1333   0.2542   0.8861   1.1496   1.7967

     occupation numbers 
     1.0000   1.0000   1.0000   1.0000   1.0000   1.0000   1.0000   1.0000
     1.0000   1.0000   1.0000   1.0000   1.0000   1.0000   1.0000   1.0000
     1.0000   1.0000   1.0000   1.0000   1.0000   1.0000   1.0000   1.0000
     1.0000   1.0000   1.0000   1.0000   1.0000   1.0000   1.0000   1.0000
     1.0000   1.0000   1.0000   1.0000   1.0000   1.0000   1.0000

          k = 0.0476-0.1947 0.0000 ( 14497 PWs)   bands (ev):

   -34.6311 -34.6311 -34.6306 -34.6306 -34.6034 -34.6032 -34.6016 -34.6013
   -34.5917 -34.5917 -34.5191 -34.5090 -34.5057 -34.4692 -34.4689 -27.3885
   -27.3884 -27.3873 -27.3872 -27.3793 -27.3790 -27.3770 -27.3769 -27.3765
   -27.3764 -10.3603  -9.8555  -8.8636  -6.2943  -5.2453  -1.2271  -0.6408
    -0.5040  -0.2189   0.0841   0.2835   0.9952   1.3879   1.7683

     occupation numbers 
     1.0000   1.0000   1.0000   1.0000   1.0000   1.0000   1.0000   1.0000
     1.0000   1.0000   1.0000   1.0000   1.0000   1.0000   1.0000   1.0000
     1.0000   1.0000   1.0000   1.0000   1.0000   1.0000   1.0000   1.0000
     1.0000   1.0000   1.0000   1.0000   1.0000   1.0000   1.0000   1.0000
     1.0000   1.0000   1.0000   1.0000   1.0000   1.0000   1.0000

          k = 0.0476-0.1391 0.0000 ( 14498 PWs)   bands (ev):

   -34.6312 -34.6311 -34.6308 -34.6308 -34.6034 -34.6031 -34.6016 -34.6013
   -34.5918 -34.5918 -34.5192 -34.5090 -34.5056 -34.4692 -34.4691 -27.3885
   -27.3883 -27.3878 -27.3876 -27.3796 -27.3793 -27.3768 -27.3766 -27.3764
   -27.3761 -10.4777  -9.9622  -8.9252  -6.2654  -5.0577  -0.7645  -0.3718
    -0.1686  -0.0617   0.2113   0.4772   1.0082   1.5903   1.6662

     occupation numbers 
     1.0000   1.0000   1.0000   1.0000   1.0000   1.0000   1.0000   1.0000
     1.0000   1.0000   1.0000   1.0000   1.0000   1.0000   1.0000   1.0000
     1.0000   1.0000   1.0000   1.0000   1.0000   1.0000   1.0000   1.0000
     1.0000   1.0000   1.0000   1.0000   1.0000   1.0000   1.0000   1.0000
     1.0000   1.0000   1.0000   1.0000   1.0000   1.0000   1.0000

          k = 0.0476-0.0836 0.0000 ( 14510 PWs)   bands (ev):

   -34.6312 -34.6311 -34.6309 -34.6309 -34.6034 -34.6031 -34.6015 -34.6013
   -34.5919 -34.5919 -34.5193 -34.5090 -34.5056 -34.4693 -34.4691 -27.3884
   -27.3883 -27.3881 -27.3880 -27.3798 -27.3794 -27.3767 -27.3765 -27.3762
   -27.3759 -10.5569 -10.0348  -8.9692  -6.2529  -4.9312  -0.3720  -0.1125
     0.0412   0.2242   0.2870   0.6944   1.0361   1.3561   1.7334

     occupation numbers 
     1.0000   1.0000   1.0000   1.0000   1.0000   1.0000   1.0000   1.0000
     1.0000   1.0000   1.0000   1.0000   1.0000   1.0000   1.0000   1.0000
     1.0000   1.0000   1.0000   1.0000   1.0000   1.0000   1.0000   1.0000
     1.0000   1.0000   1.0000   1.0000   1.0000   1.0000   1.0000   1.0000
     1.0000   1.0000   1.0000   1.0000   1.0000   1.0000   1.0000

          k = 0.0476-0.0280 0.0000 ( 14495 PWs)   bands (ev):

   -34.6312 -34.6311 -34.6310 -34.6310 -34.6034 -34.6031 -34.6015 -34.6012
   -34.5919 -34.5919 -34.5193 -34.5090 -34.5056 -34.4693 -34.4691 -27.3884
   -27.3883 -27.3883 -27.3882 -27.3799 -27.3795 -27.3766 -27.3765 -27.3760
   -27.3758 -10.5968 -10.0716  -8.9921  -6.2488  -4.8682  -0.1990   0.0860
     0.2090   0.3347   0.4858   0.8215   1.1059   1.1463   1.5874

     occupation numbers 
     1.0000   1.0000   1.0000   1.0000   1.0000   1.0000   1.0000   1.0000
     1.0000   1.0000   1.0000   1.0000   1.0000   1.0000   1.0000   1.0000
     1.0000   1.0000   1.0000   1.0000   1.0000   1.0000   1.0000   1.0000
     1.0000   1.0000   1.0000   1.0000   1.0000   1.0000   1.0000   1.0000
     1.0000   1.0000   1.0000   1.0000   1.0000   1.0000   1.0000

          k = 0.0952 0.0550 0.0000 ( 14475 PWs)   bands (ev):

   -34.6311 -34.6310 -34.6310 -34.6310 -34.6034 -34.6032 -34.6015 -34.6012
   -34.5919 -34.5918 -34.5192 -34.5090 -34.5056 -34.4693 -34.4691 -27.3884
   -27.3883 -27.3881 -27.3880 -27.3798 -27.3794 -27.3769 -27.3766 -27.3761
   -27.3758 -10.5386 -10.0182  -8.9595  -6.2576  -4.9676  -0.5295  -0.2122
     0.0629   0.0939   0.4272   0.4481   1.2088   1.3848   1.7236

     occupation numbers 
     1.0000   1.0000   1.0000   1.0000   1.0000   1.0000   1.0000   1.0000
     1.0000   1.0000   1.0000   1.0000   1.0000   1.0000   1.0000   1.0000
     1.0000   1.0000   1.0000   1.0000   1.0000   1.0000   1.0000   1.0000
     1.0000   1.0000   1.0000   1.0000   1.0000   1.0000   1.0000   1.0000
     1.0000   1.0000   1.0000   1.0000   1.0000   1.0000   1.0000

          k = 0.0952 0.1105 0.0000 ( 14494 PWs)   bands (ev):

   -34.6311 -34.6310 -34.6309 -34.6309 -34.6034 -34.6032 -34.6015 -34.6013
   -34.5918 -34.5918 -34.5192 -34.5090 -34.5056 -34.4692 -34.4690 -27.3884
   -27.3883 -27.3878 -27.3877 -27.3796 -27.3793 -27.3771 -27.3766 -27.3762
   -27.3758 -10.4798  -9.9645  -8.9272  -6.2682  -5.0637  -0.7965  -0.3886
    -0.1853  -0.0379   0.2584   0.4825   1.0478   1.6061   1.6653

     occupation numbers 
     1.0000   1.0000   1.0000   1.0000   1.0000   1.0000   1.0000   1.0000
     1.0000   1.0000   1.0000   1.0000   1.0000   1.0000   1.0000   1.0000
     1.0000   1.0000   1.0000   1.0000   1.0000   1.0000   1.0000   1.0000
     1.0000   1.0000   1.0000   1.0000   1.0000   1.0000   1.0000   1.0000
     1.0000   1.0000   1.0000   1.0000   1.0000   1.0000   1.0000

          k = 0.0952 0.1661 0.0000 ( 14477 PWs)   bands (ev):

   -34.6311 -34.6310 -34.6307 -34.6307 -34.6034 -34.6032 -34.6015 -34.6013
   -34.5918 -34.5917 -34.5191 -34.5090 -34.5056 -34.4692 -34.4689 -27.3884
   -27.3883 -27.3875 -27.3874 -27.3794 -27.3791 -27.3773 -27.3769 -27.3763
   -27.3760 -10.3823  -9.8758  -8.8758  -6.2915  -5.2212  -1.1101  -0.7427
    -0.4480  -0.1912   0.1245   0.4599   0.8236   1.6151   1.7698

     occupation numbers 
     1.0000   1.0000   1.0000   1.0000   1.0000   1.0000   1.0000   1.0000
     1.0000   1.0000   1.0000   1.0000   1.0000   1.0000   1.0000   1.0000
     1.0000   1.0000   1.0000   1.0000   1.0000   1.0000   1.0000   1.0000
     1.0000   1.0000   1.0000   1.0000   1.0000   1.0000   1.0000   1.0000
     1.0000   1.0000   1.0000   1.0000   1.0000   1.0000   1.0000

          k = 0.0952 0.2216 0.0000 ( 14487 PWs)   bands (ev):

   -34.6311 -34.6310 -34.6305 -34.6305 -34.6034 -34.6032 -34.6016 -34.6013
   -34.5917 -34.5916 -34.5191 -34.5091 -34.5057 -34.4691 -34.4688 -27.3885
   -27.3883 -27.3870 -27.3869 -27.3792 -27.3788 -27.3775 -27.3772 -27.3764
   -27.3762 -10.2476  -9.7546  -8.8096  -6.3363  -5.4344  -1.4658  -1.1121
    -0.6167  -0.3910  -0.0834   0.2935   0.7907   1.4729   1.7861

     occupation numbers 
[...]
     1.0000   1.0000   1.0000   1.0000   1.0000   1.0000   1.0000   1.0000
     1.0000   1.0000   1.0000   1.0000   1.0000   1.0000   1.0000

          k = 0.4762 0.3305 0.0000 ( 14520 PWs)   bands (ev):

   -34.6309 -34.6308 -34.6298 -34.6298 -34.6037 -34.6034 -34.6016 -34.6014
   -34.5913 -34.5912 -34.5186 -34.5094 -34.5057 -34.4692 -34.4679 -27.3888
   -27.3887 -27.3849 -27.3848 -27.3797 -27.3795 -27.3775 -27.3774 -27.3767
   -27.3757  -8.8848  -8.8630  -8.8457  -7.2399  -6.6920  -2.9752  -1.6408
    -1.5400  -1.2086  -0.5999  -0.2376   0.5836   0.8964   1.1670

     occupation numbers 
     1.0000   1.0000   1.0000   1.0000   1.0000   1.0000   1.0000   1.0000
     1.0000   1.0000   1.0000   1.0000   1.0000   1.0000   1.0000   1.0000
     1.0000   1.0000   1.0000   1.0000   1.0000   1.0000   1.0000   1.0000
     1.0000   1.0000   1.0000   1.0000   1.0000   1.0000   1.0000   1.0000
     1.0000   1.0000   1.0000   1.0000   1.0000   1.0000   1.0000

          k = 0.4762 0.3860 0.0000 ( 14501 PWs)   bands (ev):

   -34.6308 -34.6307 -34.6299 -34.6299 -34.6037 -34.6034 -34.6016 -34.6014
   -34.5912 -34.5912 -34.5186 -34.5094 -34.5057 -34.4691 -34.4680 -27.3886
   -27.3884 -27.3851 -27.3849 -27.3796 -27.3795 -27.3775 -27.3774 -27.3768
   -27.3759  -8.9462  -8.8317  -8.7554  -7.2299  -6.7419  -2.9246  -1.6885
    -1.6340  -1.2876  -0.7015  -0.2929   0.5812   0.8566   1.3557

     occupation numbers 
     1.0000   1.0000   1.0000   1.0000   1.0000   1.0000   1.0000   1.0000
     1.0000   1.0000   1.0000   1.0000   1.0000   1.0000   1.0000   1.0000
     1.0000   1.0000   1.0000   1.0000   1.0000   1.0000   1.0000   1.0000
     1.0000   1.0000   1.0000   1.0000   1.0000   1.0000   1.0000   1.0000
     1.0000   1.0000   1.0000   1.0000   1.0000   1.0000   1.0000

          k = 0.4762 0.4415 0.0000 ( 14511 PWs)   bands (ev):

   -34.6307 -34.6306 -34.6300 -34.6299 -34.6037 -34.6034 -34.6016 -34.6014
   -34.5912 -34.5912 -34.5186 -34.5093 -34.5058 -34.4690 -34.4680 -27.3882
   -27.3881 -27.3853 -27.3852 -27.3795 -27.3793 -27.3777 -27.3775 -27.3768
   -27.3761  -9.0041  -8.8217  -8.6505  -7.1953  -6.8058  -2.8323  -1.8515
    -1.6990  -1.3413  -0.7527  -0.4537   0.5717   0.9437   1.4742

     occupation numbers 
     1.0000   1.0000   1.0000   1.0000   1.0000   1.0000   1.0000   1.0000
     1.0000   1.0000   1.0000   1.0000   1.0000   1.0000   1.0000   1.0000
     1.0000   1.0000   1.0000   1.0000   1.0000   1.0000   1.0000   1.0000
     1.0000   1.0000   1.0000   1.0000   1.0000   1.0000   1.0000   1.0000
     1.0000   1.0000   1.0000   1.0000   1.0000   1.0000   1.0000

          k = 0.4762 0.4971 0.0000 ( 14507 PWs)   bands (ev):

   -34.6306 -34.6305 -34.6301 -34.6300 -34.6036 -34.6034 -34.6016 -34.6014
   -34.5912 -34.5912 -34.5186 -34.5093 -34.5058 -34.4689 -34.4681 -27.3878
   -27.3876 -27.3856 -27.3855 -27.3793 -27.3792 -27.3778 -27.3776 -27.3769
   -27.3763  -9.0445  -8.8163  -8.5684  -7.1412  -6.8790  -2.7039  -2.1005
    -1.6618  -1.3786  -0.9037  -0.5173   0.5886   1.0607   1.4532

     occupation numbers 
     1.0000   1.0000   1.0000   1.0000   1.0000   1.0000   1.0000   1.0000
     1.0000   1.0000   1.0000   1.0000   1.0000   1.0000   1.0000   1.0000
     1.0000   1.0000   1.0000   1.0000   1.0000   1.0000   1.0000   1.0000
     1.0000   1.0000   1.0000   1.0000   1.0000   1.0000   1.0000   1.0000
     1.0000   1.0000   1.0000   1.0000   1.0000   1.0000   1.0000

          k = 0.4762 0.5526 0.0000 ( 14507 PWs)   bands (ev):

   -34.6305 -34.6305 -34.6302 -34.6301 -34.6036 -34.6034 -34.6017 -34.6014
   -34.5912 -34.5912 -34.5186 -34.5093 -34.5058 -34.4688 -34.4682 -27.3874
   -27.3874 -27.3859 -27.3857 -27.3791 -27.3791 -27.3780 -27.3776 -27.3768
   -27.3765  -9.0645  -8.8130  -8.5216  -7.0807  -6.9488  -2.5406  -2.3381
    -1.6026  -1.3384  -1.1482  -0.4805   0.6164   1.1137   1.3980

     occupation numbers 
     1.0000   1.0000   1.0000   1.0000   1.0000   1.0000   1.0000   1.0000
     1.0000   1.0000   1.0000   1.0000   1.0000   1.0000   1.0000   1.0000
     1.0000   1.0000   1.0000   1.0000   1.0000   1.0000   1.0000   1.0000
     1.0000   1.0000   1.0000   1.0000   1.0000   1.0000   1.0000   1.0000
     1.0000   1.0000   1.0000   1.0000   1.0000   1.0000   1.0000

          k = 0.4762 0.6081 0.0000 ( 14507 PWs)   bands (ev):

   -34.6305 -34.6305 -34.6301 -34.6301 -34.6036 -34.6034 -34.6017 -34.6014
   -34.5912 -34.5912 -34.5186 -34.5093 -34.5058 -34.4688 -34.4682 -27.3875
   -27.3874 -27.3858 -27.3856 -27.3791 -27.3789 -27.3782 -27.3777 -27.3768
   -27.3766  -9.0626  -8.8104  -8.5186  -7.0760  -6.9524  -2.5411  -2.3397
    -1.6050  -1.3406  -1.1515  -0.4798   0.6112   1.1104   1.3927

     occupation numbers 
     1.0000   1.0000   1.0000   1.0000   1.0000   1.0000   1.0000   1.0000
     1.0000   1.0000   1.0000   1.0000   1.0000   1.0000   1.0000   1.0000
     1.0000   1.0000   1.0000   1.0000   1.0000   1.0000   1.0000   1.0000
     1.0000   1.0000   1.0000   1.0000   1.0000   1.0000   1.0000   1.0000
     1.0000   1.0000   1.0000   1.0000   1.0000   1.0000   1.0000

          k = 0.4762 0.6637 0.0000 ( 14520 PWs)   bands (ev):

   -34.6306 -34.6306 -34.6300 -34.6299 -34.6036 -34.6033 -34.6017 -34.6014
   -34.5912 -34.5912 -34.5186 -34.5093 -34.5058 -34.4689 -34.4681 -27.3879
   -27.3877 -27.3855 -27.3853 -27.3792 -27.3789 -27.3781 -27.3776 -27.3769
   -27.3765  -9.0389  -8.8086  -8.5597  -7.1339  -6.8830  -2.7056  -2.1036
    -1.6700  -1.3869  -0.9058  -0.5232   0.5766   1.0531   1.4335

     occupation numbers 
     1.0000   1.0000   1.0000   1.0000   1.0000   1.0000   1.0000   1.0000
     1.0000   1.0000   1.0000   1.0000   1.0000   1.0000   1.0000   1.0000
     1.0000   1.0000   1.0000   1.0000   1.0000   1.0000   1.0000   1.0000
     1.0000   1.0000   1.0000   1.0000   1.0000   1.0000   1.0000   1.0000
     1.0000   1.0000   1.0000   1.0000   1.0000   1.0000   1.0000

          k = 0.4762 0.7192 0.0000 ( 14520 PWs)   bands (ev):

   -34.6308 -34.6307 -34.6299 -34.6298 -34.6036 -34.6033 -34.6017 -34.6014
   -34.5912 -34.5912 -34.5186 -34.5093 -34.5059 -34.4690 -34.4680 -27.3883
   -27.3882 -27.3851 -27.3849 -27.3794 -27.3790 -27.3780 -27.3776 -27.3769
   -27.3763  -8.9950  -8.8095  -8.6379  -7.1871  -6.8081  -2.8343  -1.8516
    -1.7134  -1.3563  -0.7477  -0.4790   0.5582   0.9305   1.4399

     occupation numbers 
     1.0000   1.0000   1.0000   1.0000   1.0000   1.0000   1.0000   1.0000
     1.0000   1.0000   1.0000   1.0000   1.0000   1.0000   1.0000   1.0000
     1.0000   1.0000   1.0000   1.0000   1.0000   1.0000   1.0000   1.0000
     1.0000   1.0000   1.0000   1.0000   1.0000   1.0000   1.0000   1.0000
     1.0000   1.0000   1.0000   1.0000   1.0000   1.0000   1.0000

          k = 0.4762 0.7748 0.0000 ( 14532 PWs)   bands (ev):

   -34.6309 -34.6308 -34.6298 -34.6297 -34.6036 -34.6033 -34.6018 -34.6014
   -34.5912 -34.5912 -34.5186 -34.5093 -34.5059 -34.4691 -34.4679 -27.3887
   -27.3885 -27.3849 -27.3847 -27.3795 -27.3791 -27.3778 -27.3775 -27.3768
   -27.3761  -8.9341  -8.8162  -8.7409  -7.2212  -6.7422  -2.9265  -1.6974
    -1.6301  -1.3136  -0.7184  -0.3132   0.5701   0.8317   1.3144

     occupation numbers 
     1.0000   1.0000   1.0000   1.0000   1.0000   1.0000   1.0000   1.0000
     1.0000   1.0000   1.0000   1.0000   1.0000   1.0000   1.0000   1.0000
     1.0000   1.0000   1.0000   1.0000   1.0000   1.0000   1.0000   1.0000
     1.0000   1.0000   1.0000   1.0000   1.0000   1.0000   1.0000   1.0000
     1.0000   1.0000   1.0000   1.0000   1.0000   1.0000   1.0000

          k = 0.4762 0.8303 0.0000 ( 14528 PWs)   bands (ev):

   -34.6309 -34.6309 -34.6297 -34.6297 -34.6036 -34.6033 -34.6018 -34.6014
   -34.5912 -34.5912 -34.5186 -34.5092 -34.5059 -34.4692 -34.4678 -27.3889
   -27.3888 -27.3847 -27.3845 -27.3796 -27.3791 -27.3777 -27.3774 -27.3768
   -27.3760  -8.8671  -8.8501  -8.8298  -7.2305  -6.6907  -2.9770  -1.6508
    -1.5180  -1.2512  -0.6405  -0.2456   0.5753   0.8563   1.1287

     occupation numbers 
     1.0000   1.0000   1.0000   1.0000   1.0000   1.0000   1.0000   1.0000
     1.0000   1.0000   1.0000   1.0000   1.0000   1.0000   1.0000   1.0000
     1.0000   1.0000   1.0000   1.0000   1.0000   1.0000   1.0000   1.0000
     1.0000   1.0000   1.0000   1.0000   1.0000   1.0000   1.0000   1.0000
     1.0000   1.0000   1.0000   1.0000   1.0000   1.0000   1.0000

          k = 0.4762-0.2804 0.0000 ( 14532 PWs)   bands (ev):

   -34.6310 -34.6309 -34.6297 -34.6297 -34.6036 -34.6033 -34.6018 -34.6014
   -34.5912 -34.5912 -34.5187 -34.5092 -34.5059 -34.4692 -34.4678 -27.3890
   -27.3888 -27.3847 -27.3845 -27.3796 -27.3791 -27.3777 -27.3774 -27.3768
   -27.3760  -8.9719  -8.8534  -8.7792  -7.2126  -6.6566  -2.9809  -1.6608
    -1.4457  -1.2069  -0.5821  -0.2484   0.5757   0.9065   1.0461

     occupation numbers 
     1.0000   1.0000   1.0000   1.0000   1.0000   1.0000   1.0000   1.0000
     1.0000   1.0000   1.0000   1.0000   1.0000   1.0000   1.0000   1.0000
     1.0000   1.0000   1.0000   1.0000   1.0000   1.0000   1.0000   1.0000
     1.0000   1.0000   1.0000   1.0000   1.0000   1.0000   1.0000   1.0000
     1.0000   1.0000   1.0000   1.0000   1.0000   1.0000   1.0000

          k = 0.4762-0.2249 0.0000 ( 14518 PWs)   bands (ev):

   -34.6309 -34.6309 -34.6298 -34.6297 -34.6036 -34.6033 -34.6017 -34.6014
   -34.5912 -34.5912 -34.5187 -34.5092 -34.5059 -34.4692 -34.4679 -27.3889
   -27.3887 -27.3848 -27.3846 -27.3795 -27.3791 -27.3778 -27.3775 -27.3768
   -27.3760  -9.0770  -8.8822  -8.7000  -7.1688  -6.6416  -2.9378  -1.6928
    -1.4357  -1.2251  -0.6156  -0.2394   0.5721   0.8793   1.1510

     occupation numbers 
     1.0000   1.0000   1.0000   1.0000   1.0000   1.0000   1.0000   1.0000
     1.0000   1.0000   1.0000   1.0000   1.0000   1.0000   1.0000   1.0000
     1.0000   1.0000   1.0000   1.0000   1.0000   1.0000   1.0000   1.0000
     1.0000   1.0000   1.0000   1.0000   1.0000   1.0000   1.0000   1.0000
     1.0000   1.0000   1.0000   1.0000   1.0000   1.0000   1.0000

          k = 0.4762-0.1694 0.0000 ( 14535 PWs)   bands (ev):

   -34.6309 -34.6308 -34.6299 -34.6298 -34.6036 -34.6033 -34.6017 -34.6014
   -34.5912 -34.5912 -34.5187 -34.5092 -34.5058 -34.4691 -34.4679 -27.3886
   -27.3885 -27.3850 -27.3848 -27.3794 -27.3790 -27.3779 -27.3776 -27.3768
   -27.3761  -9.1657  -8.9127  -8.6292  -7.1038  -6.6473  -2.8516  -1.7012
    -1.5713  -1.2604  -0.6653  -0.2614   0.5375   0.8849   1.3666

     occupation numbers 
     1.0000   1.0000   1.0000   1.0000   1.0000   1.0000   1.0000   1.0000
     1.0000   1.0000   1.0000   1.0000   1.0000   1.0000   1.0000   1.0000
     1.0000   1.0000   1.0000   1.0000   1.0000   1.0000   1.0000   1.0000
     1.0000   1.0000   1.0000   1.0000   1.0000   1.0000   1.0000   1.0000
     1.0000   1.0000   1.0000   1.0000   1.0000   1.0000   1.0000

          k = 0.4762-0.1138 0.0000 ( 14530 PWs)   bands (ev):

   -34.6308 -34.6308 -34.6300 -34.6299 -34.6036 -34.6033 -34.6017 -34.6014
   -34.5912 -34.5912 -34.5187 -34.5093 -34.5058 -34.4690 -34.4681 -27.3883
   -27.3882 -27.3853 -27.3852 -27.3792 -27.3789 -27.3781 -27.3777 -27.3767
   -27.3762  -9.2328  -8.9395  -8.5741  -7.0268  -6.6733  -2.7265  -1.8666
    -1.5627  -1.3337  -0.7296  -0.3489   0.5713   0.9656   1.5042

     occupation numbers 
     1.0000   1.0000   1.0000   1.0000   1.0000   1.0000   1.0000   1.0000
     1.0000   1.0000   1.0000   1.0000   1.0000   1.0000   1.0000   1.0000
     1.0000   1.0000   1.0000   1.0000   1.0000   1.0000   1.0000   1.0000
     1.0000   1.0000   1.0000   1.0000   1.0000   1.0000   1.0000   1.0000
     1.0000   1.0000   1.0000   1.0000   1.0000   1.0000   1.0000

          k = 0.4762-0.0583 0.0000 ( 14518 PWs)   bands (ev):

   -34.6307 -34.6306 -34.6301 -34.6300 -34.6036 -34.6033 -34.6017 -34.6014
   -34.5913 -34.5912 -34.5187 -34.5093 -34.5058 -34.4689 -34.4682 -27.3879
   -27.3878 -27.3857 -27.3855 -27.3791 -27.3788 -27.3782 -27.3778 -27.3767
   -27.3764  -9.2751  -8.9586  -8.5400  -6.9534  -6.7126  -2.5645  -2.1178
    -1.4102  -1.3943  -0.9158  -0.3900   0.6835   1.0597   1.4690

     occupation numbers 
     1.0000   1.0000   1.0000   1.0000   1.0000   1.0000   1.0000   1.0000
     1.0000   1.0000   1.0000   1.0000   1.0000   1.0000   1.0000   1.0000
     1.0000   1.0000   1.0000   1.0000   1.0000   1.0000   1.0000   1.0000
     1.0000   1.0000   1.0000   1.0000   1.0000   1.0000   1.0000   1.0000
     1.0000   1.0000   1.0000   1.0000   1.0000   1.0000   1.0000

          k = 0.4762-0.0027 0.0000 ( 14507 PWs)   bands (ev):

   -34.6306 -34.6306 -34.6302 -34.6301 -34.6036 -34.6034 -34.6017 -34.6014
   -34.5913 -34.5913 -34.5187 -34.5093 -34.5058 -34.4689 -34.4682 -27.3877
   -27.3876 -27.3859 -27.3857 -27.3791 -27.3789 -27.3782 -27.3778 -27.3766
   -27.3764  -9.2905  -8.9668  -8.5301  -6.9197  -6.7357  -2.4041  -2.3114
    -1.4210  -1.2329  -1.1108  -0.3916   0.7522   1.1158   1.4035

     occupation numbers 
     1.0000   1.0000   1.0000   1.0000   1.0000   1.0000   1.0000   1.0000
     1.0000   1.0000   1.0000   1.0000   1.0000   1.0000   1.0000   1.0000
     1.0000   1.0000   1.0000   1.0000   1.0000   1.0000   1.0000   1.0000
     1.0000   1.0000   1.0000   1.0000   1.0000   1.0000   1.0000   1.0000
     1.0000   1.0000   1.0000   1.0000   1.0000   1.0000   1.0000

          k = 0.4762 0.0528 0.0000 ( 14509 PWs)   bands (ev):

   -34.6306 -34.6306 -34.6302 -34.6301 -34.6036 -34.6034 -34.6016 -34.6014
   -34.5913 -34.5913 -34.5187 -34.5093 -34.5058 -34.4689 -34.4682 -27.3878
   -27.3877 -27.3858 -27.3856 -27.3792 -27.3791 -27.3780 -27.3777 -27.3767
   -27.3763  -9.2786  -8.9632  -8.5451  -6.9603  -6.7102  -2.5666  -2.1121
    -1.4077  -1.3876  -0.9126  -0.3825   0.6891   1.0667   1.4839

     occupation numbers 
     1.0000   1.0000   1.0000   1.0000   1.0000   1.0000   1.0000   1.0000
     1.0000   1.0000   1.0000   1.0000   1.0000   1.0000   1.0000   1.0000
     1.0000   1.0000   1.0000   1.0000   1.0000   1.0000   1.0000   1.0000
     1.0000   1.0000   1.0000   1.0000   1.0000   1.0000   1.0000   1.0000
     1.0000   1.0000   1.0000   1.0000   1.0000   1.0000   1.0000

          k = 0.4762 0.1083 0.0000 ( 14527 PWs)   bands (ev):

   -34.6307 -34.6307 -34.6301 -34.6300 -34.6036 -34.6034 -34.6016 -34.6014
   -34.5913 -34.5913 -34.5187 -34.5093 -34.5057 -34.4690 -34.4681 -27.3882
   -27.3881 -27.3855 -27.3853 -27.3794 -27.3793 -27.3778 -27.3776 -27.3767
   -27.3761  -9.2398  -8.9485  -8.5837  -7.0363  -6.6721  -2.7271  -1.8639
    -1.5562  -1.3146  -0.7330  -0.3263   0.5838   0.9761   1.5348

     occupation numbers 
     1.0000   1.0000   1.0000   1.0000   1.0000   1.0000   1.0000   1.0000
     1.0000   1.0000   1.0000   1.0000   1.0000   1.0000   1.0000   1.0000
     1.0000   1.0000   1.0000   1.0000   1.0000   1.0000   1.0000   1.0000
     1.0000   1.0000   1.0000   1.0000   1.0000   1.0000   1.0000   1.0000
     1.0000   1.0000   1.0000   1.0000   1.0000   1.0000   1.0000

          k = 0.4762 0.1639 0.0000 ( 14514 PWs)   bands (ev):

   -34.6308 -34.6308 -34.6300 -34.6299 -34.6037 -34.6034 -34.6016 -34.6014
   -34.5913 -34.5913 -34.5186 -34.5093 -34.5057 -34.4691 -34.4680 -27.3886
   -27.3884 -27.3852 -27.3850 -27.3795 -27.3794 -27.3777 -27.3775 -27.3767
   -27.3759  -9.1759  -8.9254  -8.6420  -7.1143  -6.6479  -2.8513  -1.7099
    -1.5561  -1.2344  -0.6548  -0.2383   0.5528   0.9033   1.4064

     occupation numbers 
     1.0000   1.0000   1.0000   1.0000   1.0000   1.0000   1.0000   1.0000
     1.0000   1.0000   1.0000   1.0000   1.0000   1.0000   1.0000   1.0000
     1.0000   1.0000   1.0000   1.0000   1.0000   1.0000   1.0000   1.0000
     1.0000   1.0000   1.0000   1.0000   1.0000   1.0000   1.0000   1.0000
     1.0000   1.0000   1.0000   1.0000   1.0000   1.0000   1.0000

          k = 0.4762 0.2194 0.0000 ( 14534 PWs)   bands (ev):

   -34.6309 -34.6308 -34.6299 -34.6299 -34.6037 -34.6034 -34.6016 -34.6013
   -34.5913 -34.5913 -34.5186 -34.5094 -34.5057 -34.4692 -34.4679 -27.3888
   -27.3887 -27.3850 -27.3848 -27.3797 -27.3795 -27.3776 -27.3774 -27.3767
   -27.3757  -9.0899  -8.8979  -8.7145  -7.1792  -6.6435  -2.9369  -1.6947
    -1.4450  -1.1829  -0.5776  -0.2297   0.5825   0.9147   1.1903

     occupation numbers 
     1.0000   1.0000   1.0000   1.0000   1.0000   1.0000   1.0000   1.0000
     1.0000   1.0000   1.0000   1.0000   1.0000   1.0000   1.0000   1.0000
     1.0000   1.0000   1.0000   1.0000   1.0000   1.0000   1.0000   1.0000
     1.0000   1.0000   1.0000   1.0000   1.0000   1.0000   1.0000   1.0000
     1.0000   1.0000   1.0000   1.0000   1.0000   1.0000   1.0000

     highest occupied level (ev):     1.8268

!    total energy              =    -806.61986689 Ry
     estimated scf accuracy    <       0.00000003 Ry

     The total energy is the sum of the following terms:
     one-electron contribution =   -3396.08785228 Ry
     hartree contribution      =    1693.25180818 Ry
     xc contribution           =     -87.16542215 Ry
     ewald contribution        =     983.48093266 Ry
     Dispersion Correction     =      -0.09933330 Ry

     convergence has been achieved in  14 iterations

     Writing all to output data dir tmp/Sb2Te3-uatsx-c3-1.0.save/ :
     XML data file, charge density, pseudopotentials, collected wavefunctions

     init_run     :      8.56s CPU      4.94s WALL (       1 calls)
     electrons    :    464.96s CPU    238.52s WALL (       1 calls)

     Called by init_run:
     wfcinit      :      7.43s CPU      3.81s WALL (       1 calls)
     wfcinit:wfcr :      6.77s CPU      3.45s WALL (     221 calls)
     potinit      :      0.48s CPU      0.46s WALL (       1 calls)
     hinit0       :      0.54s CPU      0.56s WALL (       1 calls)

     Called by electrons:
     c_bands      :    417.50s CPU    213.89s WALL (      15 calls)
     sum_band     :     46.61s CPU     23.71s WALL (      15 calls)
     v_of_rho     :      0.64s CPU      0.45s WALL (      15 calls)
     v_h          :      0.06s CPU      0.05s WALL (      15 calls)
     v_xc         :      0.58s CPU      0.40s WALL (      15 calls)
     mix_rho      :      0.11s CPU      0.06s WALL (      15 calls)
     energy_londo :      0.02s CPU      0.01s WALL (       1 calls)

     Called by c_bands:
     init_us_2    :      4.45s CPU      2.64s WALL (    6851 calls)
     cegterg      :    402.19s CPU    205.34s WALL (    3315 calls)

     Called by sum_band:
     sum_band:wei :      0.00s CPU      0.00s WALL (      15 calls)
     sum_band:loo :     46.56s CPU     23.68s WALL (      15 calls)
     sum_band:buf :      0.50s CPU      0.27s WALL (    3315 calls)
     sum_band:ini :      2.42s CPU      1.22s WALL (    3315 calls)

     Called by *egterg:
     cdiaghg      :     72.93s CPU     39.72s WALL (   19500 calls)
     cegterg:over :     13.07s CPU      7.41s WALL (   16406 calls)
     cegterg:upda :     10.89s CPU      3.49s WALL (   16406 calls)
     cegterg:last :     10.83s CPU      4.71s WALL (    8623 calls)
     h_psi        :    291.70s CPU    146.90s WALL (   19942 calls)
     g_psi        :      0.97s CPU      0.91s WALL (   16406 calls)

     Called by h_psi:
     h_psi:calbec :     21.75s CPU      7.47s WALL (   19942 calls)
     vloc_psi     :    259.61s CPU    134.25s WALL (   19942 calls)
     add_vuspsi   :      9.45s CPU      4.56s WALL (   19942 calls)

     General routines
     calbec       :     21.68s CPU      7.42s WALL (   19942 calls)
     fft          :      1.05s CPU      0.95s WALL (     178 calls)
     ffts         :      0.44s CPU      0.43s WALL (      30 calls)
     fftw         :    255.56s CPU    131.66s WALL (  927355 calls)
     interpolate  :      0.48s CPU      0.46s WALL (      15 calls)

     Parallel routines

     PWSCF        :   7m57.07s CPU   4m20.10s WALL


   This run was terminated on:  20: 6:20  14Aug2025            

=------------------------------------------------------------------------------=
   JOB DONE.
=------------------------------------------------------------------------------=
