
     Program PWSCF v.7.4.1 starts on 14Aug2025 at 20:17:55 

     This program is part of the open-source Quantum ESPRESSO suite
     for quantum simulation of materials; please cite
         "P. Giannozzi et al., J. Phys.:Condens. Matter 21 395502 (2009);
         "P. Giannozzi et al., J. Phys.:Condens. Matter 29 465901 (2017);
         "P. Giannozzi et al., J. Chem. Phys. 152 154105 (2020);
          URL http://www.quantum-espresso.org", 
     in publications or presentations arising from this work. More details at
     http://www.quantum-espresso.org/quote

     Parallel version (MPI & OpenMP), running on      48 processor cores
     Number of MPI processes:                24
     Threads/MPI process:                     2

     MPI processes distributed on     2 nodes
     114122 MiB available memory on the printing compute node when the environment starts

     Waiting for input...
     Reading input from standard input

     Current dimensions of program PWSCF are:
     Max number of different atomic species (ntypx) = 10
     Max number of k-points (npk) =  40000
     Max angular momentum in pseudopotentials (lmaxx) =  4

     IMPORTANT: XC functional enforced from input :
     Exchange-correlation= PBE
                           (   1   4   3   4   0   0   0)
     Any further DFT definition will be discarded
     Please, verify this is what you really want

     Message from routine setup:
     no reason to have ecutrho>4*ecutwfc

     R & G space division:  proc/nbgrp/npool/nimage =      24
     Subspace diagonalization in iterative solution of the eigenvalue problem:
     a serial algorithm will be used


     Parallelization info
     --------------------
     sticks:   dense  smooth     PW     G-vecs:    dense   smooth      PW
     Min          97      39     11                19297     4885     811
     Max          98      40     12                19315     4897     822
     Sum        2329     937    287               463351   117389   19649

     Using Slab Decomposition



     bravais-lattice index     =            0
     lattice parameter (alat)  =       8.3085  a.u.
     unit-cell volume          =    2454.7283 (a.u.)^3
     number of atoms/cell      =            5
     number of atomic types    =            2
     number of electrons       =        78.00
     number of Kohn-Sham states=           39
     kinetic-energy cutoff     =      50.0000  Ry
     charge density cutoff     =     500.0000  Ry
     scf convergence threshold =      1.0E-07
     mixing beta               =       0.7000
     number of iterations used =            8  plain     mixing
     Exchange-correlation= PBE
                           (   1   4   3   4   0   0   0)

     celldm(1)=   8.308546  celldm(2)=   0.000000  celldm(3)=   0.000000
     celldm(4)=   0.000000  celldm(5)=   0.000000  celldm(6)=   0.000000

     crystal axes: (cart. coord. in units of alat)
               a(1) = (   1.000000   0.000000   0.000000 )  
               a(2) = (  -0.490196   0.849036   0.000000 )  
               a(3) = (   0.000000   0.000000   5.040830 )  

     reciprocal axes: (cart. coord. in units 2 pi/alat)
               b(1) = (  1.000000  0.577356 -0.000000 )  
               b(2) = (  0.000000  1.177806  0.000000 )  
               b(3) = (  0.000000 -0.000000  0.198380 )  


     PseudoPot. # 1 for Sb read from file:
     /zfs-home/202401017n1/pseudos/Sb_ONCV_PBE-1.2.upf
     MD5 check sum: 0417cd6c0fe8ce4611e2b23135f1abd9
     Pseudo is Norm-conserving, Zval = 15.0
     Generated using ONCVPSP code by D. R. Hamann
     Using radial grid of  602 points,  6 beta functions with: 
                l(1) =   0
                l(2) =   0
                l(3) =   1
                l(4) =   1
                l(5) =   2
                l(6) =   2

     PseudoPot. # 2 for Te read from file:
     /zfs-home/202401017n1/pseudos/Te_ONCV_PBE-1.2.upf
     MD5 check sum: dd4de4dac1e38587f63aaf3700bb29d3
     Pseudo is Norm-conserving, Zval = 16.0
     Generated using ONCVPSP code by D. R. Hamann
     Using radial grid of  602 points,  6 beta functions with: 
                l(1) =   0
                l(2) =   0
                l(3) =   1
                l(4) =   1
                l(5) =   2
                l(6) =   2

     atomic species   valence    mass     pseudopotential
     Sb               15.00   121.76000     Sb( 1.00)
     Te               16.00   127.60000     Te( 1.00)

     No symmetry found


                                    s                        frac. trans.

      isym =  1     identity                                     

 cryst.   s( 1) = (     1          0          0      )
                  (     0          1          0      )
                  (     0          0          1      )

 cart.    s( 1) = (  1.0000000  0.0000000  0.0000000 )
                  (  0.0000000  1.0000000  0.0000000 )
                  (  0.0000000  0.0000000  1.0000000 )


   Cartesian axes

     site n.     atom                  positions (alat units)
         1        Sb     tau(   1) = (   0.5829733   0.4189608   2.9724649  )
         2        Te     tau(   2) = (   0.5752175   0.4057666   1.6850437  )
         3        Sb     tau(   3) = (   0.0736071   0.1257310   2.0683360  )
         4        Te     tau(   4) = (   0.0811854   0.1390911   3.3558017  )
         5        Te     tau(   5) = (   0.0831178   0.6970014   2.5203330  )

     -------------------------------------------------
     Parameters for Dispersion (Grimme-D2) Correction:
     -------------------------------------------------
       atom      VdW radius       C_6     

        Sb         3.555       1333.532
        Te         3.575       1101.101

   Crystallographic axes

     site n.     atom                  positions (cryst. coord.)
         1        Sb     tau(   1) = (  0.8248627  0.4934545  0.5896776  )
         2        Te     tau(   2) = (  0.8094892  0.4779143  0.3342790  )
         3        Sb     tau(   3) = (  0.1461986  0.1480867  0.4103165  )
         4        Te     tau(   4) = (  0.1614904  0.1638223  0.6657240  )
         5        Te     tau(   5) = (  0.4855356  0.8209324  0.4999837  )

     number of k points=   221
                       cart. coord. in units 2pi/alat
        k(    1) = (   0.0000000   0.0000000   0.0000000), wk =   0.0045351
        k(    2) = (   0.0000000   0.0560860   0.0000000), wk =   0.0090703
        k(    3) = (   0.0000000   0.1121720   0.0000000), wk =   0.0090703
        k(    4) = (   0.0000000   0.1682580   0.0000000), wk =   0.0090703
        k(    5) = (   0.0000000   0.2243440   0.0000000), wk =   0.0090703
        k(    6) = (   0.0000000   0.2804300   0.0000000), wk =   0.0090703
        k(    7) = (   0.0000000   0.3365160   0.0000000), wk =   0.0090703
        k(    8) = (   0.0000000   0.3926020   0.0000000), wk =   0.0090703
        k(    9) = (   0.0000000   0.4486880   0.0000000), wk =   0.0090703
        k(   10) = (   0.0000000   0.5047740   0.0000000), wk =   0.0090703
        k(   11) = (   0.0000000   0.5608600   0.0000000), wk =   0.0090703
        k(   12) = (   0.0476190   0.0274931   0.0000000), wk =   0.0090703
        k(   13) = (   0.0476190   0.0835791   0.0000000), wk =   0.0090703
        k(   14) = (   0.0476190   0.1396651   0.0000000), wk =   0.0090703
        k(   15) = (   0.0476190   0.1957511   0.0000000), wk =   0.0090703
        k(   16) = (   0.0476190   0.2518371   0.0000000), wk =   0.0090703
        k(   17) = (   0.0476190   0.3079231   0.0000000), wk =   0.0090703
        k(   18) = (   0.0476190   0.3640091   0.0000000), wk =   0.0090703
        k(   19) = (   0.0476190   0.4200951   0.0000000), wk =   0.0090703
        k(   20) = (   0.0476190   0.4761811   0.0000000), wk =   0.0090703
        k(   21) = (   0.0476190   0.5322671   0.0000000), wk =   0.0090703
        k(   22) = (   0.0476190   0.5883531   0.0000000), wk =   0.0090703
        k(   23) = (   0.0476190  -0.5333668   0.0000000), wk =   0.0090703
        k(   24) = (   0.0476190  -0.4772808   0.0000000), wk =   0.0090703
        k(   25) = (   0.0476190  -0.4211948   0.0000000), wk =   0.0090703
        k(   26) = (   0.0476190  -0.3651088   0.0000000), wk =   0.0090703
        k(   27) = (   0.0476190  -0.3090228   0.0000000), wk =   0.0090703
        k(   28) = (   0.0476190  -0.2529369   0.0000000), wk =   0.0090703
        k(   29) = (   0.0476190  -0.1968509   0.0000000), wk =   0.0090703
        k(   30) = (   0.0476190  -0.1407649   0.0000000), wk =   0.0090703
        k(   31) = (   0.0476190  -0.0846789   0.0000000), wk =   0.0090703
        k(   32) = (   0.0476190  -0.0285929   0.0000000), wk =   0.0090703
        k(   33) = (   0.0952381   0.0549863   0.0000000), wk =   0.0090703
        k(   34) = (   0.0952381   0.1110723   0.0000000), wk =   0.0090703
        k(   35) = (   0.0952381   0.1671583   0.0000000), wk =   0.0090703
        k(   36) = (   0.0952381   0.2232443   0.0000000), wk =   0.0090703
        k(   37) = (   0.0952381   0.2793303   0.0000000), wk =   0.0090703
        k(   38) = (   0.0952381   0.3354163   0.0000000), wk =   0.0090703
        k(   39) = (   0.0952381   0.3915023   0.0000000), wk =   0.0090703
        k(   40) = (   0.0952381   0.4475883   0.0000000), wk =   0.0090703
        k(   41) = (   0.0952381   0.5036742   0.0000000), wk =   0.0090703
        k(   42) = (   0.0952381   0.5597602   0.0000000), wk =   0.0090703
        k(   43) = (   0.0952381   0.6158462   0.0000000), wk =   0.0090703
        k(   44) = (   0.0952381  -0.5058737   0.0000000), wk =   0.0090703
        k(   45) = (   0.0952381  -0.4497877   0.0000000), wk =   0.0090703
        k(   46) = (   0.0952381  -0.3937017   0.0000000), wk =   0.0090703
        k(   47) = (   0.0952381  -0.3376157   0.0000000), wk =   0.0090703
        k(   48) = (   0.0952381  -0.2815297   0.0000000), wk =   0.0090703
        k(   49) = (   0.0952381  -0.2254437   0.0000000), wk =   0.0090703
        k(   50) = (   0.0952381  -0.1693577   0.0000000), wk =   0.0090703
        k(   51) = (   0.0952381  -0.1132717   0.0000000), wk =   0.0090703
        k(   52) = (   0.0952381  -0.0571857   0.0000000), wk =   0.0090703
        k(   53) = (   0.0952381  -0.0010997   0.0000000), wk =   0.0090703
        k(   54) = (   0.1428571   0.0824794   0.0000000), wk =   0.0090703
        k(   55) = (   0.1428571   0.1385654   0.0000000), wk =   0.0090703
        k(   56) = (   0.1428571   0.1946514   0.0000000), wk =   0.0090703
        k(   57) = (   0.1428571   0.2507374   0.0000000), wk =   0.0090703
        k(   58) = (   0.1428571   0.3068234   0.0000000), wk =   0.0090703
        k(   59) = (   0.1428571   0.3629094   0.0000000), wk =   0.0090703
        k(   60) = (   0.1428571   0.4189954   0.0000000), wk =   0.0090703
        k(   61) = (   0.1428571   0.4750814   0.0000000), wk =   0.0090703
        k(   62) = (   0.1428571   0.5311674   0.0000000), wk =   0.0090703
        k(   63) = (   0.1428571   0.5872534   0.0000000), wk =   0.0090703
        k(   64) = (   0.1428571   0.6433394   0.0000000), wk =   0.0090703
        k(   65) = (   0.1428571  -0.4783806   0.0000000), wk =   0.0090703
        k(   66) = (   0.1428571  -0.4222946   0.0000000), wk =   0.0090703
        k(   67) = (   0.1428571  -0.3662086   0.0000000), wk =   0.0090703
        k(   68) = (   0.1428571  -0.3101226   0.0000000), wk =   0.0090703
        k(   69) = (   0.1428571  -0.2540366   0.0000000), wk =   0.0090703
        k(   70) = (   0.1428571  -0.1979506   0.0000000), wk =   0.0090703
        k(   71) = (   0.1428571  -0.1418646   0.0000000), wk =   0.0090703
        k(   72) = (   0.1428571  -0.0857786   0.0000000), wk =   0.0090703
        k(   73) = (   0.1428571  -0.0296926   0.0000000), wk =   0.0090703
        k(   74) = (   0.1428571   0.0263934   0.0000000), wk =   0.0090703
        k(   75) = (   0.1904762   0.1099725   0.0000000), wk =   0.0090703
        k(   76) = (   0.1904762   0.1660585   0.0000000), wk =   0.0090703
        k(   77) = (   0.1904762   0.2221445   0.0000000), wk =   0.0090703
        k(   78) = (   0.1904762   0.2782305   0.0000000), wk =   0.0090703
        k(   79) = (   0.1904762   0.3343165   0.0000000), wk =   0.0090703
        k(   80) = (   0.1904762   0.3904025   0.0000000), wk =   0.0090703
        k(   81) = (   0.1904762   0.4464885   0.0000000), wk =   0.0090703
        k(   82) = (   0.1904762   0.5025745   0.0000000), wk =   0.0090703
        k(   83) = (   0.1904762   0.5586605   0.0000000), wk =   0.0090703
        k(   84) = (   0.1904762   0.6147465   0.0000000), wk =   0.0090703
        k(   85) = (   0.1904762   0.6708325   0.0000000), wk =   0.0090703
        k(   86) = (   0.1904762  -0.4508874   0.0000000), wk =   0.0090703
        k(   87) = (   0.1904762  -0.3948014   0.0000000), wk =   0.0090703
        k(   88) = (   0.1904762  -0.3387154   0.0000000), wk =   0.0090703
        k(   89) = (   0.1904762  -0.2826294   0.0000000), wk =   0.0090703
        k(   90) = (   0.1904762  -0.2265434   0.0000000), wk =   0.0090703
        k(   91) = (   0.1904762  -0.1704574   0.0000000), wk =   0.0090703
        k(   92) = (   0.1904762  -0.1143714   0.0000000), wk =   0.0090703
        k(   93) = (   0.1904762  -0.0582854   0.0000000), wk =   0.0090703
        k(   94) = (   0.1904762  -0.0021995   0.0000000), wk =   0.0090703
        k(   95) = (   0.1904762   0.0538865   0.0000000), wk =   0.0090703
        k(   96) = (   0.2380952   0.1374657   0.0000000), wk =   0.0090703
        k(   97) = (   0.2380952   0.1935517   0.0000000), wk =   0.0090703
        k(   98) = (   0.2380952   0.2496377   0.0000000), wk =   0.0090703
        k(   99) = (   0.2380952   0.3057237   0.0000000), wk =   0.0090703
        k(  100) = (   0.2380952   0.3618097   0.0000000), wk =   0.0090703
        k(  101) = (   0.2380952   0.4178957   0.0000000), wk =   0.0090703
        k(  102) = (   0.2380952   0.4739817   0.0000000), wk =   0.0090703
        k(  103) = (   0.2380952   0.5300677   0.0000000), wk =   0.0090703
        k(  104) = (   0.2380952   0.5861537   0.0000000), wk =   0.0090703
        k(  105) = (   0.2380952   0.6422397   0.0000000), wk =   0.0090703
        k(  106) = (   0.2380952   0.6983257   0.0000000), wk =   0.0090703
        k(  107) = (   0.2380952  -0.4233943   0.0000000), wk =   0.0090703
        k(  108) = (   0.2380952  -0.3673083   0.0000000), wk =   0.0090703
        k(  109) = (   0.2380952  -0.3112223   0.0000000), wk =   0.0090703
        k(  110) = (   0.2380952  -0.2551363   0.0000000), wk =   0.0090703
        k(  111) = (   0.2380952  -0.1990503   0.0000000), wk =   0.0090703
        k(  112) = (   0.2380952  -0.1429643   0.0000000), wk =   0.0090703
        k(  113) = (   0.2380952  -0.0868783   0.0000000), wk =   0.0090703
        k(  114) = (   0.2380952  -0.0307923   0.0000000), wk =   0.0090703
        k(  115) = (   0.2380952   0.0252937   0.0000000), wk =   0.0090703
        k(  116) = (   0.2380952   0.0813797   0.0000000), wk =   0.0090703
        k(  117) = (   0.2857143   0.1649588   0.0000000), wk =   0.0090703
        k(  118) = (   0.2857143   0.2210448   0.0000000), wk =   0.0090703
        k(  119) = (   0.2857143   0.2771308   0.0000000), wk =   0.0090703
        k(  120) = (   0.2857143   0.3332168   0.0000000), wk =   0.0090703
        k(  121) = (   0.2857143   0.3893028   0.0000000), wk =   0.0090703
        k(  122) = (   0.2857143   0.4453888   0.0000000), wk =   0.0090703
        k(  123) = (   0.2857143   0.5014748   0.0000000), wk =   0.0090703
        k(  124) = (   0.2857143   0.5575608   0.0000000), wk =   0.0090703
        k(  125) = (   0.2857143   0.6136468   0.0000000), wk =   0.0090703
        k(  126) = (   0.2857143   0.6697328   0.0000000), wk =   0.0090703
        k(  127) = (   0.2857143   0.7258188   0.0000000), wk =   0.0090703
        k(  128) = (   0.2857143  -0.3959012   0.0000000), wk =   0.0090703
        k(  129) = (   0.2857143  -0.3398152   0.0000000), wk =   0.0090703
        k(  130) = (   0.2857143  -0.2837292   0.0000000), wk =   0.0090703
        k(  131) = (   0.2857143  -0.2276432   0.0000000), wk =   0.0090703
        k(  132) = (   0.2857143  -0.1715572   0.0000000), wk =   0.0090703
        k(  133) = (   0.2857143  -0.1154712   0.0000000), wk =   0.0090703
        k(  134) = (   0.2857143  -0.0593852   0.0000000), wk =   0.0090703
        k(  135) = (   0.2857143  -0.0032992   0.0000000), wk =   0.0090703
        k(  136) = (   0.2857143   0.0527868   0.0000000), wk =   0.0090703
        k(  137) = (   0.2857143   0.1088728   0.0000000), wk =   0.0090703
        k(  138) = (   0.3333333   0.1924520   0.0000000), wk =   0.0090703
        k(  139) = (   0.3333333   0.2485379   0.0000000), wk =   0.0090703
        k(  140) = (   0.3333333   0.3046239   0.0000000), wk =   0.0090703
        k(  141) = (   0.3333333   0.3607099   0.0000000), wk =   0.0090703
        k(  142) = (   0.3333333   0.4167959   0.0000000), wk =   0.0090703
        k(  143) = (   0.3333333   0.4728819   0.0000000), wk =   0.0090703
        k(  144) = (   0.3333333   0.5289679   0.0000000), wk =   0.0090703
        k(  145) = (   0.3333333   0.5850539   0.0000000), wk =   0.0090703
        k(  146) = (   0.3333333   0.6411399   0.0000000), wk =   0.0090703
        k(  147) = (   0.3333333   0.6972259   0.0000000), wk =   0.0090703
        k(  148) = (   0.3333333   0.7533119   0.0000000), wk =   0.0090703
        k(  149) = (   0.3333333  -0.3684080   0.0000000), wk =   0.0090703
        k(  150) = (   0.3333333  -0.3123220   0.0000000), wk =   0.0090703
        k(  151) = (   0.3333333  -0.2562360   0.0000000), wk =   0.0090703
        k(  152) = (   0.3333333  -0.2001500   0.0000000), wk =   0.0090703
        k(  153) = (   0.3333333  -0.1440640   0.0000000), wk =   0.0090703
        k(  154) = (   0.3333333  -0.0879780   0.0000000), wk =   0.0090703
        k(  155) = (   0.3333333  -0.0318920   0.0000000), wk =   0.0090703
        k(  156) = (   0.3333333   0.0241940   0.0000000), wk =   0.0090703
        k(  157) = (   0.3333333   0.0802800   0.0000000), wk =   0.0090703
        k(  158) = (   0.3333333   0.1363660   0.0000000), wk =   0.0090703
        k(  159) = (   0.3809524   0.2199451   0.0000000), wk =   0.0090703
        k(  160) = (   0.3809524   0.2760311   0.0000000), wk =   0.0090703
        k(  161) = (   0.3809524   0.3321171   0.0000000), wk =   0.0090703
        k(  162) = (   0.3809524   0.3882031   0.0000000), wk =   0.0090703
        k(  163) = (   0.3809524   0.4442891   0.0000000), wk =   0.0090703
        k(  164) = (   0.3809524   0.5003751   0.0000000), wk =   0.0090703
        k(  165) = (   0.3809524   0.5564611   0.0000000), wk =   0.0090703
        k(  166) = (   0.3809524   0.6125471   0.0000000), wk =   0.0090703
        k(  167) = (   0.3809524   0.6686331   0.0000000), wk =   0.0090703
        k(  168) = (   0.3809524   0.7247191   0.0000000), wk =   0.0090703
        k(  169) = (   0.3809524   0.7808051   0.0000000), wk =   0.0090703
        k(  170) = (   0.3809524  -0.3409149   0.0000000), wk =   0.0090703
        k(  171) = (   0.3809524  -0.2848289   0.0000000), wk =   0.0090703
        k(  172) = (   0.3809524  -0.2287429   0.0000000), wk =   0.0090703
        k(  173) = (   0.3809524  -0.1726569   0.0000000), wk =   0.0090703
        k(  174) = (   0.3809524  -0.1165709   0.0000000), wk =   0.0090703
        k(  175) = (   0.3809524  -0.0604849   0.0000000), wk =   0.0090703
        k(  176) = (   0.3809524  -0.0043989   0.0000000), wk =   0.0090703
        k(  177) = (   0.3809524   0.0516871   0.0000000), wk =   0.0090703
        k(  178) = (   0.3809524   0.1077731   0.0000000), wk =   0.0090703
        k(  179) = (   0.3809524   0.1638591   0.0000000), wk =   0.0090703
        k(  180) = (   0.4285714   0.2474382   0.0000000), wk =   0.0090703
        k(  181) = (   0.4285714   0.3035242   0.0000000), wk =   0.0090703
        k(  182) = (   0.4285714   0.3596102   0.0000000), wk =   0.0090703
        k(  183) = (   0.4285714   0.4156962   0.0000000), wk =   0.0090703
        k(  184) = (   0.4285714   0.4717822   0.0000000), wk =   0.0090703
        k(  185) = (   0.4285714   0.5278682   0.0000000), wk =   0.0090703
        k(  186) = (   0.4285714   0.5839542   0.0000000), wk =   0.0090703
        k(  187) = (   0.4285714   0.6400402   0.0000000), wk =   0.0090703
        k(  188) = (   0.4285714   0.6961262   0.0000000), wk =   0.0090703
        k(  189) = (   0.4285714   0.7522122   0.0000000), wk =   0.0090703
        k(  190) = (   0.4285714   0.8082982   0.0000000), wk =   0.0090703
        k(  191) = (   0.4285714  -0.3134217   0.0000000), wk =   0.0090703
        k(  192) = (   0.4285714  -0.2573358   0.0000000), wk =   0.0090703
        k(  193) = (   0.4285714  -0.2012498   0.0000000), wk =   0.0090703
        k(  194) = (   0.4285714  -0.1451638   0.0000000), wk =   0.0090703
        k(  195) = (   0.4285714  -0.0890778   0.0000000), wk =   0.0090703
        k(  196) = (   0.4285714  -0.0329918   0.0000000), wk =   0.0090703
        k(  197) = (   0.4285714   0.0230942   0.0000000), wk =   0.0090703
        k(  198) = (   0.4285714   0.0791802   0.0000000), wk =   0.0090703
        k(  199) = (   0.4285714   0.1352662   0.0000000), wk =   0.0090703
        k(  200) = (   0.4285714   0.1913522   0.0000000), wk =   0.0090703
        k(  201) = (   0.4761905   0.2749314   0.0000000), wk =   0.0090703
        k(  202) = (   0.4761905   0.3310174   0.0000000), wk =   0.0090703
        k(  203) = (   0.4761905   0.3871034   0.0000000), wk =   0.0090703
        k(  204) = (   0.4761905   0.4431894   0.0000000), wk =   0.0090703
        k(  205) = (   0.4761905   0.4992753   0.0000000), wk =   0.0090703
        k(  206) = (   0.4761905   0.5553613   0.0000000), wk =   0.0090703
        k(  207) = (   0.4761905   0.6114473   0.0000000), wk =   0.0090703
        k(  208) = (   0.4761905   0.6675333   0.0000000), wk =   0.0090703
        k(  209) = (   0.4761905   0.7236193   0.0000000), wk =   0.0090703
        k(  210) = (   0.4761905   0.7797053   0.0000000), wk =   0.0090703
        k(  211) = (   0.4761905   0.8357913   0.0000000), wk =   0.0090703
        k(  212) = (   0.4761905  -0.2859286   0.0000000), wk =   0.0090703
        k(  213) = (   0.4761905  -0.2298426   0.0000000), wk =   0.0090703
        k(  214) = (   0.4761905  -0.1737566   0.0000000), wk =   0.0090703
        k(  215) = (   0.4761905  -0.1176706   0.0000000), wk =   0.0090703
        k(  216) = (   0.4761905  -0.0615846   0.0000000), wk =   0.0090703
        k(  217) = (   0.4761905  -0.0054986   0.0000000), wk =   0.0090703
        k(  218) = (   0.4761905   0.0505874   0.0000000), wk =   0.0090703
        k(  219) = (   0.4761905   0.1066734   0.0000000), wk =   0.0090703
        k(  220) = (   0.4761905   0.1627594   0.0000000), wk =   0.0090703
        k(  221) = (   0.4761905   0.2188454   0.0000000), wk =   0.0090703

                       cryst. coord.
        k(    1) = (   0.0000000   0.0000000   0.0000000), wk =   0.0045351
        k(    2) = (   0.0000000   0.0476190   0.0000000), wk =   0.0090703
        k(    3) = (   0.0000000   0.0952381   0.0000000), wk =   0.0090703
        k(    4) = (   0.0000000   0.1428571   0.0000000), wk =   0.0090703
        k(    5) = (   0.0000000   0.1904762   0.0000000), wk =   0.0090703
        k(    6) = (   0.0000000   0.2380952   0.0000000), wk =   0.0090703
        k(    7) = (   0.0000000   0.2857143   0.0000000), wk =   0.0090703
        k(    8) = (   0.0000000   0.3333333   0.0000000), wk =   0.0090703
        k(    9) = (   0.0000000   0.3809524   0.0000000), wk =   0.0090703
        k(   10) = (   0.0000000   0.4285714   0.0000000), wk =   0.0090703
        k(   11) = (   0.0000000   0.4761905   0.0000000), wk =   0.0090703
        k(   12) = (   0.0476190   0.0000000   0.0000000), wk =   0.0090703
        k(   13) = (   0.0476190   0.0476190   0.0000000), wk =   0.0090703
        k(   14) = (   0.0476190   0.0952381   0.0000000), wk =   0.0090703
        k(   15) = (   0.0476190   0.1428571   0.0000000), wk =   0.0090703
        k(   16) = (   0.0476190   0.1904762   0.0000000), wk =   0.0090703
        k(   17) = (   0.0476190   0.2380952   0.0000000), wk =   0.0090703
        k(   18) = (   0.0476190   0.2857143   0.0000000), wk =   0.0090703
        k(   19) = (   0.0476190   0.3333333   0.0000000), wk =   0.0090703
        k(   20) = (   0.0476190   0.3809524   0.0000000), wk =   0.0090703
        k(   21) = (   0.0476190   0.4285714   0.0000000), wk =   0.0090703
        k(   22) = (   0.0476190   0.4761905   0.0000000), wk =   0.0090703
        k(   23) = (   0.0476190  -0.4761905   0.0000000), wk =   0.0090703
        k(   24) = (   0.0476190  -0.4285714   0.0000000), wk =   0.0090703
        k(   25) = (   0.0476190  -0.3809524   0.0000000), wk =   0.0090703
        k(   26) = (   0.0476190  -0.3333333   0.0000000), wk =   0.0090703
        k(   27) = (   0.0476190  -0.2857143   0.0000000), wk =   0.0090703
        k(   28) = (   0.0476190  -0.2380952   0.0000000), wk =   0.0090703
        k(   29) = (   0.0476190  -0.1904762   0.0000000), wk =   0.0090703
        k(   30) = (   0.0476190  -0.1428571   0.0000000), wk =   0.0090703
        k(   31) = (   0.0476190  -0.0952381   0.0000000), wk =   0.0090703
        k(   32) = (   0.0476190  -0.0476190   0.0000000), wk =   0.0090703
        k(   33) = (   0.0952381   0.0000000   0.0000000), wk =   0.0090703
        k(   34) = (   0.0952381   0.0476190   0.0000000), wk =   0.0090703
        k(   35) = (   0.0952381   0.0952381   0.0000000), wk =   0.0090703
        k(   36) = (   0.0952381   0.1428571   0.0000000), wk =   0.0090703
        k(   37) = (   0.0952381   0.1904762   0.0000000), wk =   0.0090703
        k(   38) = (   0.0952381   0.2380952   0.0000000), wk =   0.0090703
        k(   39) = (   0.0952381   0.2857143   0.0000000), wk =   0.0090703
        k(   40) = (   0.0952381   0.3333333   0.0000000), wk =   0.0090703
        k(   41) = (   0.0952381   0.3809524   0.0000000), wk =   0.0090703
        k(   42) = (   0.0952381   0.4285714   0.0000000), wk =   0.0090703
        k(   43) = (   0.0952381   0.4761905   0.0000000), wk =   0.0090703
        k(   44) = (   0.0952381  -0.4761905   0.0000000), wk =   0.0090703
        k(   45) = (   0.0952381  -0.4285714   0.0000000), wk =   0.0090703
        k(   46) = (   0.0952381  -0.3809524   0.0000000), wk =   0.0090703
        k(   47) = (   0.0952381  -0.3333333   0.0000000), wk =   0.0090703
        k(   48) = (   0.0952381  -0.2857143   0.0000000), wk =   0.0090703
        k(   49) = (   0.0952381  -0.2380952   0.0000000), wk =   0.0090703
        k(   50) = (   0.0952381  -0.1904762   0.0000000), wk =   0.0090703
        k(   51) = (   0.0952381  -0.1428571   0.0000000), wk =   0.0090703
        k(   52) = (   0.0952381  -0.0952381   0.0000000), wk =   0.0090703
        k(   53) = (   0.0952381  -0.0476190   0.0000000), wk =   0.0090703
        k(   54) = (   0.1428571   0.0000000   0.0000000), wk =   0.0090703
        k(   55) = (   0.1428571   0.0476190   0.0000000), wk =   0.0090703
        k(   56) = (   0.1428571   0.0952381   0.0000000), wk =   0.0090703
        k(   57) = (   0.1428571   0.1428571   0.0000000), wk =   0.0090703
        k(   58) = (   0.1428571   0.1904762   0.0000000), wk =   0.0090703
        k(   59) = (   0.1428571   0.2380952   0.0000000), wk =   0.0090703
        k(   60) = (   0.1428571   0.2857143   0.0000000), wk =   0.0090703
        k(   61) = (   0.1428571   0.3333333   0.0000000), wk =   0.0090703
        k(   62) = (   0.1428571   0.3809524   0.0000000), wk =   0.0090703
        k(   63) = (   0.1428571   0.4285714   0.0000000), wk =   0.0090703
        k(   64) = (   0.1428571   0.4761905   0.0000000), wk =   0.0090703
        k(   65) = (   0.1428571  -0.4761905   0.0000000), wk =   0.0090703
        k(   66) = (   0.1428571  -0.4285714   0.0000000), wk =   0.0090703
        k(   67) = (   0.1428571  -0.3809524   0.0000000), wk =   0.0090703
        k(   68) = (   0.1428571  -0.3333333   0.0000000), wk =   0.0090703
        k(   69) = (   0.1428571  -0.2857143   0.0000000), wk =   0.0090703
        k(   70) = (   0.1428571  -0.2380952   0.0000000), wk =   0.0090703
        k(   71) = (   0.1428571  -0.1904762   0.0000000), wk =   0.0090703
        k(   72) = (   0.1428571  -0.1428571   0.0000000), wk =   0.0090703
        k(   73) = (   0.1428571  -0.0952381   0.0000000), wk =   0.0090703
        k(   74) = (   0.1428571  -0.0476190   0.0000000), wk =   0.0090703
        k(   75) = (   0.1904762   0.0000000   0.0000000), wk =   0.0090703
        k(   76) = (   0.1904762   0.0476190   0.0000000), wk =   0.0090703
        k(   77) = (   0.1904762   0.0952381   0.0000000), wk =   0.0090703
        k(   78) = (   0.1904762   0.1428571   0.0000000), wk =   0.0090703
        k(   79) = (   0.1904762   0.1904762   0.0000000), wk =   0.0090703
        k(   80) = (   0.1904762   0.2380952   0.0000000), wk =   0.0090703
        k(   81) = (   0.1904762   0.2857143   0.0000000), wk =   0.0090703
        k(   82) = (   0.1904762   0.3333333   0.0000000), wk =   0.0090703
        k(   83) = (   0.1904762   0.3809524   0.0000000), wk =   0.0090703
        k(   84) = (   0.1904762   0.4285714   0.0000000), wk =   0.0090703
        k(   85) = (   0.1904762   0.4761905   0.0000000), wk =   0.0090703
        k(   86) = (   0.1904762  -0.4761905   0.0000000), wk =   0.0090703
        k(   87) = (   0.1904762  -0.4285714   0.0000000), wk =   0.0090703
        k(   88) = (   0.1904762  -0.3809524   0.0000000), wk =   0.0090703
        k(   89) = (   0.1904762  -0.3333333   0.0000000), wk =   0.0090703
        k(   90) = (   0.1904762  -0.2857143   0.0000000), wk =   0.0090703
        k(   91) = (   0.1904762  -0.2380952   0.0000000), wk =   0.0090703
        k(   92) = (   0.1904762  -0.1904762   0.0000000), wk =   0.0090703
        k(   93) = (   0.1904762  -0.1428571   0.0000000), wk =   0.0090703
        k(   94) = (   0.1904762  -0.0952381   0.0000000), wk =   0.0090703
        k(   95) = (   0.1904762  -0.0476190   0.0000000), wk =   0.0090703
        k(   96) = (   0.2380952   0.0000000   0.0000000), wk =   0.0090703
        k(   97) = (   0.2380952   0.0476190   0.0000000), wk =   0.0090703
        k(   98) = (   0.2380952   0.0952381   0.0000000), wk =   0.0090703
        k(   99) = (   0.2380952   0.1428571   0.0000000), wk =   0.0090703
        k(  100) = (   0.2380952   0.1904762   0.0000000), wk =   0.0090703
        k(  101) = (   0.2380952   0.2380952   0.0000000), wk =   0.0090703
        k(  102) = (   0.2380952   0.2857143   0.0000000), wk =   0.0090703
        k(  103) = (   0.2380952   0.3333333   0.0000000), wk =   0.0090703
        k(  104) = (   0.2380952   0.3809524   0.0000000), wk =   0.0090703
        k(  105) = (   0.2380952   0.4285714   0.0000000), wk =   0.0090703
        k(  106) = (   0.2380952   0.4761905   0.0000000), wk =   0.0090703
        k(  107) = (   0.2380952  -0.4761905   0.0000000), wk =   0.0090703
        k(  108) = (   0.2380952  -0.4285714   0.0000000), wk =   0.0090703
        k(  109) = (   0.2380952  -0.3809524   0.0000000), wk =   0.0090703
        k(  110) = (   0.2380952  -0.3333333   0.0000000), wk =   0.0090703
        k(  111) = (   0.2380952  -0.2857143   0.0000000), wk =   0.0090703
        k(  112) = (   0.2380952  -0.2380952   0.0000000), wk =   0.0090703
        k(  113) = (   0.2380952  -0.1904762   0.0000000), wk =   0.0090703
        k(  114) = (   0.2380952  -0.1428571   0.0000000), wk =   0.0090703
        k(  115) = (   0.2380952  -0.0952381   0.0000000), wk =   0.0090703
        k(  116) = (   0.2380952  -0.0476190   0.0000000), wk =   0.0090703
        k(  117) = (   0.2857143   0.0000000   0.0000000), wk =   0.0090703
        k(  118) = (   0.2857143   0.0476190   0.0000000), wk =   0.0090703
        k(  119) = (   0.2857143   0.0952381   0.0000000), wk =   0.0090703
        k(  120) = (   0.2857143   0.1428571   0.0000000), wk =   0.0090703
        k(  121) = (   0.2857143   0.1904762   0.0000000), wk =   0.0090703
        k(  122) = (   0.2857143   0.2380952   0.0000000), wk =   0.0090703
        k(  123) = (   0.2857143   0.2857143   0.0000000), wk =   0.0090703
        k(  124) = (   0.2857143   0.3333333   0.0000000), wk =   0.0090703
        k(  125) = (   0.2857143   0.3809524   0.0000000), wk =   0.0090703
        k(  126) = (   0.2857143   0.4285714   0.0000000), wk =   0.0090703
        k(  127) = (   0.2857143   0.4761905   0.0000000), wk =   0.0090703
        k(  128) = (   0.2857143  -0.4761905   0.0000000), wk =   0.0090703
        k(  129) = (   0.2857143  -0.4285714   0.0000000), wk =   0.0090703
        k(  130) = (   0.2857143  -0.3809524   0.0000000), wk =   0.0090703
        k(  131) = (   0.2857143  -0.3333333   0.0000000), wk =   0.0090703
        k(  132) = (   0.2857143  -0.2857143   0.0000000), wk =   0.0090703
        k(  133) = (   0.2857143  -0.2380952   0.0000000), wk =   0.0090703
        k(  134) = (   0.2857143  -0.1904762   0.0000000), wk =   0.0090703
        k(  135) = (   0.2857143  -0.1428571   0.0000000), wk =   0.0090703
        k(  136) = (   0.2857143  -0.0952381   0.0000000), wk =   0.0090703
        k(  137) = (   0.2857143  -0.0476190   0.0000000), wk =   0.0090703
        k(  138) = (   0.3333333   0.0000000   0.0000000), wk =   0.0090703
        k(  139) = (   0.3333333   0.0476190   0.0000000), wk =   0.0090703
        k(  140) = (   0.3333333   0.0952381   0.0000000), wk =   0.0090703
        k(  141) = (   0.3333333   0.1428571   0.0000000), wk =   0.0090703
        k(  142) = (   0.3333333   0.1904762   0.0000000), wk =   0.0090703
        k(  143) = (   0.3333333   0.2380952   0.0000000), wk =   0.0090703
        k(  144) = (   0.3333333   0.2857143   0.0000000), wk =   0.0090703
        k(  145) = (   0.3333333   0.3333333   0.0000000), wk =   0.0090703
        k(  146) = (   0.3333333   0.3809524   0.0000000), wk =   0.0090703
        k(  147) = (   0.3333333   0.4285714   0.0000000), wk =   0.0090703
        k(  148) = (   0.3333333   0.4761905   0.0000000), wk =   0.0090703
        k(  149) = (   0.3333333  -0.4761905   0.0000000), wk =   0.0090703
        k(  150) = (   0.3333333  -0.4285714   0.0000000), wk =   0.0090703
        k(  151) = (   0.3333333  -0.3809524   0.0000000), wk =   0.0090703
        k(  152) = (   0.3333333  -0.3333333   0.0000000), wk =   0.0090703
        k(  153) = (   0.3333333  -0.2857143   0.0000000), wk =   0.0090703
        k(  154) = (   0.3333333  -0.2380952   0.0000000), wk =   0.0090703
        k(  155) = (   0.3333333  -0.1904762   0.0000000), wk =   0.0090703
        k(  156) = (   0.3333333  -0.1428571   0.0000000), wk =   0.0090703
        k(  157) = (   0.3333333  -0.0952381   0.0000000), wk =   0.0090703
        k(  158) = (   0.3333333  -0.0476190   0.0000000), wk =   0.0090703
        k(  159) = (   0.3809524   0.0000000   0.0000000), wk =   0.0090703
        k(  160) = (   0.3809524   0.0476190   0.0000000), wk =   0.0090703
        k(  161) = (   0.3809524   0.0952381   0.0000000), wk =   0.0090703
        k(  162) = (   0.3809524   0.1428571   0.0000000), wk =   0.0090703
        k(  163) = (   0.3809524   0.1904762   0.0000000), wk =   0.0090703
        k(  164) = (   0.3809524   0.2380952   0.0000000), wk =   0.0090703
        k(  165) = (   0.3809524   0.2857143   0.0000000), wk =   0.0090703
        k(  166) = (   0.3809524   0.3333333   0.0000000), wk =   0.0090703
        k(  167) = (   0.3809524   0.3809524   0.0000000), wk =   0.0090703
        k(  168) = (   0.3809524   0.4285714   0.0000000), wk =   0.0090703
        k(  169) = (   0.3809524   0.4761905   0.0000000), wk =   0.0090703
        k(  170) = (   0.3809524  -0.4761905   0.0000000), wk =   0.0090703
        k(  171) = (   0.3809524  -0.4285714   0.0000000), wk =   0.0090703
        k(  172) = (   0.3809524  -0.3809524   0.0000000), wk =   0.0090703
        k(  173) = (   0.3809524  -0.3333333   0.0000000), wk =   0.0090703
        k(  174) = (   0.3809524  -0.2857143   0.0000000), wk =   0.0090703
        k(  175) = (   0.3809524  -0.2380952   0.0000000), wk =   0.0090703
        k(  176) = (   0.3809524  -0.1904762   0.0000000), wk =   0.0090703
        k(  177) = (   0.3809524  -0.1428571   0.0000000), wk =   0.0090703
        k(  178) = (   0.3809524  -0.0952381   0.0000000), wk =   0.0090703
        k(  179) = (   0.3809524  -0.0476190   0.0000000), wk =   0.0090703
        k(  180) = (   0.4285714   0.0000000   0.0000000), wk =   0.0090703
        k(  181) = (   0.4285714   0.0476190   0.0000000), wk =   0.0090703
        k(  182) = (   0.4285714   0.0952381   0.0000000), wk =   0.0090703
        k(  183) = (   0.4285714   0.1428571   0.0000000), wk =   0.0090703
        k(  184) = (   0.4285714   0.1904762   0.0000000), wk =   0.0090703
        k(  185) = (   0.4285714   0.2380952   0.0000000), wk =   0.0090703
        k(  186) = (   0.4285714   0.2857143   0.0000000), wk =   0.0090703
        k(  187) = (   0.4285714   0.3333333   0.0000000), wk =   0.0090703
        k(  188) = (   0.4285714   0.3809524   0.0000000), wk =   0.0090703
        k(  189) = (   0.4285714   0.4285714   0.0000000), wk =   0.0090703
        k(  190) = (   0.4285714   0.4761905   0.0000000), wk =   0.0090703
        k(  191) = (   0.4285714  -0.4761905   0.0000000), wk =   0.0090703
        k(  192) = (   0.4285714  -0.4285714   0.0000000), wk =   0.0090703
        k(  193) = (   0.4285714  -0.3809524   0.0000000), wk =   0.0090703
        k(  194) = (   0.4285714  -0.3333333   0.0000000), wk =   0.0090703
        k(  195) = (   0.4285714  -0.2857143   0.0000000), wk =   0.0090703
        k(  196) = (   0.4285714  -0.2380952   0.0000000), wk =   0.0090703
        k(  197) = (   0.4285714  -0.1904762   0.0000000), wk =   0.0090703
        k(  198) = (   0.4285714  -0.1428571   0.0000000), wk =   0.0090703
        k(  199) = (   0.4285714  -0.0952381   0.0000000), wk =   0.0090703
        k(  200) = (   0.4285714  -0.0476190   0.0000000), wk =   0.0090703
        k(  201) = (   0.4761905   0.0000000   0.0000000), wk =   0.0090703
        k(  202) = (   0.4761905   0.0476190   0.0000000), wk =   0.0090703
        k(  203) = (   0.4761905   0.0952381   0.0000000), wk =   0.0090703
        k(  204) = (   0.4761905   0.1428571   0.0000000), wk =   0.0090703
        k(  205) = (   0.4761905   0.1904762   0.0000000), wk =   0.0090703
        k(  206) = (   0.4761905   0.2380952   0.0000000), wk =   0.0090703
        k(  207) = (   0.4761905   0.2857143   0.0000000), wk =   0.0090703
        k(  208) = (   0.4761905   0.3333333   0.0000000), wk =   0.0090703
        k(  209) = (   0.4761905   0.3809524   0.0000000), wk =   0.0090703
        k(  210) = (   0.4761905   0.4285714   0.0000000), wk =   0.0090703
        k(  211) = (   0.4761905   0.4761905   0.0000000), wk =   0.0090703
        k(  212) = (   0.4761905  -0.4761905   0.0000000), wk =   0.0090703
        k(  213) = (   0.4761905  -0.4285714   0.0000000), wk =   0.0090703
        k(  214) = (   0.4761905  -0.3809524   0.0000000), wk =   0.0090703
        k(  215) = (   0.4761905  -0.3333333   0.0000000), wk =   0.0090703
        k(  216) = (   0.4761905  -0.2857143   0.0000000), wk =   0.0090703
        k(  217) = (   0.4761905  -0.2380952   0.0000000), wk =   0.0090703
        k(  218) = (   0.4761905  -0.1904762   0.0000000), wk =   0.0090703
        k(  219) = (   0.4761905  -0.1428571   0.0000000), wk =   0.0090703
        k(  220) = (   0.4761905  -0.0952381   0.0000000), wk =   0.0090703
        k(  221) = (   0.4761905  -0.0476190   0.0000000), wk =   0.0090703

     Dense  grid:   463351 G-vectors     FFT dimensions: (  60,  60, 300)

     Smooth grid:   117389 G-vectors     FFT dimensions: (  40,  40, 192)

     Dynamical RAM for                 wfc:       0.36 MB

     Dynamical RAM for     wfc (w. buffer):      80.59 MB

     Dynamical RAM for           str. fact:       0.59 MB

     Dynamical RAM for           local pot:       0.00 MB

     Dynamical RAM for          nlocal pot:       0.84 MB

     Dynamical RAM for                qrad:       3.59 MB

     Dynamical RAM for          rho,v,vnew:       1.95 MB

     Dynamical RAM for               rhoin:       0.65 MB

     Dynamical RAM for            rho*nmix:       4.71 MB

     Dynamical RAM for           G-vectors:       1.14 MB

     Dynamical RAM for          h,s,v(r/c):       0.28 MB

     Dynamical RAM for          <psi|beta>:       0.05 MB

     Dynamical RAM for                 psi:       0.73 MB

     Dynamical RAM for                hpsi:       0.73 MB

     Dynamical RAM for      wfcinit/wfcrot:       0.76 MB

     Estimated static dynamical RAM per process >      92.02 MB

     Estimated max dynamical RAM per process >      98.52 MB

     Estimated total dynamical RAM >       2.31 GB

     Initial potential from superposition of free atoms

     starting charge      77.7638, renormalised to      78.0000

     negative rho (up, down):  3.860E-04 0.000E+00
     Starting wfcs are random

     total cpu time spent up to now is        5.0 secs

     Self-consistent Calculation

     iteration #  1     ecut=    50.00 Ry     beta= 0.70
     Davidson diagonalization with overlap

---- Real-time Memory Report at c_bands before calling an iterative solver
           280 MiB given to the printing process from OS
             0 MiB allocation reported by mallinfo(arena+hblkhd)
        112933 MiB available memory on the node where the printing process lives
------------------
     ethr =  1.00E-02,  avg # of iterations = 11.0

     Threshold (ethr) on eigenvalues was too large:
     Diagonalizing with lowered threshold

     Davidson diagonalization with overlap

---- Real-time Memory Report at c_bands before calling an iterative solver
           286 MiB given to the printing process from OS
             0 MiB allocation reported by mallinfo(arena+hblkhd)
        112906 MiB available memory on the node where the printing process lives
------------------
     ethr =  1.24E-04,  avg # of iterations =  5.9

     negative rho (up, down):  1.621E-05 0.000E+00

     total cpu time spent up to now is       64.8 secs

     total energy              =    -806.58031325 Ry
     estimated scf accuracy    <       0.08464648 Ry

     iteration #  2     ecut=    50.00 Ry     beta= 0.70
     Davidson diagonalization with overlap

---- Real-time Memory Report at c_bands before calling an iterative solver
           291 MiB given to the printing process from OS
             0 MiB allocation reported by mallinfo(arena+hblkhd)
        112845 MiB available memory on the node where the printing process lives
------------------
     ethr =  1.09E-04,  avg # of iterations =  5.6

     negative rho (up, down):  2.712E-05 0.000E+00

     total cpu time spent up to now is       81.7 secs

     total energy              =    -806.53072662 Ry
     estimated scf accuracy    <       0.48170409 Ry

     iteration #  3     ecut=    50.00 Ry     beta= 0.70
     Davidson diagonalization with overlap

---- Real-time Memory Report at c_bands before calling an iterative solver
           292 MiB given to the printing process from OS
             0 MiB allocation reported by mallinfo(arena+hblkhd)
        112841 MiB available memory on the node where the printing process lives
------------------
     ethr =  1.09E-04,  avg # of iterations =  5.3

     negative rho (up, down):  2.268E-05 0.000E+00

     total cpu time spent up to now is       98.0 secs

     total energy              =    -806.59247859 Ry
     estimated scf accuracy    <       0.23453585 Ry

     iteration #  4     ecut=    50.00 Ry     beta= 0.70
     Davidson diagonalization with overlap

---- Real-time Memory Report at c_bands before calling an iterative solver
           292 MiB given to the printing process from OS
             0 MiB allocation reported by mallinfo(arena+hblkhd)
        112838 MiB available memory on the node where the printing process lives
------------------
     ethr =  1.09E-04,  avg # of iterations =  3.3

     negative rho (up, down):  6.058E-06 0.000E+00

     total cpu time spent up to now is      110.8 secs

     total energy              =    -806.61615620 Ry
     estimated scf accuracy    <       0.00491253 Ry

     iteration #  5     ecut=    50.00 Ry     beta= 0.70
     Davidson diagonalization with overlap

---- Real-time Memory Report at c_bands before calling an iterative solver
           292 MiB given to the printing process from OS
             0 MiB allocation reported by mallinfo(arena+hblkhd)
        112836 MiB available memory on the node where the printing process lives
------------------
     ethr =  6.30E-06,  avg # of iterations =  6.7

     negative rho (up, down):  2.566E-06 0.000E+00

     total cpu time spent up to now is      127.4 secs

     total energy              =    -806.61278572 Ry
     estimated scf accuracy    <       0.09323095 Ry

     iteration #  6     ecut=    50.00 Ry     beta= 0.70
     Davidson diagonalization with overlap

---- Real-time Memory Report at c_bands before calling an iterative solver
           292 MiB given to the printing process from OS
             0 MiB allocation reported by mallinfo(arena+hblkhd)
        112831 MiB available memory on the node where the printing process lives
------------------
     ethr =  6.30E-06,  avg # of iterations =  6.8

     negative rho (up, down):  2.713E-08 0.000E+00

     total cpu time spent up to now is      142.5 secs

     total energy              =    -806.61783290 Ry
     estimated scf accuracy    <       0.00321237 Ry

     iteration #  7     ecut=    50.00 Ry     beta= 0.70
     Davidson diagonalization with overlap

---- Real-time Memory Report at c_bands before calling an iterative solver
           293 MiB given to the printing process from OS
             0 MiB allocation reported by mallinfo(arena+hblkhd)
        112829 MiB available memory on the node where the printing process lives
------------------
     ethr =  4.12E-06,  avg # of iterations =  2.6

     total cpu time spent up to now is      153.8 secs

     total energy              =    -806.61807808 Ry
     estimated scf accuracy    <       0.00014802 Ry

     iteration #  8     ecut=    50.00 Ry     beta= 0.70
     Davidson diagonalization with overlap

---- Real-time Memory Report at c_bands before calling an iterative solver
           293 MiB given to the printing process from OS
             0 MiB allocation reported by mallinfo(arena+hblkhd)
        112829 MiB available memory on the node where the printing process lives
------------------
     ethr =  1.90E-07,  avg # of iterations =  5.6

     total cpu time spent up to now is      168.8 secs

     total energy              =    -806.61812234 Ry
     estimated scf accuracy    <       0.00014218 Ry

     iteration #  9     ecut=    50.00 Ry     beta= 0.70
     Davidson diagonalization with overlap

---- Real-time Memory Report at c_bands before calling an iterative solver
           293 MiB given to the printing process from OS
             0 MiB allocation reported by mallinfo(arena+hblkhd)
        112827 MiB available memory on the node where the printing process lives
------------------
     ethr =  1.82E-07,  avg # of iterations =  2.0

     total cpu time spent up to now is      179.5 secs

     total energy              =    -806.61811642 Ry
     estimated scf accuracy    <       0.00006672 Ry

     iteration # 10     ecut=    50.00 Ry     beta= 0.70
     Davidson diagonalization with overlap

---- Real-time Memory Report at c_bands before calling an iterative solver
           293 MiB given to the printing process from OS
             0 MiB allocation reported by mallinfo(arena+hblkhd)
        112825 MiB available memory on the node where the printing process lives
------------------
     ethr =  8.55E-08,  avg # of iterations =  3.5

     total cpu time spent up to now is      191.5 secs

     total energy              =    -806.61812181 Ry
     estimated scf accuracy    <       0.00000193 Ry

     iteration # 11     ecut=    50.00 Ry     beta= 0.70
     Davidson diagonalization with overlap

---- Real-time Memory Report at c_bands before calling an iterative solver
           293 MiB given to the printing process from OS
             0 MiB allocation reported by mallinfo(arena+hblkhd)
        112824 MiB available memory on the node where the printing process lives
------------------
     ethr =  2.47E-09,  avg # of iterations =  6.0

     total cpu time spent up to now is      207.1 secs

     total energy              =    -806.61812242 Ry
     estimated scf accuracy    <       0.00000443 Ry

     iteration # 12     ecut=    50.00 Ry     beta= 0.70
     Davidson diagonalization with overlap

---- Real-time Memory Report at c_bands before calling an iterative solver
           293 MiB given to the printing process from OS
             0 MiB allocation reported by mallinfo(arena+hblkhd)
        112824 MiB available memory on the node where the printing process lives
------------------
     ethr =  2.47E-09,  avg # of iterations =  3.3

     total cpu time spent up to now is      219.1 secs

     total energy              =    -806.61812266 Ry
     estimated scf accuracy    <       0.00000024 Ry

     iteration # 13     ecut=    50.00 Ry     beta= 0.70
     Davidson diagonalization with overlap

---- Real-time Memory Report at c_bands before calling an iterative solver
           293 MiB given to the printing process from OS
             0 MiB allocation reported by mallinfo(arena+hblkhd)
        112824 MiB available memory on the node where the printing process lives
------------------
     ethr =  3.08E-10,  avg # of iterations =  5.6

     total cpu time spent up to now is      233.7 secs

     total energy              =    -806.61812271 Ry
     estimated scf accuracy    <       0.00000014 Ry

     iteration # 14     ecut=    50.00 Ry     beta= 0.70
     Davidson diagonalization with overlap

---- Real-time Memory Report at c_bands before calling an iterative solver
           293 MiB given to the printing process from OS
             0 MiB allocation reported by mallinfo(arena+hblkhd)
        112824 MiB available memory on the node where the printing process lives
------------------
     ethr =  1.82E-10,  avg # of iterations =  2.1

     total cpu time spent up to now is      244.6 secs

     End of self-consistent calculation

          k = 0.0000 0.0000 0.0000 ( 14667 PWs)   bands (ev):

   -34.7014 -34.7012 -34.7011 -34.7009 -34.6717 -34.6712 -34.6680 -34.6678
   -34.6586 -34.6582 -34.5936 -34.5856 -34.5787 -34.5466 -34.5462 -27.4672
   -27.4670 -27.4670 -27.4667 -27.4592 -27.4588 -27.4558 -27.4555 -27.4545
   -27.4542 -10.6618 -10.1288  -9.0475  -6.2976  -4.9086  -0.1730   0.1089
     0.2787   0.3381   0.4639   0.7838   0.9470   1.0452   1.2799

     occupation numbers 
     1.0000   1.0000   1.0000   1.0000   1.0000   1.0000   1.0000   1.0000
     1.0000   1.0000   1.0000   1.0000   1.0000   1.0000   1.0000   1.0000
     1.0000   1.0000   1.0000   1.0000   1.0000   1.0000   1.0000   1.0000
     1.0000   1.0000   1.0000   1.0000   1.0000   1.0000   1.0000   1.0000
     1.0000   1.0000   1.0000   1.0000   1.0000   1.0000   1.0000

          k = 0.0000 0.0561 0.0000 ( 14646 PWs)   bands (ev):

   -34.7014 -34.7011 -34.7011 -34.7008 -34.6717 -34.6712 -34.6680 -34.6678
   -34.6586 -34.6582 -34.5936 -34.5856 -34.5787 -34.5466 -34.5462 -27.4672
   -27.4670 -27.4669 -27.4667 -27.4591 -27.4588 -27.4558 -27.4555 -27.4545
   -27.4542 -10.6419 -10.1105  -9.0361  -6.2997  -4.9406  -0.2354   0.0251
     0.0815   0.2723   0.3249   0.7443   0.9788   1.0370   1.4831

     occupation numbers 
     1.0000   1.0000   1.0000   1.0000   1.0000   1.0000   1.0000   1.0000
     1.0000   1.0000   1.0000   1.0000   1.0000   1.0000   1.0000   1.0000
     1.0000   1.0000   1.0000   1.0000   1.0000   1.0000   1.0000   1.0000
     1.0000   1.0000   1.0000   1.0000   1.0000   1.0000   1.0000   1.0000
     1.0000   1.0000   1.0000   1.0000   1.0000   1.0000   1.0000

          k = 0.0000 0.1122 0.0000 ( 14666 PWs)   bands (ev):

   -34.7014 -34.7011 -34.7010 -34.7007 -34.6717 -34.6712 -34.6681 -34.6678
   -34.6585 -34.6582 -34.5935 -34.5856 -34.5787 -34.5465 -34.5462 -27.4672
   -27.4670 -27.4667 -27.4664 -27.4590 -27.4587 -27.4559 -27.4555 -27.4547
   -27.4544 -10.5826 -10.0560  -9.0030  -6.3082  -5.0369  -0.5581  -0.1698
    -0.1493   0.0292   0.2340   0.3826   1.0302   1.2909   1.6250

     occupation numbers 
     1.0000   1.0000   1.0000   1.0000   1.0000   1.0000   1.0000   1.0000
     1.0000   1.0000   1.0000   1.0000   1.0000   1.0000   1.0000   1.0000
     1.0000   1.0000   1.0000   1.0000   1.0000   1.0000   1.0000   1.0000
     1.0000   1.0000   1.0000   1.0000   1.0000   1.0000   1.0000   1.0000
     1.0000   1.0000   1.0000   1.0000   1.0000   1.0000   1.0000

          k = 0.0000 0.1683 0.0000 ( 14653 PWs)   bands (ev):

   -34.7014 -34.7011 -34.7009 -34.7006 -34.6717 -34.6713 -34.6681 -34.6678
   -34.6585 -34.6581 -34.5935 -34.5856 -34.5787 -34.5464 -34.5461 -27.4673
   -27.4671 -27.4663 -27.4660 -27.4588 -27.4584 -27.4560 -27.4556 -27.4550
   -27.4547 -10.4845  -9.9665  -8.9503  -6.3290  -5.1962  -1.0339  -0.4100
    -0.3780  -0.2548   0.0853   0.1935   1.0531   1.3276   1.5703

     occupation numbers 
     1.0000   1.0000   1.0000   1.0000   1.0000   1.0000   1.0000   1.0000
     1.0000   1.0000   1.0000   1.0000   1.0000   1.0000   1.0000   1.0000
     1.0000   1.0000   1.0000   1.0000   1.0000   1.0000   1.0000   1.0000
     1.0000   1.0000   1.0000   1.0000   1.0000   1.0000   1.0000   1.0000
     1.0000   1.0000   1.0000   1.0000   1.0000   1.0000   1.0000

          k = 0.0000 0.2243 0.0000 ( 14643 PWs)   bands (ev):

   -34.7014 -34.7011 -34.7007 -34.7004 -34.6717 -34.6713 -34.6681 -34.6678
   -34.6584 -34.6580 -34.5934 -34.5856 -34.5788 -34.5463 -34.5460 -27.4674
   -27.4672 -27.4657 -27.4655 -27.4585 -27.4582 -27.4561 -27.4557 -27.4553
   -27.4550 -10.3490  -9.8442  -8.8828  -6.3719  -5.4126  -1.5062  -0.7133
    -0.6064  -0.5541  -0.0838   0.1851   0.9599   1.0388   1.6927

     occupation numbers 
     1.0000   1.0000   1.0000   1.0000   1.0000   1.0000   1.0000   1.0000
     1.0000   1.0000   1.0000   1.0000   1.0000   1.0000   1.0000   1.0000
     1.0000   1.0000   1.0000   1.0000   1.0000   1.0000   1.0000   1.0000
     1.0000   1.0000   1.0000   1.0000   1.0000   1.0000   1.0000   1.0000
     1.0000   1.0000   1.0000   1.0000   1.0000   1.0000   1.0000

          k = 0.0000 0.2804 0.0000 ( 14651 PWs)   bands (ev):

   -34.7014 -34.7011 -34.7005 -34.7002 -34.6717 -34.6713 -34.6682 -34.6679
   -34.6583 -34.6579 -34.5933 -34.5856 -34.5789 -34.5462 -34.5459 -27.4675
   -27.4673 -27.4652 -27.4649 -27.4582 -27.4579 -27.4562 -27.4560 -27.4555
   -27.4553 -10.1782  -9.6927  -8.8072  -6.4495  -5.6725  -1.9311  -1.0687
    -0.8182  -0.7306  -0.2539   0.1951   0.6195   0.9927   1.6565

     occupation numbers 
     1.0000   1.0000   1.0000   1.0000   1.0000   1.0000   1.0000   1.0000
     1.0000   1.0000   1.0000   1.0000   1.0000   1.0000   1.0000   1.0000
     1.0000   1.0000   1.0000   1.0000   1.0000   1.0000   1.0000   1.0000
     1.0000   1.0000   1.0000   1.0000   1.0000   1.0000   1.0000   1.0000
     1.0000   1.0000   1.0000   1.0000   1.0000   1.0000   1.0000

          k = 0.0000 0.3365 0.0000 ( 14676 PWs)   bands (ev):

   -34.7014 -34.7011 -34.7003 -34.7000 -34.6717 -34.6713 -34.6682 -34.6679
   -34.6581 -34.6578 -34.5932 -34.5857 -34.5789 -34.5462 -34.5457 -27.4676
   -27.4674 -27.4646 -27.4643 -27.4580 -27.4576 -27.4564 -27.4563 -27.4558
   -27.4554  -9.9756  -9.5179  -8.7338  -6.5739  -5.9525  -2.2912  -1.3717
    -1.0056  -0.8585  -0.4111   0.0900   0.4571   0.9310   1.4864

     occupation numbers 
     1.0000   1.0000   1.0000   1.0000   1.0000   1.0000   1.0000   1.0000
     1.0000   1.0000   1.0000   1.0000   1.0000   1.0000   1.0000   1.0000
     1.0000   1.0000   1.0000   1.0000   1.0000   1.0000   1.0000   1.0000
     1.0000   1.0000   1.0000   1.0000   1.0000   1.0000   1.0000   1.0000
     1.0000   1.0000   1.0000   1.0000   1.0000   1.0000   1.0000

          k = 0.0000 0.3926 0.0000 ( 14691 PWs)   bands (ev):

   -34.7014 -34.7011 -34.7001 -34.6998 -34.6717 -34.6713 -34.6683 -34.6680
   -34.6580 -34.6577 -34.5932 -34.5857 -34.5790 -34.5462 -34.5455 -27.4677
   -27.4675 -27.4640 -27.4638 -27.4579 -27.4574 -27.4567 -27.4564 -27.4561
   -27.4554  -9.7464  -9.3291  -8.6775  -6.7490  -6.2226  -2.5811  -1.5907
    -1.1613  -0.9792  -0.5459  -0.1108   0.4715   0.8665   1.2721

     occupation numbers 
     1.0000   1.0000   1.0000   1.0000   1.0000   1.0000   1.0000   1.0000
     1.0000   1.0000   1.0000   1.0000   1.0000   1.0000   1.0000   1.0000
     1.0000   1.0000   1.0000   1.0000   1.0000   1.0000   1.0000   1.0000
     1.0000   1.0000   1.0000   1.0000   1.0000   1.0000   1.0000   1.0000
     1.0000   1.0000   1.0000   1.0000   1.0000   1.0000   1.0000

          k = 0.0000 0.4487 0.0000 ( 14689 PWs)   bands (ev):

   -34.7014 -34.7011 -34.6999 -34.6996 -34.6717 -34.6713 -34.6683 -34.6680
   -34.6579 -34.6576 -34.5931 -34.5857 -34.5790 -34.5462 -34.5453 -27.4678
   -27.4676 -27.4636 -27.4633 -27.4579 -27.4573 -27.4569 -27.4564 -27.4561
   -27.4554  -9.4987  -9.1415  -8.6583  -6.9562  -6.4556  -2.8016  -1.7125
    -1.2811  -1.1256  -0.6520  -0.2477   0.5123   0.8092   1.0787

     occupation numbers 
     1.0000   1.0000   1.0000   1.0000   1.0000   1.0000   1.0000   1.0000
     1.0000   1.0000   1.0000   1.0000   1.0000   1.0000   1.0000   1.0000
     1.0000   1.0000   1.0000   1.0000   1.0000   1.0000   1.0000   1.0000
     1.0000   1.0000   1.0000   1.0000   1.0000   1.0000   1.0000   1.0000
     1.0000   1.0000   1.0000   1.0000   1.0000   1.0000   1.0000

          k = 0.0000 0.5048 0.0000 ( 14693 PWs)   bands (ev):

   -34.7014 -34.7011 -34.6998 -34.6995 -34.6717 -34.6713 -34.6683 -34.6680
   -34.6579 -34.6575 -34.5930 -34.5857 -34.5791 -34.5461 -34.5452 -27.4679
   -27.4676 -27.4632 -27.4630 -27.4581 -27.4573 -27.4570 -27.4564 -27.4561
   -27.4554  -9.2461  -8.9805  -8.7000  -7.1479  -6.6311  -2.9526  -1.7400
    -1.3635  -1.2934  -0.7248  -0.3018   0.5307   0.7659   0.9488

     occupation numbers 
     1.0000   1.0000   1.0000   1.0000   1.0000   1.0000   1.0000   1.0000
     1.0000   1.0000   1.0000   1.0000   1.0000   1.0000   1.0000   1.0000
     1.0000   1.0000   1.0000   1.0000   1.0000   1.0000   1.0000   1.0000
     1.0000   1.0000   1.0000   1.0000   1.0000   1.0000   1.0000   1.0000
     1.0000   1.0000   1.0000   1.0000   1.0000   1.0000   1.0000

          k = 0.0000 0.5609 0.0000 ( 14698 PWs)   bands (ev):

   -34.7014 -34.7011 -34.6998 -34.6995 -34.6718 -34.6713 -34.6684 -34.6681
   -34.6579 -34.6575 -34.5930 -34.5857 -34.5791 -34.5461 -34.5451 -27.4679
   -27.4677 -27.4631 -27.4628 -27.4581 -27.4574 -27.4571 -27.4563 -27.4561
   -27.4554  -9.0099  -8.8830  -8.8190  -7.2650  -6.7281  -3.0300  -1.7043
    -1.4404  -1.3979  -0.7616  -0.3118   0.5233   0.7427   0.8952

     occupation numbers 
     1.0000   1.0000   1.0000   1.0000   1.0000   1.0000   1.0000   1.0000
     1.0000   1.0000   1.0000   1.0000   1.0000   1.0000   1.0000   1.0000
     1.0000   1.0000   1.0000   1.0000   1.0000   1.0000   1.0000   1.0000
     1.0000   1.0000   1.0000   1.0000   1.0000   1.0000   1.0000   1.0000
     1.0000   1.0000   1.0000   1.0000   1.0000   1.0000   1.0000

          k = 0.0476 0.0275 0.0000 ( 14654 PWs)   bands (ev):

   -34.7014 -34.7012 -34.7011 -34.7008 -34.6717 -34.6712 -34.6680 -34.6678
   -34.6586 -34.6582 -34.5936 -34.5856 -34.5787 -34.5466 -34.5462 -27.4671
   -27.4670 -27.4669 -27.4667 -27.4592 -27.4588 -27.4558 -27.4556 -27.4545
   -27.4542 -10.6427 -10.1113  -9.0369  -6.3007  -4.9431  -0.2468  -0.0850
     0.1595   0.2330   0.4370   0.7033   1.0074   1.0755   1.4538

     occupation numbers 
     1.0000   1.0000   1.0000   1.0000   1.0000   1.0000   1.0000   1.0000
     1.0000   1.0000   1.0000   1.0000   1.0000   1.0000   1.0000   1.0000
     1.0000   1.0000   1.0000   1.0000   1.0000   1.0000   1.0000   1.0000
     1.0000   1.0000   1.0000   1.0000   1.0000   1.0000   1.0000   1.0000
     1.0000   1.0000   1.0000   1.0000   1.0000   1.0000   1.0000

          k = 0.0476 0.0836 0.0000 ( 14653 PWs)   bands (ev):

   -34.7014 -34.7011 -34.7011 -34.7008 -34.6717 -34.6712 -34.6680 -34.6678
   -34.6586 -34.6582 -34.5936 -34.5856 -34.5787 -34.5465 -34.5462 -27.4672
   -27.4670 -27.4668 -27.4666 -27.4591 -27.4587 -27.4559 -27.4556 -27.4546
   -27.4542 -10.6034 -10.0753  -9.0150  -6.3066  -5.0085  -0.4551  -0.2482
    -0.0053   0.1188   0.2416   0.5981   0.9595   1.2504   1.6202

     occupation numbers 
     1.0000   1.0000   1.0000   1.0000   1.0000   1.0000   1.0000   1.0000
     1.0000   1.0000   1.0000   1.0000   1.0000   1.0000   1.0000   1.0000
     1.0000   1.0000   1.0000   1.0000   1.0000   1.0000   1.0000   1.0000
     1.0000   1.0000   1.0000   1.0000   1.0000   1.0000   1.0000   1.0000
     1.0000   1.0000   1.0000   1.0000   1.0000   1.0000   1.0000

          k = 0.0476 0.1397 0.0000 ( 14641 PWs)   bands (ev):

   -34.7014 -34.7011 -34.7010 -34.7007 -34.6717 -34.6713 -34.6681 -34.6678
   -34.6585 -34.6581 -34.5935 -34.5856 -34.5787 -34.5464 -34.5462 -27.4672
   -27.4670 -27.4665 -27.4662 -27.4589 -27.4586 -27.4560 -27.4556 -27.4548
   -27.4544 -10.5251 -10.0037  -8.9723  -6.3215  -5.1373  -0.8374  -0.4785
    -0.2494  -0.1492   0.1565   0.3994   0.9071   1.4706   1.5914

     occupation numbers 
     1.0000   1.0000   1.0000   1.0000   1.0000   1.0000   1.0000   1.0000
     1.0000   1.0000   1.0000   1.0000   1.0000   1.0000   1.0000   1.0000
     1.0000   1.0000   1.0000   1.0000   1.0000   1.0000   1.0000   1.0000
     1.0000   1.0000   1.0000   1.0000   1.0000   1.0000   1.0000   1.0000
     1.0000   1.0000   1.0000   1.0000   1.0000   1.0000   1.0000

          k = 0.0476 0.1958 0.0000 ( 14641 PWs)   bands (ev):

   -34.7014 -34.7011 -34.7008 -34.7005 -34.6717 -34.6713 -34.6681 -34.6678
   -34.6584 -34.6580 -34.5934 -34.5856 -34.5788 -34.5463 -34.5462 -27.4673
   -27.4671 -27.4660 -27.4658 -27.4587 -27.4583 -27.4562 -27.4557 -27.4551
   -27.4547 -10.4086  -9.8981  -8.9124  -6.3533  -5.3261  -1.2829  -0.7562
    -0.5519  -0.3207   0.0003   0.2242   0.8869   1.2986   1.6752

     occupation numbers 
     1.0000   1.0000   1.0000   1.0000   1.0000   1.0000   1.0000   1.0000
     1.0000   1.0000   1.0000   1.0000   1.0000   1.0000   1.0000   1.0000
     1.0000   1.0000   1.0000   1.0000   1.0000   1.0000   1.0000   1.0000
     1.0000   1.0000   1.0000   1.0000   1.0000   1.0000   1.0000   1.0000
     1.0000   1.0000   1.0000   1.0000   1.0000   1.0000   1.0000

          k = 0.0476 0.2518 0.0000 ( 14647 PWs)   bands (ev):

   -34.7014 -34.7011 -34.7006 -34.7003 -34.6717 -34.6713 -34.6682 -34.6679
   -34.6583 -34.6579 -34.5934 -34.5856 -34.5788 -34.5462 -34.5460 -27.4674
   -27.4672 -27.4655 -27.4652 -27.4584 -27.4581 -27.4563 -27.4559 -27.4553
   -27.4550 -10.2557  -9.7614  -8.8406  -6.4127  -5.5656  -1.7180  -1.0600
    -0.7549  -0.5394  -0.2432   0.1938   0.7951   1.0509   1.7061

     occupation numbers 
     1.0000   1.0000   1.0000   1.0000   1.0000   1.0000   1.0000   1.0000
     1.0000   1.0000   1.0000   1.0000   1.0000   1.0000   1.0000   1.0000
     1.0000   1.0000   1.0000   1.0000   1.0000   1.0000   1.0000   1.0000
     1.0000   1.0000   1.0000   1.0000   1.0000   1.0000   1.0000   1.0000
     1.0000   1.0000   1.0000   1.0000   1.0000   1.0000   1.0000

          k = 0.0476 0.3079 0.0000 ( 14647 PWs)   bands (ev):

   -34.7014 -34.7011 -34.7004 -34.7001 -34.6717 -34.6713 -34.6682 -34.6679
   -34.6582 -34.6578 -34.5933 -34.5857 -34.5789 -34.5462 -34.5458 -27.4675
   -27.4672 -27.4649 -27.4647 -27.4582 -27.4578 -27.4565 -27.4562 -27.4555
   -27.4553 -10.0692  -9.5981  -8.7652  -6.5121  -5.8378  -2.1064  -1.3272
    -0.9392  -0.7587  -0.4273   0.1526   0.6129   0.9227   1.6097

     occupation numbers 
     1.0000   1.0000   1.0000   1.0000   1.0000   1.0000   1.0000   1.0000
     1.0000   1.0000   1.0000   1.0000   1.0000   1.0000   1.0000   1.0000
     1.0000   1.0000   1.0000   1.0000   1.0000   1.0000   1.0000   1.0000
     1.0000   1.0000   1.0000   1.0000   1.0000   1.0000   1.0000   1.0000
     1.0000   1.0000   1.0000   1.0000   1.0000   1.0000   1.0000

          k = 0.0476 0.3640 0.0000 ( 14680 PWs)   bands (ev):

   -34.7014 -34.7010 -34.7002 -34.6999 -34.6717 -34.6713 -34.6682 -34.6680
   -34.6581 -34.6577 -34.5932 -34.5857 -34.5789 -34.5461 -34.5456 -27.4676
   -27.4673 -27.4643 -27.4641 -27.4580 -27.4576 -27.4567 -27.4564 -27.4558
   -27.4554  -9.8531  -9.4156  -8.6985  -6.6607  -6.1160  -2.4312  -1.5337
    -1.1353  -0.9341  -0.5453   0.0186   0.5025   0.8560   1.4360

     occupation numbers 
     1.0000   1.0000   1.0000   1.0000   1.0000   1.0000   1.0000   1.0000
     1.0000   1.0000   1.0000   1.0000   1.0000   1.0000   1.0000   1.0000
     1.0000   1.0000   1.0000   1.0000   1.0000   1.0000   1.0000   1.0000
     1.0000   1.0000   1.0000   1.0000   1.0000   1.0000   1.0000   1.0000
     1.0000   1.0000   1.0000   1.0000   1.0000   1.0000   1.0000

          k = 0.0476 0.4201 0.0000 ( 14699 PWs)   bands (ev):

   -34.7014 -34.7010 -34.7000 -34.6997 -34.6717 -34.6713 -34.6683 -34.6680
   -34.6580 -34.6576 -34.5931 -34.5857 -34.5790 -34.5461 -34.5454 -27.4677
   -27.4674 -27.4638 -27.4636 -27.4579 -27.4574 -27.4568 -27.4565 -27.4560
   -27.4554  -9.6140  -9.2256  -8.6574  -6.8542  -6.3698  -2.6871  -1.6679
    -1.3087  -1.0858  -0.6241  -0.1565   0.4829   0.8123   1.2461

     occupation numbers 
     1.0000   1.0000   1.0000   1.0000   1.0000   1.0000   1.0000   1.0000
     1.0000   1.0000   1.0000   1.0000   1.0000   1.0000   1.0000   1.0000
     1.0000   1.0000   1.0000   1.0000   1.0000   1.0000   1.0000   1.0000
     1.0000   1.0000   1.0000   1.0000   1.0000   1.0000   1.0000   1.0000
     1.0000   1.0000   1.0000   1.0000   1.0000   1.0000   1.0000

          k = 0.0476 0.4762 0.0000 ( 14687 PWs)   bands (ev):

   -34.7013 -34.7010 -34.6999 -34.6996 -34.6718 -34.6713 -34.6683 -34.6680
   -34.6579 -34.6576 -34.5931 -34.5857 -34.5790 -34.5461 -34.5453 -27.4678
   -27.4675 -27.4634 -27.4632 -27.4580 -27.4574 -27.4570 -27.4564 -27.4561
   -27.4554  -9.3625  -9.0477  -8.6643  -7.0599  -6.5757  -2.8732  -1.7280
    -1.4316  -1.2307  -0.6975  -0.2734   0.4924   0.7773   1.0872

     occupation numbers 
     1.0000   1.0000   1.0000   1.0000   1.0000   1.0000   1.0000   1.0000
     1.0000   1.0000   1.0000   1.0000   1.0000   1.0000   1.0000   1.0000
     1.0000   1.0000   1.0000   1.0000   1.0000   1.0000   1.0000   1.0000
     1.0000   1.0000   1.0000   1.0000   1.0000   1.0000   1.0000   1.0000
     1.0000   1.0000   1.0000   1.0000   1.0000   1.0000   1.0000

          k = 0.0476 0.5323 0.0000 ( 14697 PWs)   bands (ev):

   -34.7013 -34.7010 -34.6998 -34.6995 -34.6718 -34.6713 -34.6683 -34.6681
   -34.6579 -34.6575 -34.5930 -34.5857 -34.5791 -34.5461 -34.5452 -27.4678
   -27.4676 -27.4632 -27.4629 -27.4581 -27.4574 -27.4570 -27.4563 -27.4561
   -27.4554  -9.1157  -8.9131  -8.7412  -7.2216  -6.7141  -2.9875  -1.7300
    -1.4939  -1.3621  -0.7634  -0.3172   0.5105   0.7343   0.9953

     occupation numbers 
     1.0000   1.0000   1.0000   1.0000   1.0000   1.0000   1.0000   1.0000
     1.0000   1.0000   1.0000   1.0000   1.0000   1.0000   1.0000   1.0000
     1.0000   1.0000   1.0000   1.0000   1.0000   1.0000   1.0000   1.0000
     1.0000   1.0000   1.0000   1.0000   1.0000   1.0000   1.0000   1.0000
     1.0000   1.0000   1.0000   1.0000   1.0000   1.0000   1.0000

          k = 0.0476 0.5884 0.0000 ( 14701 PWs)   bands (ev):

   -34.7013 -34.7010 -34.6998 -34.6995 -34.6718 -34.6713 -34.6684 -34.6681
   -34.6578 -34.6575 -34.5930 -34.5857 -34.5791 -34.5461 -34.5451 -27.4679
   -27.4676 -27.4631 -27.4628 -27.4581 -27.4574 -27.4571 -27.4563 -27.4561
   -27.4554  -8.9001  -8.8953  -8.8607  -7.2839  -6.7637  -3.0267  -1.7148
    -1.5179  -1.4181  -0.7911  -0.3238   0.5222   0.7051   0.9712

     occupation numbers 
     1.0000   1.0000   1.0000   1.0000   1.0000   1.0000   1.0000   1.0000
     1.0000   1.0000   1.0000   1.0000   1.0000   1.0000   1.0000   1.0000
     1.0000   1.0000   1.0000   1.0000   1.0000   1.0000   1.0000   1.0000
     1.0000   1.0000   1.0000   1.0000   1.0000   1.0000   1.0000   1.0000
     1.0000   1.0000   1.0000   1.0000   1.0000   1.0000   1.0000

          k = 0.0476-0.5334 0.0000 ( 14691 PWs)   bands (ev):

   -34.7014 -34.7010 -34.6998 -34.6995 -34.6718 -34.6713 -34.6683 -34.6681
   -34.6579 -34.6575 -34.5930 -34.5857 -34.5791 -34.5461 -34.5452 -27.4678
   -27.4676 -27.4632 -27.4629 -27.4581 -27.4573 -27.4571 -27.4563 -27.4561
   -27.4555  -9.1115  -8.9110  -8.7430  -7.2228  -6.7136  -2.9890  -1.7246
    -1.5192  -1.3397  -0.7694  -0.3114   0.5142   0.7211   1.0006

     occupation numbers 
     1.0000   1.0000   1.0000   1.0000   1.0000   1.0000   1.0000   1.0000
     1.0000   1.0000   1.0000   1.0000   1.0000   1.0000   1.0000   1.0000
     1.0000   1.0000   1.0000   1.0000   1.0000   1.0000   1.0000   1.0000
     1.0000   1.0000   1.0000   1.0000   1.0000   1.0000   1.0000   1.0000
     1.0000   1.0000   1.0000   1.0000   1.0000   1.0000   1.0000

          k = 0.0476-0.4773 0.0000 ( 14672 PWs)   bands (ev):

   -34.7014 -34.7010 -34.6999 -34.6996 -34.6717 -34.6713 -34.6683 -34.6680
   -34.6579 -34.6575 -34.5931 -34.5857 -34.5790 -34.5462 -34.5452 -27.4678
   -27.4675 -27.4634 -27.4632 -27.4580 -27.4572 -27.4570 -27.4564 -27.4562
   -27.4555  -9.3579  -9.0441  -8.6644  -7.0617  -6.5743  -2.8759  -1.7296
    -1.4452  -1.2088  -0.7121  -0.2614   0.5020   0.7517   1.0938

     occupation numbers 
     1.0000   1.0000   1.0000   1.0000   1.0000   1.0000   1.0000   1.0000
     1.0000   1.0000   1.0000   1.0000   1.0000   1.0000   1.0000   1.0000
     1.0000   1.0000   1.0000   1.0000   1.0000   1.0000   1.0000   1.0000
     1.0000   1.0000   1.0000   1.0000   1.0000   1.0000   1.0000   1.0000
     1.0000   1.0000   1.0000   1.0000   1.0000   1.0000   1.0000

          k = 0.0476-0.4212 0.0000 ( 14679 PWs)   bands (ev):

   -34.7014 -34.7011 -34.7000 -34.6997 -34.6717 -34.6713 -34.6683 -34.6680
   -34.6580 -34.6576 -34.5931 -34.5857 -34.5790 -34.5462 -34.5453 -27.4677
   -27.4675 -27.4638 -27.4635 -27.4578 -27.4573 -27.4567 -27.4564 -27.4563
   -27.4555  -9.6094  -9.2214  -8.6561  -6.8555  -6.3672  -2.6910  -1.6746
    -1.3131  -1.0640  -0.6431  -0.1414   0.4915   0.7861   1.2457

     occupation numbers 
     1.0000   1.0000   1.0000   1.0000   1.0000   1.0000   1.0000   1.0000
     1.0000   1.0000   1.0000   1.0000   1.0000   1.0000   1.0000   1.0000
     1.0000   1.0000   1.0000   1.0000   1.0000   1.0000   1.0000   1.0000
     1.0000   1.0000   1.0000   1.0000   1.0000   1.0000   1.0000   1.0000
     1.0000   1.0000   1.0000   1.0000   1.0000   1.0000   1.0000

          k = 0.0476-0.3651 0.0000 ( 14681 PWs)   bands (ev):

   -34.7014 -34.7011 -34.7002 -34.6999 -34.6717 -34.6713 -34.6683 -34.6680
   -34.6581 -34.6577 -34.5932 -34.5857 -34.5790 -34.5462 -34.5455 -27.4676
   -27.4674 -27.4643 -27.4640 -27.4578 -27.4575 -27.4565 -27.4563 -27.4562
   -27.4555  -9.8488  -9.4114  -8.6963  -6.6609  -6.1123  -2.4363  -1.5396
    -1.1382  -0.9146  -0.5580   0.0351   0.4960   0.8386   1.4261

     occupation numbers 
     1.0000   1.0000   1.0000   1.0000   1.0000   1.0000   1.0000   1.0000
     1.0000   1.0000   1.0000   1.0000   1.0000   1.0000   1.0000   1.0000
     1.0000   1.0000   1.0000   1.0000   1.0000   1.0000   1.0000   1.0000
     1.0000   1.0000   1.0000   1.0000   1.0000   1.0000   1.0000   1.0000
     1.0000   1.0000   1.0000   1.0000   1.0000   1.0000   1.0000

          k = 0.0476-0.3090 0.0000 ( 14651 PWs)   bands (ev):

   -34.7014 -34.7011 -34.7004 -34.7001 -34.6717 -34.6713 -34.6682 -34.6679
   -34.6582 -34.6578 -34.5933 -34.5856 -34.5789 -34.5463 -34.5457 -27.4675
   -27.4673 -27.4648 -27.4646 -27.4580 -27.4577 -27.4563 -27.4562 -27.4558
   -27.4555 -10.0653  -9.5942  -8.7627  -6.5108  -5.8330  -2.1126  -1.3264
    -0.9457  -0.7453  -0.4287   0.1704   0.5860   0.9131   1.5940

     occupation numbers 
     1.0000   1.0000   1.0000   1.0000   1.0000   1.0000   1.0000   1.0000
     1.0000   1.0000   1.0000   1.0000   1.0000   1.0000   1.0000   1.0000
     1.0000   1.0000   1.0000   1.0000   1.0000   1.0000   1.0000   1.0000
     1.0000   1.0000   1.0000   1.0000   1.0000   1.0000   1.0000   1.0000
     1.0000   1.0000   1.0000   1.0000   1.0000   1.0000   1.0000

          k = 0.0476-0.2529 0.0000 ( 14654 PWs)   bands (ev):

   -34.7014 -34.7011 -34.7006 -34.7003 -34.6717 -34.6713 -34.6682 -34.6679
   -34.6583 -34.6579 -34.5934 -34.5856 -34.5788 -34.5463 -34.5459 -27.4674
   -27.4672 -27.4654 -27.4652 -27.4583 -27.4580 -27.4561 -27.4558 -27.4555
   -27.4553 -10.2525  -9.7580  -8.8380  -6.4105  -5.5599  -1.7239  -1.0490
    -0.7618  -0.5304  -0.2440   0.1999   0.7740   1.0303   1.6929

     occupation numbers 
     1.0000   1.0000   1.0000   1.0000   1.0000   1.0000   1.0000   1.0000
     1.0000   1.0000   1.0000   1.0000   1.0000   1.0000   1.0000   1.0000
     1.0000   1.0000   1.0000   1.0000   1.0000   1.0000   1.0000   1.0000
     1.0000   1.0000   1.0000   1.0000   1.0000   1.0000   1.0000   1.0000
     1.0000   1.0000   1.0000   1.0000   1.0000   1.0000   1.0000

          k = 0.0476-0.1969 0.0000 ( 14658 PWs)   bands (ev):

   -34.7014 -34.7011 -34.7008 -34.7005 -34.6717 -34.6713 -34.6681 -34.6678
   -34.6584 -34.6580 -34.5934 -34.5856 -34.5788 -34.5464 -34.5460 -27.4673
   -27.4671 -27.4660 -27.4657 -27.4586 -27.4583 -27.4560 -27.4556 -27.4553
   -27.4549 -10.4060  -9.8953  -8.9102  -6.3507  -5.3201  -1.2848  -0.7369
    -0.5527  -0.3035  -0.0248   0.2175   0.8769   1.2612   1.6723

     occupation numbers 
     1.0000   1.0000   1.0000   1.0000   1.0000   1.0000   1.0000   1.0000
     1.0000   1.0000   1.0000   1.0000   1.0000   1.0000   1.0000   1.0000
     1.0000   1.0000   1.0000   1.0000   1.0000   1.0000   1.0000   1.0000
     1.0000   1.0000   1.0000   1.0000   1.0000   1.0000   1.0000   1.0000
     1.0000   1.0000   1.0000   1.0000   1.0000   1.0000   1.0000

          k = 0.0476-0.1408 0.0000 ( 14647 PWs)   bands (ev):

   -34.7014 -34.7011 -34.7010 -34.7007 -34.6717 -34.6712 -34.6681 -34.6678
   -34.6585 -34.6581 -34.5935 -34.5856 -34.5787 -34.5465 -34.5461 -27.4673
   -27.4671 -27.4664 -27.4662 -27.4588 -27.4585 -27.4559 -27.4556 -27.4549
   -27.4546 -10.5232 -10.0016  -8.9706  -6.3192  -5.1319  -0.8284  -0.4559
    -0.2396  -0.1252   0.1034   0.3804   0.8838   1.4725   1.5664

     occupation numbers 
     1.0000   1.0000   1.0000   1.0000   1.0000   1.0000   1.0000   1.0000
     1.0000   1.0000   1.0000   1.0000   1.0000   1.0000   1.0000   1.0000
     1.0000   1.0000   1.0000   1.0000   1.0000   1.0000   1.0000   1.0000
     1.0000   1.0000   1.0000   1.0000   1.0000   1.0000   1.0000   1.0000
     1.0000   1.0000   1.0000   1.0000   1.0000   1.0000   1.0000

          k = 0.0476-0.0847 0.0000 ( 14660 PWs)   bands (ev):

   -34.7014 -34.7011 -34.7011 -34.7008 -34.6717 -34.6712 -34.6681 -34.6678
   -34.6585 -34.6582 -34.5936 -34.5856 -34.5787 -34.5466 -34.5462 -27.4672
   -27.4670 -27.4668 -27.4665 -27.4590 -27.4587 -27.4558 -27.4556 -27.4546
   -27.4544 -10.6023 -10.0741  -9.0139  -6.3050  -5.0048  -0.4355  -0.1959
    -0.0109   0.1248   0.1751   0.5941   0.9047   1.2658   1.6168

     occupation numbers 
     1.0000   1.0000   1.0000   1.0000   1.0000   1.0000   1.0000   1.0000
     1.0000   1.0000   1.0000   1.0000   1.0000   1.0000   1.0000   1.0000
     1.0000   1.0000   1.0000   1.0000   1.0000   1.0000   1.0000   1.0000
     1.0000   1.0000   1.0000   1.0000   1.0000   1.0000   1.0000   1.0000
     1.0000   1.0000   1.0000   1.0000   1.0000   1.0000   1.0000

          k = 0.0476-0.0286 0.0000 ( 14640 PWs)   bands (ev):

   -34.7014 -34.7011 -34.7011 -34.7008 -34.6717 -34.6712 -34.6680 -34.6678
   -34.6586 -34.6582 -34.5936 -34.5856 -34.5787 -34.5466 -34.5462 -27.4672
   -27.4670 -27.4669 -27.4667 -27.4591 -27.4588 -27.4558 -27.4556 -27.4545
   -27.4542 -10.6422 -10.1109  -9.0365  -6.3002  -4.9418  -0.2416  -0.0160
     0.0883   0.2649   0.3849   0.7258   0.9917   1.0562   1.4697

     occupation numbers 
     1.0000   1.0000   1.0000   1.0000   1.0000   1.0000   1.0000   1.0000
     1.0000   1.0000   1.0000   1.0000   1.0000   1.0000   1.0000   1.0000
     1.0000   1.0000   1.0000   1.0000   1.0000   1.0000   1.0000   1.0000
     1.0000   1.0000   1.0000   1.0000   1.0000   1.0000   1.0000   1.0000
     1.0000   1.0000   1.0000   1.0000   1.0000   1.0000   1.0000

          k = 0.0952 0.0550 0.0000 ( 14637 PWs)   bands (ev):

   -34.7013 -34.7011 -34.7010 -34.7008 -34.6717 -34.6713 -34.6680 -34.6678
   -34.6585 -34.6582 -34.5935 -34.5856 -34.5787 -34.5466 -34.5462 -27.4671
   -27.4669 -27.4668 -27.4666 -27.4591 -27.4587 -27.4560 -27.4557 -27.4545
   -27.4542 -10.5856 -10.0592  -9.0057  -6.3122  -5.0462  -0.6280  -0.3197
    -0.0114   0.0440   0.3537   0.3576   1.1254   1.2878   1.6095

     occupation numbers 
     1.0000   1.0000   1.0000   1.0000   1.0000   1.0000   1.0000   1.0000
     1.0000   1.0000   1.0000   1.0000   1.0000   1.0000   1.0000   1.0000
     1.0000   1.0000   1.0000   1.0000   1.0000   1.0000   1.0000   1.0000
     1.0000   1.0000   1.0000   1.0000   1.0000   1.0000   1.0000   1.0000
     1.0000   1.0000   1.0000   1.0000   1.0000   1.0000   1.0000

          k = 0.0952 0.1111 0.0000 ( 14645 PWs)   bands (ev):

   -34.7013 -34.7010 -34.7010 -34.7007 -34.6717 -34.6713 -34.6681 -34.6678
   -34.6585 -34.6581 -34.5935 -34.5856 -34.5787 -34.5465 -34.5462 -27.4671
   -27.4669 -27.4666 -27.4664 -27.4590 -27.4586 -27.4562 -27.4557 -27.4547
   -27.4542 -10.5273 -10.0061  -8.9745  -6.3247  -5.1441  -0.8936  -0.4793
    -0.2780  -0.0703   0.1891   0.3900   0.9619   1.5088   1.5588

     occupation numbers 
     1.0000   1.0000   1.0000   1.0000   1.0000   1.0000   1.0000   1.0000
     1.0000   1.0000   1.0000   1.0000   1.0000   1.0000   1.0000   1.0000
     1.0000   1.0000   1.0000   1.0000   1.0000   1.0000   1.0000   1.0000
     1.0000   1.0000   1.0000   1.0000   1.0000   1.0000   1.0000   1.0000
     1.0000   1.0000   1.0000   1.0000   1.0000   1.0000   1.0000

          k = 0.0952 0.1672 0.0000 ( 14645 PWs)   bands (ev):

   -34.7013 -34.7010 -34.7009 -34.7006 -34.6717 -34.6713 -34.6681 -34.6678
   -34.6584 -34.6581 -34.5934 -34.5856 -34.5787 -34.5463 -34.5461 -27.4672
   -27.4670 -27.4662 -27.4660 -27.4588 -27.4584 -27.4563 -27.4557 -27.4549
   -27.4544 -10.4306  -9.9184  -8.9245  -6.3506  -5.3028  -1.1906  -0.8271
    -0.5307  -0.2483   0.0646   0.3685   0.7389   1.5022   1.6810

     occupation numbers 
     1.0000   1.0000   1.0000   1.0000   1.0000   1.0000   1.0000   1.0000
     1.0000   1.0000   1.0000   1.0000   1.0000   1.0000   1.0000   1.0000
     1.0000   1.0000   1.0000   1.0000   1.0000   1.0000   1.0000   1.0000
     1.0000   1.0000   1.0000   1.0000   1.0000   1.0000   1.0000   1.0000
     1.0000   1.0000   1.0000   1.0000   1.0000   1.0000   1.0000

          k = 0.0952 0.2232 0.0000 ( 14648 PWs)   bands (ev):

   -34.7013 -34.7010 -34.7007 -34.7004 -34.6717 -34.6713 -34.6681 -34.6678
   -34.6583 -34.6580 -34.5934 -34.5857 -34.5788 -34.5462 -34.5461 -27.4672
   -27.4670 -27.4658 -27.4655 -27.4586 -27.4582 -27.4565 -27.4559 -27.4552
   -27.4547 -10.2967  -9.7983  -8.8599  -6.3982  -5.5161  -1.5231  -1.2061
    -0.6725  -0.4832  -0.1374   0.2057   0.7087   1.3671   1.6934

     occupation numbers 
[...]
     1.0000   1.0000   1.0000   1.0000   1.0000   1.0000   1.0000   1.0000
     1.0000   1.0000   1.0000   1.0000   1.0000   1.0000   1.0000

          k = 0.4762 0.3310 0.0000 ( 14654 PWs)   bands (ev):

   -34.7010 -34.7007 -34.7002 -34.6999 -34.6719 -34.6715 -34.6681 -34.6678
   -34.6580 -34.6577 -34.5929 -34.5859 -34.5788 -34.5463 -34.5452 -27.4674
   -27.4671 -27.4643 -27.4640 -27.4589 -27.4587 -27.4568 -27.4564 -27.4550
   -27.4541  -8.9651  -8.9456  -8.9224  -7.3195  -6.7677  -3.0200  -1.6700
    -1.6032  -1.2530  -0.6420  -0.2863   0.5577   0.8528   1.1299

     occupation numbers 
     1.0000   1.0000   1.0000   1.0000   1.0000   1.0000   1.0000   1.0000
     1.0000   1.0000   1.0000   1.0000   1.0000   1.0000   1.0000   1.0000
     1.0000   1.0000   1.0000   1.0000   1.0000   1.0000   1.0000   1.0000
     1.0000   1.0000   1.0000   1.0000   1.0000   1.0000   1.0000   1.0000
     1.0000   1.0000   1.0000   1.0000   1.0000   1.0000   1.0000

          k = 0.4762 0.3871 0.0000 ( 14633 PWs)   bands (ev):

   -34.7010 -34.7007 -34.7002 -34.6999 -34.6719 -34.6715 -34.6681 -34.6678
   -34.6580 -34.6576 -34.5929 -34.5859 -34.5788 -34.5463 -34.5453 -27.4671
   -27.4669 -27.4644 -27.4641 -27.4588 -27.4586 -27.4568 -27.4564 -27.4551
   -27.4542  -9.0272  -8.9101  -8.8341  -7.3091  -6.8168  -2.9693  -1.7370
    -1.6755  -1.3356  -0.7470  -0.3397   0.5536   0.8126   1.3180

     occupation numbers 
     1.0000   1.0000   1.0000   1.0000   1.0000   1.0000   1.0000   1.0000
     1.0000   1.0000   1.0000   1.0000   1.0000   1.0000   1.0000   1.0000
     1.0000   1.0000   1.0000   1.0000   1.0000   1.0000   1.0000   1.0000
     1.0000   1.0000   1.0000   1.0000   1.0000   1.0000   1.0000   1.0000
     1.0000   1.0000   1.0000   1.0000   1.0000   1.0000   1.0000

          k = 0.4762 0.4432 0.0000 ( 14642 PWs)   bands (ev):

   -34.7008 -34.7005 -34.7003 -34.7000 -34.6719 -34.6715 -34.6682 -34.6679
   -34.6580 -34.6576 -34.5929 -34.5859 -34.5788 -34.5462 -34.5453 -27.4667
   -27.4665 -27.4646 -27.4643 -27.4587 -27.4585 -27.4569 -27.4565 -27.4552
   -27.4544  -9.0842  -8.8986  -8.7280  -7.2740  -6.8802  -2.8773  -1.9029
    -1.7414  -1.3888  -0.7963  -0.5057   0.5425   0.8996   1.4340

     occupation numbers 
     1.0000   1.0000   1.0000   1.0000   1.0000   1.0000   1.0000   1.0000
     1.0000   1.0000   1.0000   1.0000   1.0000   1.0000   1.0000   1.0000
     1.0000   1.0000   1.0000   1.0000   1.0000   1.0000   1.0000   1.0000
     1.0000   1.0000   1.0000   1.0000   1.0000   1.0000   1.0000   1.0000
     1.0000   1.0000   1.0000   1.0000   1.0000   1.0000   1.0000

          k = 0.4762 0.4993 0.0000 ( 14628 PWs)   bands (ev):

   -34.7007 -34.7004 -34.7004 -34.7001 -34.6719 -34.6715 -34.6682 -34.6679
   -34.6580 -34.6576 -34.5929 -34.5859 -34.5789 -34.5461 -34.5454 -27.4663
   -27.4661 -27.4649 -27.4646 -27.4586 -27.4584 -27.4570 -27.4566 -27.4553
   -27.4547  -9.1233  -8.8911  -8.6436  -7.2193  -6.9534  -2.7496  -2.1487
    -1.7173  -1.4224  -0.9400  -0.5787   0.5575   1.0198   1.4043

     occupation numbers 
     1.0000   1.0000   1.0000   1.0000   1.0000   1.0000   1.0000   1.0000
     1.0000   1.0000   1.0000   1.0000   1.0000   1.0000   1.0000   1.0000
     1.0000   1.0000   1.0000   1.0000   1.0000   1.0000   1.0000   1.0000
     1.0000   1.0000   1.0000   1.0000   1.0000   1.0000   1.0000   1.0000
     1.0000   1.0000   1.0000   1.0000   1.0000   1.0000   1.0000

          k = 0.4762 0.5554 0.0000 ( 14623 PWs)   bands (ev):

   -34.7006 -34.7005 -34.7003 -34.7002 -34.6719 -34.6715 -34.6682 -34.6679
   -34.6580 -34.6576 -34.5929 -34.5859 -34.5789 -34.5461 -34.5454 -27.4660
   -27.4658 -27.4650 -27.4648 -27.4585 -27.4582 -27.4571 -27.4567 -27.4553
   -27.4549  -9.1416  -8.8853  -8.5941  -7.1565  -7.0249  -2.5878  -2.3858
    -1.6709  -1.3782  -1.1850  -0.5407   0.5804   1.0802   1.3355

     occupation numbers 
     1.0000   1.0000   1.0000   1.0000   1.0000   1.0000   1.0000   1.0000
     1.0000   1.0000   1.0000   1.0000   1.0000   1.0000   1.0000   1.0000
     1.0000   1.0000   1.0000   1.0000   1.0000   1.0000   1.0000   1.0000
     1.0000   1.0000   1.0000   1.0000   1.0000   1.0000   1.0000   1.0000
     1.0000   1.0000   1.0000   1.0000   1.0000   1.0000   1.0000

          k = 0.4762 0.6114 0.0000 ( 14626 PWs)   bands (ev):

   -34.7007 -34.7004 -34.7004 -34.7001 -34.6719 -34.6714 -34.6682 -34.6679
   -34.6579 -34.6576 -34.5929 -34.5858 -34.5789 -34.5461 -34.5453 -27.4662
   -27.4660 -27.4648 -27.4646 -27.4583 -27.4580 -27.4572 -27.4568 -27.4553
   -27.4550  -9.1378  -8.8798  -8.5880  -7.1473  -7.0323  -2.5886  -2.3889
    -1.6758  -1.3833  -1.1907  -0.5389   0.5698   1.0737   1.3251

     occupation numbers 
     1.0000   1.0000   1.0000   1.0000   1.0000   1.0000   1.0000   1.0000
     1.0000   1.0000   1.0000   1.0000   1.0000   1.0000   1.0000   1.0000
     1.0000   1.0000   1.0000   1.0000   1.0000   1.0000   1.0000   1.0000
     1.0000   1.0000   1.0000   1.0000   1.0000   1.0000   1.0000   1.0000
     1.0000   1.0000   1.0000   1.0000   1.0000   1.0000   1.0000

          k = 0.4762 0.6675 0.0000 ( 14640 PWs)   bands (ev):

   -34.7009 -34.7006 -34.7003 -34.7000 -34.6718 -34.6714 -34.6682 -34.6679
   -34.6579 -34.6576 -34.5929 -34.5858 -34.5789 -34.5462 -34.5452 -27.4666
   -27.4663 -27.4645 -27.4642 -27.4583 -27.4578 -27.4573 -27.4569 -27.4553
   -27.4549  -9.1122  -8.8753  -8.6266  -7.2056  -6.9614  -2.7526  -2.1546
    -1.7351  -1.4387  -0.9442  -0.5894   0.5327   1.0044   1.3657

     occupation numbers 
     1.0000   1.0000   1.0000   1.0000   1.0000   1.0000   1.0000   1.0000
     1.0000   1.0000   1.0000   1.0000   1.0000   1.0000   1.0000   1.0000
     1.0000   1.0000   1.0000   1.0000   1.0000   1.0000   1.0000   1.0000
     1.0000   1.0000   1.0000   1.0000   1.0000   1.0000   1.0000   1.0000
     1.0000   1.0000   1.0000   1.0000   1.0000   1.0000   1.0000

          k = 0.4762 0.7236 0.0000 ( 14657 PWs)   bands (ev):

   -34.7010 -34.7007 -34.7001 -34.6998 -34.6718 -34.6714 -34.6682 -34.6680
   -34.6579 -34.6576 -34.5930 -34.5858 -34.5790 -34.5463 -34.5451 -27.4670
   -27.4668 -27.4641 -27.4639 -27.4583 -27.4577 -27.4574 -27.4568 -27.4554
   -27.4548  -9.0663  -8.8737  -8.7031  -7.2591  -6.8850  -2.8806  -1.9023
    -1.7730  -1.4172  -0.7854  -0.5558   0.5143   0.8730   1.3668

     occupation numbers 
     1.0000   1.0000   1.0000   1.0000   1.0000   1.0000   1.0000   1.0000
     1.0000   1.0000   1.0000   1.0000   1.0000   1.0000   1.0000   1.0000
     1.0000   1.0000   1.0000   1.0000   1.0000   1.0000   1.0000   1.0000
     1.0000   1.0000   1.0000   1.0000   1.0000   1.0000   1.0000   1.0000
     1.0000   1.0000   1.0000   1.0000   1.0000   1.0000   1.0000

          k = 0.4762 0.7797 0.0000 ( 14650 PWs)   bands (ev):

   -34.7011 -34.7008 -34.7001 -34.6998 -34.6718 -34.6714 -34.6683 -34.6680
   -34.6579 -34.6575 -34.5930 -34.5858 -34.5790 -34.5464 -34.5450 -27.4674
   -27.4671 -27.4639 -27.4636 -27.4583 -27.4577 -27.4573 -27.4567 -27.4553
   -27.4547  -9.0033  -8.8783  -8.8055  -7.2934  -6.8178  -2.9724  -1.7509
    -1.6748  -1.3851  -0.7813  -0.3782   0.5299   0.7626   1.2377

     occupation numbers 
     1.0000   1.0000   1.0000   1.0000   1.0000   1.0000   1.0000   1.0000
     1.0000   1.0000   1.0000   1.0000   1.0000   1.0000   1.0000   1.0000
     1.0000   1.0000   1.0000   1.0000   1.0000   1.0000   1.0000   1.0000
     1.0000   1.0000   1.0000   1.0000   1.0000   1.0000   1.0000   1.0000
     1.0000   1.0000   1.0000   1.0000   1.0000   1.0000   1.0000

          k = 0.4762 0.8358 0.0000 ( 14657 PWs)   bands (ev):

   -34.7012 -34.7008 -34.7000 -34.6997 -34.6718 -34.6714 -34.6683 -34.6680
   -34.6579 -34.6575 -34.5930 -34.5858 -34.5790 -34.5465 -34.5449 -27.4676
   -27.4673 -27.4638 -27.4635 -27.4584 -27.4578 -27.4572 -27.4567 -27.4553
   -27.4546  -8.9295  -8.9200  -8.8904  -7.3028  -6.7656  -3.0227  -1.6915
    -1.5611  -1.3352  -0.7231  -0.3013   0.5410   0.7702   1.0569

     occupation numbers 
     1.0000   1.0000   1.0000   1.0000   1.0000   1.0000   1.0000   1.0000
     1.0000   1.0000   1.0000   1.0000   1.0000   1.0000   1.0000   1.0000
     1.0000   1.0000   1.0000   1.0000   1.0000   1.0000   1.0000   1.0000
     1.0000   1.0000   1.0000   1.0000   1.0000   1.0000   1.0000   1.0000
     1.0000   1.0000   1.0000   1.0000   1.0000   1.0000   1.0000

          k = 0.4762-0.2859 0.0000 ( 14659 PWs)   bands (ev):

   -34.7012 -34.7009 -34.7000 -34.6997 -34.6718 -34.6714 -34.6683 -34.6680
   -34.6579 -34.6576 -34.5930 -34.5858 -34.5790 -34.5465 -34.5449 -27.4676
   -27.4674 -27.4637 -27.4635 -27.4584 -27.4578 -27.4572 -27.4567 -27.4553
   -27.4546  -9.0367  -8.9137  -8.8459  -7.2850  -6.7315  -3.0266  -1.6966
    -1.4872  -1.2982  -0.6726  -0.3000   0.5417   0.8107   0.9824

     occupation numbers 
     1.0000   1.0000   1.0000   1.0000   1.0000   1.0000   1.0000   1.0000
     1.0000   1.0000   1.0000   1.0000   1.0000   1.0000   1.0000   1.0000
     1.0000   1.0000   1.0000   1.0000   1.0000   1.0000   1.0000   1.0000
     1.0000   1.0000   1.0000   1.0000   1.0000   1.0000   1.0000   1.0000
     1.0000   1.0000   1.0000   1.0000   1.0000   1.0000   1.0000

          k = 0.4762-0.2298 0.0000 ( 14665 PWs)   bands (ev):

   -34.7011 -34.7008 -34.7000 -34.6997 -34.6718 -34.6714 -34.6682 -34.6680
   -34.6579 -34.6576 -34.5930 -34.5858 -34.5790 -34.5465 -34.5450 -27.4675
   -27.4673 -27.4638 -27.4636 -27.4583 -27.4577 -27.4573 -27.4567 -27.4553
   -27.4546  -9.1430  -8.9429  -8.7657  -7.2412  -6.7175  -2.9837  -1.7321
    -1.4778  -1.3143  -0.6950  -0.2982   0.5327   0.8013   1.0770

     occupation numbers 
     1.0000   1.0000   1.0000   1.0000   1.0000   1.0000   1.0000   1.0000
     1.0000   1.0000   1.0000   1.0000   1.0000   1.0000   1.0000   1.0000
     1.0000   1.0000   1.0000   1.0000   1.0000   1.0000   1.0000   1.0000
     1.0000   1.0000   1.0000   1.0000   1.0000   1.0000   1.0000   1.0000
     1.0000   1.0000   1.0000   1.0000   1.0000   1.0000   1.0000

          k = 0.4762-0.1738 0.0000 ( 14675 PWs)   bands (ev):

   -34.7011 -34.7008 -34.7001 -34.6998 -34.6718 -34.6714 -34.6682 -34.6680
   -34.6580 -34.6576 -34.5930 -34.5858 -34.5789 -34.5464 -34.5451 -27.4673
   -27.4671 -27.4640 -27.4638 -27.4583 -27.4577 -27.4574 -27.4568 -27.4552
   -27.4547  -9.2331  -8.9744  -8.6947  -7.1763  -6.7250  -2.8977  -1.7426
    -1.6263  -1.3400  -0.7180  -0.3360   0.4913   0.8257   1.2888

     occupation numbers 
     1.0000   1.0000   1.0000   1.0000   1.0000   1.0000   1.0000   1.0000
     1.0000   1.0000   1.0000   1.0000   1.0000   1.0000   1.0000   1.0000
     1.0000   1.0000   1.0000   1.0000   1.0000   1.0000   1.0000   1.0000
     1.0000   1.0000   1.0000   1.0000   1.0000   1.0000   1.0000   1.0000
     1.0000   1.0000   1.0000   1.0000   1.0000   1.0000   1.0000

          k = 0.4762-0.1177 0.0000 ( 14668 PWs)   bands (ev):

   -34.7010 -34.7007 -34.7002 -34.6999 -34.6718 -34.6714 -34.6682 -34.6679
   -34.6580 -34.6576 -34.5930 -34.5858 -34.5789 -34.5463 -34.5452 -27.4670
   -27.4667 -27.4643 -27.4641 -27.4582 -27.4577 -27.4574 -27.4569 -27.4552
   -27.4547  -9.3018  -9.0030  -8.6402  -7.0993  -6.7533  -2.7730  -1.9191
    -1.6113  -1.4087  -0.7643  -0.4308   0.5262   0.9144   1.4297

     occupation numbers 
     1.0000   1.0000   1.0000   1.0000   1.0000   1.0000   1.0000   1.0000
     1.0000   1.0000   1.0000   1.0000   1.0000   1.0000   1.0000   1.0000
     1.0000   1.0000   1.0000   1.0000   1.0000   1.0000   1.0000   1.0000
     1.0000   1.0000   1.0000   1.0000   1.0000   1.0000   1.0000   1.0000
     1.0000   1.0000   1.0000   1.0000   1.0000   1.0000   1.0000

          k = 0.4762-0.0616 0.0000 ( 14653 PWs)   bands (ev):

   -34.7009 -34.7006 -34.7004 -34.7001 -34.6718 -34.6714 -34.6682 -34.6679
   -34.6580 -34.6576 -34.5930 -34.5858 -34.5789 -34.5462 -34.5453 -27.4666
   -27.4664 -27.4647 -27.4645 -27.4583 -27.4579 -27.4573 -27.4569 -27.4551
   -27.4548  -9.3458  -9.0241  -8.6076  -7.0261  -6.7950  -2.6112  -2.1713
    -1.4859  -1.4345  -0.9571  -0.4585   0.6406   1.0157   1.3987

     occupation numbers 
     1.0000   1.0000   1.0000   1.0000   1.0000   1.0000   1.0000   1.0000
     1.0000   1.0000   1.0000   1.0000   1.0000   1.0000   1.0000   1.0000
     1.0000   1.0000   1.0000   1.0000   1.0000   1.0000   1.0000   1.0000
     1.0000   1.0000   1.0000   1.0000   1.0000   1.0000   1.0000   1.0000
     1.0000   1.0000   1.0000   1.0000   1.0000   1.0000   1.0000

          k = 0.4762-0.0055 0.0000 ( 14628 PWs)   bands (ev):

   -34.7007 -34.7005 -34.7004 -34.7002 -34.6719 -34.6714 -34.6682 -34.6679
   -34.6580 -34.6576 -34.5930 -34.5858 -34.5789 -34.5462 -34.5454 -27.4663
   -27.4661 -27.4650 -27.4648 -27.4584 -27.4581 -27.4572 -27.4569 -27.4551
   -27.4548  -9.3630  -9.0347  -8.6000  -6.9944  -6.8183  -2.4517  -2.3626
    -1.4906  -1.2728  -1.1542  -0.4537   0.7114   1.0836   1.3330

     occupation numbers 
     1.0000   1.0000   1.0000   1.0000   1.0000   1.0000   1.0000   1.0000
     1.0000   1.0000   1.0000   1.0000   1.0000   1.0000   1.0000   1.0000
     1.0000   1.0000   1.0000   1.0000   1.0000   1.0000   1.0000   1.0000
     1.0000   1.0000   1.0000   1.0000   1.0000   1.0000   1.0000   1.0000
     1.0000   1.0000   1.0000   1.0000   1.0000   1.0000   1.0000

          k = 0.4762 0.0506 0.0000 ( 14629 PWs)   bands (ev):

   -34.7007 -34.7005 -34.7004 -34.7002 -34.6719 -34.6715 -34.6682 -34.6679
   -34.6580 -34.6577 -34.5930 -34.5859 -34.5788 -34.5462 -34.5454 -27.4664
   -27.4662 -27.4650 -27.4647 -27.4586 -27.4583 -27.4571 -27.4567 -27.4551
   -27.4546  -9.3528  -9.0335  -8.6178  -7.0392  -6.7901  -2.6155  -2.1601
    -1.4697  -1.4319  -0.9505  -0.4448   0.6528   1.0295   1.4278

     occupation numbers 
     1.0000   1.0000   1.0000   1.0000   1.0000   1.0000   1.0000   1.0000
     1.0000   1.0000   1.0000   1.0000   1.0000   1.0000   1.0000   1.0000
     1.0000   1.0000   1.0000   1.0000   1.0000   1.0000   1.0000   1.0000
     1.0000   1.0000   1.0000   1.0000   1.0000   1.0000   1.0000   1.0000
     1.0000   1.0000   1.0000   1.0000   1.0000   1.0000   1.0000

          k = 0.4762 0.1067 0.0000 ( 14641 PWs)   bands (ev):

   -34.7008 -34.7005 -34.7004 -34.7001 -34.6719 -34.6715 -34.6681 -34.6679
   -34.6580 -34.6577 -34.5930 -34.5859 -34.5788 -34.5462 -34.5454 -27.4667
   -27.4665 -27.4648 -27.4645 -27.4587 -27.4584 -27.4570 -27.4566 -27.4551
   -27.4544  -9.3156  -9.0213  -8.6591  -7.1171  -6.7507  -2.7746  -1.9137
    -1.5961  -1.3726  -0.7724  -0.3857   0.5524   0.9350   1.4898

     occupation numbers 
     1.0000   1.0000   1.0000   1.0000   1.0000   1.0000   1.0000   1.0000
     1.0000   1.0000   1.0000   1.0000   1.0000   1.0000   1.0000   1.0000
     1.0000   1.0000   1.0000   1.0000   1.0000   1.0000   1.0000   1.0000
     1.0000   1.0000   1.0000   1.0000   1.0000   1.0000   1.0000   1.0000
     1.0000   1.0000   1.0000   1.0000   1.0000   1.0000   1.0000

          k = 0.4762 0.1628 0.0000 ( 14628 PWs)   bands (ev):

   -34.7009 -34.7006 -34.7003 -34.7000 -34.6719 -34.6715 -34.6681 -34.6678
   -34.6580 -34.6577 -34.5930 -34.5859 -34.5788 -34.5463 -34.5453 -27.4671
   -27.4669 -27.4645 -27.4642 -27.4588 -27.4585 -27.4569 -27.4565 -27.4550
   -27.4542  -9.2531  -9.0004  -8.7200  -7.1954  -6.7258  -2.8976  -1.7599
    -1.5932  -1.2898  -0.6977  -0.2910   0.5240   0.8619   1.3668

     occupation numbers 
     1.0000   1.0000   1.0000   1.0000   1.0000   1.0000   1.0000   1.0000
     1.0000   1.0000   1.0000   1.0000   1.0000   1.0000   1.0000   1.0000
     1.0000   1.0000   1.0000   1.0000   1.0000   1.0000   1.0000   1.0000
     1.0000   1.0000   1.0000   1.0000   1.0000   1.0000   1.0000   1.0000
     1.0000   1.0000   1.0000   1.0000   1.0000   1.0000   1.0000

          k = 0.4762 0.2188 0.0000 ( 14655 PWs)   bands (ev):

   -34.7010 -34.7007 -34.7002 -34.6999 -34.6719 -34.6715 -34.6681 -34.6678
   -34.6580 -34.6577 -34.5930 -34.5859 -34.5788 -34.5464 -34.5453 -27.4674
   -27.4671 -27.4643 -27.4640 -27.4589 -27.4586 -27.4568 -27.4565 -27.4550
   -27.4541  -9.1685  -8.9748  -8.7944  -7.2600  -6.7207  -2.9824  -1.7362
    -1.4940  -1.2318  -0.6190  -0.2803   0.5552   0.8733   1.1521

     occupation numbers 
     1.0000   1.0000   1.0000   1.0000   1.0000   1.0000   1.0000   1.0000
     1.0000   1.0000   1.0000   1.0000   1.0000   1.0000   1.0000   1.0000
     1.0000   1.0000   1.0000   1.0000   1.0000   1.0000   1.0000   1.0000
     1.0000   1.0000   1.0000   1.0000   1.0000   1.0000   1.0000   1.0000
     1.0000   1.0000   1.0000   1.0000   1.0000   1.0000   1.0000

     highest occupied level (ev):     1.7507

!    total energy              =    -806.61812268 Ry
     estimated scf accuracy    <       0.00000003 Ry

     The total energy is the sum of the following terms:
     one-electron contribution =   -3389.96607130 Ry
     hartree contribution      =    1689.97886971 Ry
     xc contribution           =     -87.15231123 Ry
     ewald contribution        =     980.61955469 Ry
     Dispersion Correction     =      -0.09816455 Ry

     convergence has been achieved in  14 iterations

     Writing all to output data dir tmp/Sb2Te3-uatsx-c3-2.0.save/ :
     XML data file, charge density, pseudopotentials, collected wavefunctions

     init_run     :      8.52s CPU      4.93s WALL (       1 calls)
     electrons    :    467.77s CPU    239.69s WALL (       1 calls)

     Called by init_run:
     wfcinit      :      7.40s CPU      3.80s WALL (       1 calls)
     wfcinit:wfcr :      6.71s CPU      3.44s WALL (     221 calls)
     potinit      :      0.48s CPU      0.46s WALL (       1 calls)
     hinit0       :      0.55s CPU      0.56s WALL (       1 calls)

     Called by electrons:
     c_bands      :    420.61s CPU    215.50s WALL (      15 calls)
     sum_band     :     46.31s CPU     23.54s WALL (      15 calls)
     v_of_rho     :      0.64s CPU      0.45s WALL (      15 calls)
     v_h          :      0.06s CPU      0.05s WALL (      15 calls)
     v_xc         :      0.58s CPU      0.40s WALL (      15 calls)
     mix_rho      :      0.11s CPU      0.06s WALL (      15 calls)
     energy_londo :      0.01s CPU      0.01s WALL (       1 calls)

     Called by c_bands:
     init_us_2    :      4.57s CPU      2.71s WALL (    6851 calls)
     cegterg      :    405.08s CPU    206.88s WALL (    3315 calls)

     Called by sum_band:
     sum_band:wei :      0.00s CPU      0.00s WALL (      15 calls)
     sum_band:loo :     46.26s CPU     23.51s WALL (      15 calls)
     sum_band:buf :      0.47s CPU      0.27s WALL (    3315 calls)
     sum_band:ini :      2.37s CPU      1.26s WALL (    3315 calls)

     Called by *egterg:
     cdiaghg      :     74.06s CPU     40.51s WALL (   19741 calls)
     cegterg:over :     13.01s CPU      7.54s WALL (   16647 calls)
     cegterg:upda :     11.12s CPU      3.60s WALL (   16647 calls)
     cegterg:last :     10.95s CPU      4.80s WALL (    8625 calls)
     h_psi        :    292.55s CPU    146.88s WALL (   20183 calls)
     g_psi        :      1.01s CPU      0.93s WALL (   16647 calls)

     Called by h_psi:
     h_psi:calbec :     22.06s CPU      7.69s WALL (   20183 calls)
     vloc_psi     :    259.00s CPU    133.82s WALL (   20183 calls)
     add_vuspsi   :     10.54s CPU      4.75s WALL (   20183 calls)

     General routines
     calbec       :     21.98s CPU      7.64s WALL (   20183 calls)
     fft          :      1.06s CPU      0.95s WALL (     178 calls)
     ffts         :      0.44s CPU      0.43s WALL (      30 calls)
     fftw         :    253.99s CPU    130.66s WALL (  929845 calls)
     interpolate  :      0.47s CPU      0.46s WALL (      15 calls)

     Parallel routines

     PWSCF        :   7m59.81s CPU   4m29.21s WALL


   This run was terminated on:  20:22:24  14Aug2025            

=------------------------------------------------------------------------------=
   JOB DONE.
=------------------------------------------------------------------------------=
