
     Program PWSCF v.7.4.1 starts on 13Aug2025 at 15:16:56 

     This program is part of the open-source Quantum ESPRESSO suite
     for quantum simulation of materials; please cite
         "P. Giannozzi et al., J. Phys.:Condens. Matter 21 395502 (2009);
         "P. Giannozzi et al., J. Phys.:Condens. Matter 29 465901 (2017);
         "P. Giannozzi et al., J. Chem. Phys. 152 154105 (2020);
          URL http://www.quantum-espresso.org", 
     in publications or presentations arising from this work. More details at
     http://www.quantum-espresso.org/quote

     Parallel version (MPI & OpenMP), running on      48 processor cores
     Number of MPI processes:                24
     Threads/MPI process:                     2

     MPI processes distributed on     2 nodes
     123766 MiB available memory on the printing compute node when the environment starts

     Waiting for input...
     Reading input from standard input

     Current dimensions of program PWSCF are:
     Max number of different atomic species (ntypx) = 10
     Max number of k-points (npk) =  40000
     Max angular momentum in pseudopotentials (lmaxx) =  4

     IMPORTANT: XC functional enforced from input :
     Exchange-correlation= PBE
                           (   1   4   3   4   0   0   0)
     Any further DFT definition will be discarded
     Please, verify this is what you really want

     Message from routine setup:
     no reason to have ecutrho>4*ecutwfc

     R & G space division:  proc/nbgrp/npool/nimage =      24
     Subspace diagonalization in iterative solution of the eigenvalue problem:
     a serial algorithm will be used


     Parallelization info
     --------------------
     sticks:   dense  smooth     PW     G-vecs:    dense   smooth      PW
     Min          94      38     11                18908     4792     737
     Max          95      39     12                18933     4815     761
     Sum        2275     925    265               454177   115133   17989

     Using Slab Decomposition



     bravais-lattice index     =            0
     lattice parameter (alat)  =       8.1456  a.u.
     unit-cell volume          =    2407.5243 (a.u.)^3
     number of atoms/cell      =            5
     number of atomic types    =            2
     number of electrons       =        78.00
     number of Kohn-Sham states=           39
     kinetic-energy cutoff     =      50.0000  Ry
     charge density cutoff     =     500.0000  Ry
     scf convergence threshold =      1.0E-07
     mixing beta               =       0.7000
     number of iterations used =            8  plain     mixing
     Exchange-correlation= PBE
                           (   1   4   3   4   0   0   0)

     celldm(1)=   8.145633  celldm(2)=   0.000000  celldm(3)=   0.000000
     celldm(4)=   0.000000  celldm(5)=   0.000000  celldm(6)=   0.000000

     crystal axes: (cart. coord. in units of alat)
               a(1) = (   1.000000   0.000000   0.000000 )  
               a(2) = (  -0.500000   0.866351   0.000000 )  
               a(3) = (   0.000000   0.000000   5.141647 )  

     reciprocal axes: (cart. coord. in units 2 pi/alat)
               b(1) = (  1.000000  0.577133 -0.000000 )  
               b(2) = (  0.000000  1.154267  0.000000 )  
               b(3) = (  0.000000 -0.000000  0.194490 )  


     PseudoPot. # 1 for Sb read from file:
     /zfs-home/202401017n1/pseudos/Sb_ONCV_PBE-1.2.upf
     MD5 check sum: 0417cd6c0fe8ce4611e2b23135f1abd9
     Pseudo is Norm-conserving, Zval = 15.0
     Generated using ONCVPSP code by D. R. Hamann
     Using radial grid of  602 points,  6 beta functions with: 
                l(1) =   0
                l(2) =   0
                l(3) =   1
                l(4) =   1
                l(5) =   2
                l(6) =   2

     PseudoPot. # 2 for Te read from file:
     /zfs-home/202401017n1/pseudos/Te_ONCV_PBE-1.2.upf
     MD5 check sum: dd4de4dac1e38587f63aaf3700bb29d3
     Pseudo is Norm-conserving, Zval = 16.0
     Generated using ONCVPSP code by D. R. Hamann
     Using radial grid of  602 points,  6 beta functions with: 
                l(1) =   0
                l(2) =   0
                l(3) =   1
                l(4) =   1
                l(5) =   2
                l(6) =   2

     atomic species   valence    mass     pseudopotential
     Sb               15.00   121.76000     Sb( 1.00)
     Te               16.00   127.60000     Te( 1.00)

     No symmetry found


                                    s                        frac. trans.

      isym =  1     identity                                     

 cryst.   s( 1) = (     1          0          0      )
                  (     0          1          0      )
                  (     0          0          1      )

 cart.    s( 1) = (  1.0000000  0.0000000  0.0000000 )
                  (  0.0000000  1.0000000  0.0000000 )
                  (  0.0000000  0.0000000  1.0000000 )


   Cartesian axes

     site n.     atom                  positions (alat units)
         1        Sb     tau(   1) = (   0.5754431   0.4220521   3.0333851  )
         2        Te     tau(   2) = (   0.5747551   0.4223309   1.7144876  )
         3        Sb     tau(   3) = (   0.0752910   0.1326355   2.1082148  )
         4        Te     tau(   4) = (   0.0751205   0.1338578   3.4271228  )
         5        Te     tau(   5) = (   0.0748618   0.7114055   2.5708084  )

   Crystallographic axes

     site n.     atom                  positions (cryst. coord.)
         1        Sb     tau(   1) = (  0.8190235  0.4871607  0.5899637  )
         2        Te     tau(   2) = (  0.8184963  0.4874825  0.3334511  )
         3        Sb     tau(   3) = (  0.1518394  0.1530967  0.4100271  )
         4        Te     tau(   4) = (  0.1523743  0.1545076  0.6665418  )
         5        Te     tau(   5) = (  0.4854376  0.8211517  0.4999971  )

     number of k points=   221
                       cart. coord. in units 2pi/alat
        k(    1) = (   0.0000000   0.0000000   0.0000000), wk =   0.0045351
        k(    2) = (   0.0000000   0.0549651   0.0000000), wk =   0.0090703
        k(    3) = (   0.0000000   0.1099302   0.0000000), wk =   0.0090703
        k(    4) = (   0.0000000   0.1648952   0.0000000), wk =   0.0090703
        k(    5) = (   0.0000000   0.2198603   0.0000000), wk =   0.0090703
        k(    6) = (   0.0000000   0.2748254   0.0000000), wk =   0.0090703
        k(    7) = (   0.0000000   0.3297905   0.0000000), wk =   0.0090703
        k(    8) = (   0.0000000   0.3847556   0.0000000), wk =   0.0090703
        k(    9) = (   0.0000000   0.4397206   0.0000000), wk =   0.0090703
        k(   10) = (   0.0000000   0.4946857   0.0000000), wk =   0.0090703
        k(   11) = (   0.0000000   0.5496508   0.0000000), wk =   0.0090703
        k(   12) = (   0.0476190   0.0274825   0.0000000), wk =   0.0090703
        k(   13) = (   0.0476190   0.0824476   0.0000000), wk =   0.0090703
        k(   14) = (   0.0476190   0.1374127   0.0000000), wk =   0.0090703
        k(   15) = (   0.0476190   0.1923778   0.0000000), wk =   0.0090703
        k(   16) = (   0.0476190   0.2473429   0.0000000), wk =   0.0090703
        k(   17) = (   0.0476190   0.3023079   0.0000000), wk =   0.0090703
        k(   18) = (   0.0476190   0.3572730   0.0000000), wk =   0.0090703
        k(   19) = (   0.0476190   0.4122381   0.0000000), wk =   0.0090703
        k(   20) = (   0.0476190   0.4672032   0.0000000), wk =   0.0090703
        k(   21) = (   0.0476190   0.5221682   0.0000000), wk =   0.0090703
        k(   22) = (   0.0476190   0.5771333   0.0000000), wk =   0.0090703
        k(   23) = (   0.0952381   0.0549651   0.0000000), wk =   0.0090703
        k(   24) = (   0.0952381   0.1099302   0.0000000), wk =   0.0090703
        k(   25) = (   0.0952381   0.1648952   0.0000000), wk =   0.0090703
        k(   26) = (   0.0952381   0.2198603   0.0000000), wk =   0.0090703
        k(   27) = (   0.0952381   0.2748254   0.0000000), wk =   0.0090703
        k(   28) = (   0.0952381   0.3297905   0.0000000), wk =   0.0090703
        k(   29) = (   0.0952381   0.3847556   0.0000000), wk =   0.0090703
        k(   30) = (   0.0952381   0.4397206   0.0000000), wk =   0.0090703
        k(   31) = (   0.0952381   0.4946857   0.0000000), wk =   0.0090703
        k(   32) = (   0.0952381   0.5496508   0.0000000), wk =   0.0090703
        k(   33) = (   0.0952381  -0.0000000   0.0000000), wk =   0.0090703
        k(   34) = (   0.1428571   0.0824476   0.0000000), wk =   0.0090703
        k(   35) = (   0.1428571   0.1374127   0.0000000), wk =   0.0090703
        k(   36) = (   0.1428571   0.1923778   0.0000000), wk =   0.0090703
        k(   37) = (   0.1428571   0.2473429   0.0000000), wk =   0.0090703
        k(   38) = (   0.1428571   0.3023079   0.0000000), wk =   0.0090703
        k(   39) = (   0.1428571   0.3572730   0.0000000), wk =   0.0090703
        k(   40) = (   0.1428571   0.4122381   0.0000000), wk =   0.0090703
        k(   41) = (   0.1428571   0.4672032   0.0000000), wk =   0.0090703
        k(   42) = (   0.1428571   0.5221682   0.0000000), wk =   0.0090703
        k(   43) = (   0.1428571   0.5771333   0.0000000), wk =   0.0090703
        k(   44) = (   0.1428571  -0.0274825   0.0000000), wk =   0.0090703
        k(   45) = (   0.1904762   0.1099302   0.0000000), wk =   0.0090703
        k(   46) = (   0.1904762   0.1648952   0.0000000), wk =   0.0090703
        k(   47) = (   0.1904762   0.2198603   0.0000000), wk =   0.0090703
        k(   48) = (   0.1904762   0.2748254   0.0000000), wk =   0.0090703
        k(   49) = (   0.1904762   0.3297905   0.0000000), wk =   0.0090703
        k(   50) = (   0.1904762   0.3847556   0.0000000), wk =   0.0090703
        k(   51) = (   0.1904762   0.4397206   0.0000000), wk =   0.0090703
        k(   52) = (   0.1904762   0.4946857   0.0000000), wk =   0.0090703
        k(   53) = (   0.1904762   0.5496508   0.0000000), wk =   0.0090703
        k(   54) = (   0.1904762  -0.0549651   0.0000000), wk =   0.0090703
        k(   55) = (   0.1904762  -0.0000000   0.0000000), wk =   0.0090703
        k(   56) = (   0.2380952   0.1374127   0.0000000), wk =   0.0090703
        k(   57) = (   0.2380952   0.1923778   0.0000000), wk =   0.0090703
        k(   58) = (   0.2380952   0.2473429   0.0000000), wk =   0.0090703
        k(   59) = (   0.2380952   0.3023079   0.0000000), wk =   0.0090703
        k(   60) = (   0.2380952   0.3572730   0.0000000), wk =   0.0090703
        k(   61) = (   0.2380952   0.4122381   0.0000000), wk =   0.0090703
        k(   62) = (   0.2380952   0.4672032   0.0000000), wk =   0.0090703
        k(   63) = (   0.2380952   0.5221682   0.0000000), wk =   0.0090703
        k(   64) = (   0.2380952   0.5771333   0.0000000), wk =   0.0090703
        k(   65) = (   0.2380952  -0.0824476   0.0000000), wk =   0.0090703
        k(   66) = (   0.2380952  -0.0274825   0.0000000), wk =   0.0090703
        k(   67) = (   0.2857143   0.1648952   0.0000000), wk =   0.0090703
        k(   68) = (   0.2857143   0.2198603   0.0000000), wk =   0.0090703
        k(   69) = (   0.2857143   0.2748254   0.0000000), wk =   0.0090703
        k(   70) = (   0.2857143   0.3297905   0.0000000), wk =   0.0090703
        k(   71) = (   0.2857143   0.3847556   0.0000000), wk =   0.0090703
        k(   72) = (   0.2857143   0.4397206   0.0000000), wk =   0.0090703
        k(   73) = (   0.2857143   0.4946857   0.0000000), wk =   0.0090703
        k(   74) = (   0.2857143   0.5496508   0.0000000), wk =   0.0090703
        k(   75) = (   0.2857143  -0.1099302   0.0000000), wk =   0.0090703
        k(   76) = (   0.2857143  -0.0549651   0.0000000), wk =   0.0090703
        k(   77) = (   0.2857143  -0.0000000   0.0000000), wk =   0.0090703
        k(   78) = (   0.3333333   0.1923778   0.0000000), wk =   0.0090703
        k(   79) = (   0.3333333   0.2473429   0.0000000), wk =   0.0090703
        k(   80) = (   0.3333333   0.3023079   0.0000000), wk =   0.0090703
        k(   81) = (   0.3333333   0.3572730   0.0000000), wk =   0.0090703
        k(   82) = (   0.3333333   0.4122381   0.0000000), wk =   0.0090703
        k(   83) = (   0.3333333   0.4672032   0.0000000), wk =   0.0090703
        k(   84) = (   0.3333333   0.5221682   0.0000000), wk =   0.0090703
        k(   85) = (   0.3333333   0.5771333   0.0000000), wk =   0.0090703
        k(   86) = (   0.3333333  -0.1374127   0.0000000), wk =   0.0090703
        k(   87) = (   0.3333333  -0.0824476   0.0000000), wk =   0.0090703
        k(   88) = (   0.3333333  -0.0274825   0.0000000), wk =   0.0090703
        k(   89) = (   0.3809524   0.2198603   0.0000000), wk =   0.0090703
        k(   90) = (   0.3809524   0.2748254   0.0000000), wk =   0.0090703
        k(   91) = (   0.3809524   0.3297905   0.0000000), wk =   0.0090703
        k(   92) = (   0.3809524   0.3847556   0.0000000), wk =   0.0090703
        k(   93) = (   0.3809524   0.4397206   0.0000000), wk =   0.0090703
        k(   94) = (   0.3809524   0.4946857   0.0000000), wk =   0.0090703
        k(   95) = (   0.3809524   0.5496508   0.0000000), wk =   0.0090703
        k(   96) = (   0.3809524  -0.1648952   0.0000000), wk =   0.0090703
        k(   97) = (   0.3809524  -0.1099302   0.0000000), wk =   0.0090703
        k(   98) = (   0.3809524  -0.0549651   0.0000000), wk =   0.0090703
        k(   99) = (   0.3809524  -0.0000000   0.0000000), wk =   0.0090703
        k(  100) = (   0.4285714   0.2473429   0.0000000), wk =   0.0090703
        k(  101) = (   0.4285714   0.3023079   0.0000000), wk =   0.0090703
        k(  102) = (   0.4285714   0.3572730   0.0000000), wk =   0.0090703
        k(  103) = (   0.4285714   0.4122381   0.0000000), wk =   0.0090703
        k(  104) = (   0.4285714   0.4672032   0.0000000), wk =   0.0090703
        k(  105) = (   0.4285714   0.5221682   0.0000000), wk =   0.0090703
        k(  106) = (   0.4285714   0.5771333   0.0000000), wk =   0.0090703
        k(  107) = (   0.4285714  -0.1923778   0.0000000), wk =   0.0090703
        k(  108) = (   0.4285714  -0.1374127   0.0000000), wk =   0.0090703
        k(  109) = (   0.4285714  -0.0824476   0.0000000), wk =   0.0090703
        k(  110) = (   0.4285714  -0.0274825   0.0000000), wk =   0.0090703
        k(  111) = (   0.4761905   0.2748254   0.0000000), wk =   0.0090703
        k(  112) = (   0.4761905   0.3297905   0.0000000), wk =   0.0090703
        k(  113) = (   0.4761905   0.3847556   0.0000000), wk =   0.0090703
        k(  114) = (   0.4761905   0.4397206   0.0000000), wk =   0.0090703
        k(  115) = (   0.4761905   0.4946857   0.0000000), wk =   0.0090703
        k(  116) = (   0.4761905   0.5496508   0.0000000), wk =   0.0090703
        k(  117) = (   0.4761905  -0.2198603   0.0000000), wk =   0.0090703
        k(  118) = (   0.4761905  -0.1648952   0.0000000), wk =   0.0090703
        k(  119) = (   0.4761905  -0.1099302   0.0000000), wk =   0.0090703
        k(  120) = (   0.4761905  -0.0549651   0.0000000), wk =   0.0090703
        k(  121) = (   0.4761905  -0.0000000   0.0000000), wk =   0.0090703
        k(  122) = (  -0.0476190   0.0274825   0.0000000), wk =   0.0090703
        k(  123) = (  -0.0476190   0.0824476   0.0000000), wk =   0.0090703
        k(  124) = (  -0.0476190   0.1374127   0.0000000), wk =   0.0090703
        k(  125) = (  -0.0476190   0.1923778   0.0000000), wk =   0.0090703
        k(  126) = (  -0.0476190   0.2473429   0.0000000), wk =   0.0090703
        k(  127) = (  -0.0476190   0.3023079   0.0000000), wk =   0.0090703
        k(  128) = (  -0.0476190   0.3572730   0.0000000), wk =   0.0090703
        k(  129) = (  -0.0476190   0.4122381   0.0000000), wk =   0.0090703
        k(  130) = (  -0.0476190   0.4672032   0.0000000), wk =   0.0090703
        k(  131) = (  -0.0476190   0.5221682   0.0000000), wk =   0.0090703
        k(  132) = (  -0.0952381   0.0549651   0.0000000), wk =   0.0090703
        k(  133) = (  -0.0952381   0.1099302   0.0000000), wk =   0.0090703
        k(  134) = (  -0.0952381   0.1648952   0.0000000), wk =   0.0090703
        k(  135) = (  -0.0952381   0.2198603   0.0000000), wk =   0.0090703
        k(  136) = (  -0.0952381   0.2748254   0.0000000), wk =   0.0090703
        k(  137) = (  -0.0952381   0.3297905   0.0000000), wk =   0.0090703
        k(  138) = (  -0.0952381   0.3847556   0.0000000), wk =   0.0090703
        k(  139) = (  -0.0952381   0.4397206   0.0000000), wk =   0.0090703
        k(  140) = (  -0.0952381   0.4946857   0.0000000), wk =   0.0090703
        k(  141) = (  -0.0952381   0.5496508   0.0000000), wk =   0.0090703
        k(  142) = (  -0.1428571   0.0824476   0.0000000), wk =   0.0090703
        k(  143) = (  -0.1428571   0.1374127   0.0000000), wk =   0.0090703
        k(  144) = (  -0.1428571   0.1923778   0.0000000), wk =   0.0090703
        k(  145) = (  -0.1428571   0.2473429   0.0000000), wk =   0.0090703
        k(  146) = (  -0.1428571   0.3023079   0.0000000), wk =   0.0090703
        k(  147) = (  -0.1428571   0.3572730   0.0000000), wk =   0.0090703
        k(  148) = (  -0.1428571   0.4122381   0.0000000), wk =   0.0090703
        k(  149) = (  -0.1428571   0.4672032   0.0000000), wk =   0.0090703
        k(  150) = (  -0.1428571   0.5221682   0.0000000), wk =   0.0090703
        k(  151) = (  -0.1428571  -0.0274825   0.0000000), wk =   0.0090703
        k(  152) = (  -0.1904762   0.1099302   0.0000000), wk =   0.0090703
        k(  153) = (  -0.1904762   0.1648952   0.0000000), wk =   0.0090703
        k(  154) = (  -0.1904762   0.2198603   0.0000000), wk =   0.0090703
        k(  155) = (  -0.1904762   0.2748254   0.0000000), wk =   0.0090703
        k(  156) = (  -0.1904762   0.3297905   0.0000000), wk =   0.0090703
        k(  157) = (  -0.1904762   0.3847556   0.0000000), wk =   0.0090703
        k(  158) = (  -0.1904762   0.4397206   0.0000000), wk =   0.0090703
        k(  159) = (  -0.1904762   0.4946857   0.0000000), wk =   0.0090703
        k(  160) = (  -0.1904762   0.5496508   0.0000000), wk =   0.0090703
        k(  161) = (  -0.1904762  -0.0549651   0.0000000), wk =   0.0090703
        k(  162) = (  -0.2380952   0.1374127   0.0000000), wk =   0.0090703
        k(  163) = (  -0.2380952   0.1923778   0.0000000), wk =   0.0090703
        k(  164) = (  -0.2380952   0.2473429   0.0000000), wk =   0.0090703
        k(  165) = (  -0.2380952   0.3023079   0.0000000), wk =   0.0090703
        k(  166) = (  -0.2380952   0.3572730   0.0000000), wk =   0.0090703
        k(  167) = (  -0.2380952   0.4122381   0.0000000), wk =   0.0090703
        k(  168) = (  -0.2380952   0.4672032   0.0000000), wk =   0.0090703
        k(  169) = (  -0.2380952   0.5221682   0.0000000), wk =   0.0090703
        k(  170) = (  -0.2380952  -0.0824476   0.0000000), wk =   0.0090703
        k(  171) = (  -0.2380952  -0.0274825   0.0000000), wk =   0.0090703
        k(  172) = (  -0.2857143   0.1648952   0.0000000), wk =   0.0090703
        k(  173) = (  -0.2857143   0.2198603   0.0000000), wk =   0.0090703
        k(  174) = (  -0.2857143   0.2748254   0.0000000), wk =   0.0090703
        k(  175) = (  -0.2857143   0.3297905   0.0000000), wk =   0.0090703
        k(  176) = (  -0.2857143   0.3847556   0.0000000), wk =   0.0090703
        k(  177) = (  -0.2857143   0.4397206   0.0000000), wk =   0.0090703
        k(  178) = (  -0.2857143   0.4946857   0.0000000), wk =   0.0090703
        k(  179) = (  -0.2857143   0.5496508   0.0000000), wk =   0.0090703
        k(  180) = (  -0.2857143  -0.1099302   0.0000000), wk =   0.0090703
        k(  181) = (  -0.2857143  -0.0549651   0.0000000), wk =   0.0090703
        k(  182) = (  -0.3333333   0.1923778   0.0000000), wk =   0.0090703
        k(  183) = (  -0.3333333   0.2473429   0.0000000), wk =   0.0090703
        k(  184) = (  -0.3333333   0.3023079   0.0000000), wk =   0.0090703
        k(  185) = (  -0.3333333   0.3572730   0.0000000), wk =   0.0090703
        k(  186) = (  -0.3333333   0.4122381   0.0000000), wk =   0.0090703
        k(  187) = (  -0.3333333   0.4672032   0.0000000), wk =   0.0090703
        k(  188) = (  -0.3333333   0.5221682   0.0000000), wk =   0.0090703
        k(  189) = (  -0.3333333  -0.1374127   0.0000000), wk =   0.0090703
        k(  190) = (  -0.3333333  -0.0824476   0.0000000), wk =   0.0090703
        k(  191) = (  -0.3333333  -0.0274825   0.0000000), wk =   0.0090703
        k(  192) = (  -0.3809524   0.2198603   0.0000000), wk =   0.0090703
        k(  193) = (  -0.3809524   0.2748254   0.0000000), wk =   0.0090703
        k(  194) = (  -0.3809524   0.3297905   0.0000000), wk =   0.0090703
        k(  195) = (  -0.3809524   0.3847556   0.0000000), wk =   0.0090703
        k(  196) = (  -0.3809524   0.4397206   0.0000000), wk =   0.0090703
        k(  197) = (  -0.3809524   0.4946857   0.0000000), wk =   0.0090703
        k(  198) = (  -0.3809524   0.5496508   0.0000000), wk =   0.0090703
        k(  199) = (  -0.3809524  -0.1648952   0.0000000), wk =   0.0090703
        k(  200) = (  -0.3809524  -0.1099302   0.0000000), wk =   0.0090703
        k(  201) = (  -0.3809524  -0.0549651   0.0000000), wk =   0.0090703
        k(  202) = (  -0.4285714   0.2473429   0.0000000), wk =   0.0090703
        k(  203) = (  -0.4285714   0.3023079   0.0000000), wk =   0.0090703
        k(  204) = (  -0.4285714   0.3572730   0.0000000), wk =   0.0090703
        k(  205) = (  -0.4285714   0.4122381   0.0000000), wk =   0.0090703
        k(  206) = (  -0.4285714   0.4672032   0.0000000), wk =   0.0090703
        k(  207) = (  -0.4285714   0.5221682   0.0000000), wk =   0.0090703
        k(  208) = (  -0.4285714  -0.1923778   0.0000000), wk =   0.0090703
        k(  209) = (  -0.4285714  -0.1374127   0.0000000), wk =   0.0090703
        k(  210) = (  -0.4285714  -0.0824476   0.0000000), wk =   0.0090703
        k(  211) = (  -0.4285714  -0.0274825   0.0000000), wk =   0.0090703
        k(  212) = (  -0.4761905   0.2748254   0.0000000), wk =   0.0090703
        k(  213) = (  -0.4761905   0.3297905   0.0000000), wk =   0.0090703
        k(  214) = (  -0.4761905   0.3847556   0.0000000), wk =   0.0090703
        k(  215) = (  -0.4761905   0.4397206   0.0000000), wk =   0.0090703
        k(  216) = (  -0.4761905   0.4946857   0.0000000), wk =   0.0090703
        k(  217) = (  -0.4761905   0.5496508   0.0000000), wk =   0.0090703
        k(  218) = (  -0.4761905  -0.2198603   0.0000000), wk =   0.0090703
        k(  219) = (  -0.4761905  -0.1648952   0.0000000), wk =   0.0090703
        k(  220) = (  -0.4761905  -0.1099302   0.0000000), wk =   0.0090703
        k(  221) = (  -0.4761905  -0.0549651   0.0000000), wk =   0.0090703

                       cryst. coord.
        k(    1) = (   0.0000000   0.0000000   0.0000000), wk =   0.0045351
        k(    2) = (   0.0000000   0.0476190   0.0000000), wk =   0.0090703
        k(    3) = (   0.0000000   0.0952381   0.0000000), wk =   0.0090703
        k(    4) = (   0.0000000   0.1428571   0.0000000), wk =   0.0090703
        k(    5) = (   0.0000000   0.1904762   0.0000000), wk =   0.0090703
        k(    6) = (   0.0000000   0.2380952   0.0000000), wk =   0.0090703
        k(    7) = (   0.0000000   0.2857143   0.0000000), wk =   0.0090703
        k(    8) = (   0.0000000   0.3333333   0.0000000), wk =   0.0090703
        k(    9) = (   0.0000000   0.3809524   0.0000000), wk =   0.0090703
        k(   10) = (   0.0000000   0.4285714   0.0000000), wk =   0.0090703
        k(   11) = (   0.0000000   0.4761905   0.0000000), wk =   0.0090703
        k(   12) = (   0.0476190   0.0000000   0.0000000), wk =   0.0090703
        k(   13) = (   0.0476190   0.0476190   0.0000000), wk =   0.0090703
        k(   14) = (   0.0476190   0.0952381   0.0000000), wk =   0.0090703
        k(   15) = (   0.0476190   0.1428571   0.0000000), wk =   0.0090703
        k(   16) = (   0.0476190   0.1904762   0.0000000), wk =   0.0090703
        k(   17) = (   0.0476190   0.2380952   0.0000000), wk =   0.0090703
        k(   18) = (   0.0476190   0.2857143   0.0000000), wk =   0.0090703
        k(   19) = (   0.0476190   0.3333333   0.0000000), wk =   0.0090703
        k(   20) = (   0.0476190   0.3809524   0.0000000), wk =   0.0090703
        k(   21) = (   0.0476190   0.4285714   0.0000000), wk =   0.0090703
        k(   22) = (   0.0476190   0.4761905   0.0000000), wk =   0.0090703
        k(   23) = (   0.0952381   0.0000000   0.0000000), wk =   0.0090703
        k(   24) = (   0.0952381   0.0476190   0.0000000), wk =   0.0090703
        k(   25) = (   0.0952381   0.0952381   0.0000000), wk =   0.0090703
        k(   26) = (   0.0952381   0.1428571   0.0000000), wk =   0.0090703
        k(   27) = (   0.0952381   0.1904762   0.0000000), wk =   0.0090703
        k(   28) = (   0.0952381   0.2380952   0.0000000), wk =   0.0090703
        k(   29) = (   0.0952381   0.2857143   0.0000000), wk =   0.0090703
        k(   30) = (   0.0952381   0.3333333   0.0000000), wk =   0.0090703
        k(   31) = (   0.0952381   0.3809524   0.0000000), wk =   0.0090703
        k(   32) = (   0.0952381   0.4285714   0.0000000), wk =   0.0090703
        k(   33) = (   0.0952381  -0.0476190   0.0000000), wk =   0.0090703
        k(   34) = (   0.1428571   0.0000000   0.0000000), wk =   0.0090703
        k(   35) = (   0.1428571   0.0476190   0.0000000), wk =   0.0090703
        k(   36) = (   0.1428571   0.0952381   0.0000000), wk =   0.0090703
        k(   37) = (   0.1428571   0.1428571   0.0000000), wk =   0.0090703
        k(   38) = (   0.1428571   0.1904762   0.0000000), wk =   0.0090703
        k(   39) = (   0.1428571   0.2380952   0.0000000), wk =   0.0090703
        k(   40) = (   0.1428571   0.2857143   0.0000000), wk =   0.0090703
        k(   41) = (   0.1428571   0.3333333   0.0000000), wk =   0.0090703
        k(   42) = (   0.1428571   0.3809524   0.0000000), wk =   0.0090703
        k(   43) = (   0.1428571   0.4285714   0.0000000), wk =   0.0090703
        k(   44) = (   0.1428571  -0.0952381   0.0000000), wk =   0.0090703
        k(   45) = (   0.1904762   0.0000000   0.0000000), wk =   0.0090703
        k(   46) = (   0.1904762   0.0476190   0.0000000), wk =   0.0090703
        k(   47) = (   0.1904762   0.0952381   0.0000000), wk =   0.0090703
        k(   48) = (   0.1904762   0.1428571   0.0000000), wk =   0.0090703
        k(   49) = (   0.1904762   0.1904762   0.0000000), wk =   0.0090703
        k(   50) = (   0.1904762   0.2380952   0.0000000), wk =   0.0090703
        k(   51) = (   0.1904762   0.2857143   0.0000000), wk =   0.0090703
        k(   52) = (   0.1904762   0.3333333   0.0000000), wk =   0.0090703
        k(   53) = (   0.1904762   0.3809524   0.0000000), wk =   0.0090703
        k(   54) = (   0.1904762  -0.1428571   0.0000000), wk =   0.0090703
        k(   55) = (   0.1904762  -0.0952381   0.0000000), wk =   0.0090703
        k(   56) = (   0.2380952   0.0000000   0.0000000), wk =   0.0090703
        k(   57) = (   0.2380952   0.0476190   0.0000000), wk =   0.0090703
        k(   58) = (   0.2380952   0.0952381   0.0000000), wk =   0.0090703
        k(   59) = (   0.2380952   0.1428571   0.0000000), wk =   0.0090703
        k(   60) = (   0.2380952   0.1904762   0.0000000), wk =   0.0090703
        k(   61) = (   0.2380952   0.2380952   0.0000000), wk =   0.0090703
        k(   62) = (   0.2380952   0.2857143   0.0000000), wk =   0.0090703
        k(   63) = (   0.2380952   0.3333333   0.0000000), wk =   0.0090703
        k(   64) = (   0.2380952   0.3809524   0.0000000), wk =   0.0090703
        k(   65) = (   0.2380952  -0.1904762   0.0000000), wk =   0.0090703
        k(   66) = (   0.2380952  -0.1428571   0.0000000), wk =   0.0090703
        k(   67) = (   0.2857143   0.0000000   0.0000000), wk =   0.0090703
        k(   68) = (   0.2857143   0.0476190   0.0000000), wk =   0.0090703
        k(   69) = (   0.2857143   0.0952381   0.0000000), wk =   0.0090703
        k(   70) = (   0.2857143   0.1428571   0.0000000), wk =   0.0090703
        k(   71) = (   0.2857143   0.1904762   0.0000000), wk =   0.0090703
        k(   72) = (   0.2857143   0.2380952   0.0000000), wk =   0.0090703
        k(   73) = (   0.2857143   0.2857143   0.0000000), wk =   0.0090703
        k(   74) = (   0.2857143   0.3333333   0.0000000), wk =   0.0090703
        k(   75) = (   0.2857143  -0.2380952   0.0000000), wk =   0.0090703
        k(   76) = (   0.2857143  -0.1904762   0.0000000), wk =   0.0090703
        k(   77) = (   0.2857143  -0.1428571   0.0000000), wk =   0.0090703
        k(   78) = (   0.3333333   0.0000000   0.0000000), wk =   0.0090703
        k(   79) = (   0.3333333   0.0476190   0.0000000), wk =   0.0090703
        k(   80) = (   0.3333333   0.0952381   0.0000000), wk =   0.0090703
        k(   81) = (   0.3333333   0.1428571   0.0000000), wk =   0.0090703
        k(   82) = (   0.3333333   0.1904762   0.0000000), wk =   0.0090703
        k(   83) = (   0.3333333   0.2380952   0.0000000), wk =   0.0090703
        k(   84) = (   0.3333333   0.2857143   0.0000000), wk =   0.0090703
        k(   85) = (   0.3333333   0.3333333   0.0000000), wk =   0.0090703
        k(   86) = (   0.3333333  -0.2857143   0.0000000), wk =   0.0090703
        k(   87) = (   0.3333333  -0.2380952   0.0000000), wk =   0.0090703
        k(   88) = (   0.3333333  -0.1904762   0.0000000), wk =   0.0090703
        k(   89) = (   0.3809524   0.0000000   0.0000000), wk =   0.0090703
        k(   90) = (   0.3809524   0.0476190   0.0000000), wk =   0.0090703
        k(   91) = (   0.3809524   0.0952381   0.0000000), wk =   0.0090703
        k(   92) = (   0.3809524   0.1428571   0.0000000), wk =   0.0090703
        k(   93) = (   0.3809524   0.1904762   0.0000000), wk =   0.0090703
        k(   94) = (   0.3809524   0.2380952   0.0000000), wk =   0.0090703
        k(   95) = (   0.3809524   0.2857143   0.0000000), wk =   0.0090703
        k(   96) = (   0.3809524  -0.3333333   0.0000000), wk =   0.0090703
        k(   97) = (   0.3809524  -0.2857143   0.0000000), wk =   0.0090703
        k(   98) = (   0.3809524  -0.2380952   0.0000000), wk =   0.0090703
        k(   99) = (   0.3809524  -0.1904762   0.0000000), wk =   0.0090703
        k(  100) = (   0.4285714   0.0000000   0.0000000), wk =   0.0090703
        k(  101) = (   0.4285714   0.0476190   0.0000000), wk =   0.0090703
        k(  102) = (   0.4285714   0.0952381   0.0000000), wk =   0.0090703
        k(  103) = (   0.4285714   0.1428571   0.0000000), wk =   0.0090703
        k(  104) = (   0.4285714   0.1904762   0.0000000), wk =   0.0090703
        k(  105) = (   0.4285714   0.2380952   0.0000000), wk =   0.0090703
        k(  106) = (   0.4285714   0.2857143   0.0000000), wk =   0.0090703
        k(  107) = (   0.4285714  -0.3809524   0.0000000), wk =   0.0090703
        k(  108) = (   0.4285714  -0.3333333   0.0000000), wk =   0.0090703
        k(  109) = (   0.4285714  -0.2857143   0.0000000), wk =   0.0090703
        k(  110) = (   0.4285714  -0.2380952   0.0000000), wk =   0.0090703
        k(  111) = (   0.4761905   0.0000000   0.0000000), wk =   0.0090703
        k(  112) = (   0.4761905   0.0476190   0.0000000), wk =   0.0090703
        k(  113) = (   0.4761905   0.0952381   0.0000000), wk =   0.0090703
        k(  114) = (   0.4761905   0.1428571   0.0000000), wk =   0.0090703
        k(  115) = (   0.4761905   0.1904762   0.0000000), wk =   0.0090703
        k(  116) = (   0.4761905   0.2380952   0.0000000), wk =   0.0090703
        k(  117) = (   0.4761905  -0.4285714   0.0000000), wk =   0.0090703
        k(  118) = (   0.4761905  -0.3809524   0.0000000), wk =   0.0090703
        k(  119) = (   0.4761905  -0.3333333   0.0000000), wk =   0.0090703
        k(  120) = (   0.4761905  -0.2857143   0.0000000), wk =   0.0090703
        k(  121) = (   0.4761905  -0.2380952   0.0000000), wk =   0.0090703
        k(  122) = (  -0.0476190   0.0476190   0.0000000), wk =   0.0090703
        k(  123) = (  -0.0476190   0.0952381   0.0000000), wk =   0.0090703
        k(  124) = (  -0.0476190   0.1428571   0.0000000), wk =   0.0090703
        k(  125) = (  -0.0476190   0.1904762   0.0000000), wk =   0.0090703
        k(  126) = (  -0.0476190   0.2380952   0.0000000), wk =   0.0090703
        k(  127) = (  -0.0476190   0.2857143   0.0000000), wk =   0.0090703
        k(  128) = (  -0.0476190   0.3333333   0.0000000), wk =   0.0090703
        k(  129) = (  -0.0476190   0.3809524   0.0000000), wk =   0.0090703
        k(  130) = (  -0.0476190   0.4285714   0.0000000), wk =   0.0090703
        k(  131) = (  -0.0476190   0.4761905   0.0000000), wk =   0.0090703
        k(  132) = (  -0.0952381   0.0952381   0.0000000), wk =   0.0090703
        k(  133) = (  -0.0952381   0.1428571   0.0000000), wk =   0.0090703
        k(  134) = (  -0.0952381   0.1904762   0.0000000), wk =   0.0090703
        k(  135) = (  -0.0952381   0.2380952   0.0000000), wk =   0.0090703
        k(  136) = (  -0.0952381   0.2857143   0.0000000), wk =   0.0090703
        k(  137) = (  -0.0952381   0.3333333   0.0000000), wk =   0.0090703
        k(  138) = (  -0.0952381   0.3809524   0.0000000), wk =   0.0090703
        k(  139) = (  -0.0952381   0.4285714   0.0000000), wk =   0.0090703
        k(  140) = (  -0.0952381   0.4761905   0.0000000), wk =   0.0090703
        k(  141) = (  -0.0952381   0.5238095   0.0000000), wk =   0.0090703
        k(  142) = (  -0.1428571   0.1428571   0.0000000), wk =   0.0090703
        k(  143) = (  -0.1428571   0.1904762   0.0000000), wk =   0.0090703
        k(  144) = (  -0.1428571   0.2380952   0.0000000), wk =   0.0090703
        k(  145) = (  -0.1428571   0.2857143   0.0000000), wk =   0.0090703
        k(  146) = (  -0.1428571   0.3333333   0.0000000), wk =   0.0090703
        k(  147) = (  -0.1428571   0.3809524   0.0000000), wk =   0.0090703
        k(  148) = (  -0.1428571   0.4285714   0.0000000), wk =   0.0090703
        k(  149) = (  -0.1428571   0.4761905   0.0000000), wk =   0.0090703
        k(  150) = (  -0.1428571   0.5238095   0.0000000), wk =   0.0090703
        k(  151) = (  -0.1428571   0.0476190   0.0000000), wk =   0.0090703
        k(  152) = (  -0.1904762   0.1904762   0.0000000), wk =   0.0090703
        k(  153) = (  -0.1904762   0.2380952   0.0000000), wk =   0.0090703
        k(  154) = (  -0.1904762   0.2857143   0.0000000), wk =   0.0090703
        k(  155) = (  -0.1904762   0.3333333   0.0000000), wk =   0.0090703
        k(  156) = (  -0.1904762   0.3809524   0.0000000), wk =   0.0090703
        k(  157) = (  -0.1904762   0.4285714   0.0000000), wk =   0.0090703
        k(  158) = (  -0.1904762   0.4761905   0.0000000), wk =   0.0090703
        k(  159) = (  -0.1904762   0.5238095   0.0000000), wk =   0.0090703
        k(  160) = (  -0.1904762   0.5714286   0.0000000), wk =   0.0090703
        k(  161) = (  -0.1904762   0.0476190   0.0000000), wk =   0.0090703
        k(  162) = (  -0.2380952   0.2380952   0.0000000), wk =   0.0090703
        k(  163) = (  -0.2380952   0.2857143   0.0000000), wk =   0.0090703
        k(  164) = (  -0.2380952   0.3333333   0.0000000), wk =   0.0090703
        k(  165) = (  -0.2380952   0.3809524   0.0000000), wk =   0.0090703
        k(  166) = (  -0.2380952   0.4285714   0.0000000), wk =   0.0090703
        k(  167) = (  -0.2380952   0.4761905   0.0000000), wk =   0.0090703
        k(  168) = (  -0.2380952   0.5238095   0.0000000), wk =   0.0090703
        k(  169) = (  -0.2380952   0.5714286   0.0000000), wk =   0.0090703
        k(  170) = (  -0.2380952   0.0476190   0.0000000), wk =   0.0090703
        k(  171) = (  -0.2380952   0.0952381   0.0000000), wk =   0.0090703
        k(  172) = (  -0.2857143   0.2857143   0.0000000), wk =   0.0090703
        k(  173) = (  -0.2857143   0.3333333   0.0000000), wk =   0.0090703
        k(  174) = (  -0.2857143   0.3809524   0.0000000), wk =   0.0090703
        k(  175) = (  -0.2857143   0.4285714   0.0000000), wk =   0.0090703
        k(  176) = (  -0.2857143   0.4761905   0.0000000), wk =   0.0090703
        k(  177) = (  -0.2857143   0.5238095   0.0000000), wk =   0.0090703
        k(  178) = (  -0.2857143   0.5714286   0.0000000), wk =   0.0090703
        k(  179) = (  -0.2857143   0.6190476   0.0000000), wk =   0.0090703
        k(  180) = (  -0.2857143   0.0476190   0.0000000), wk =   0.0090703
        k(  181) = (  -0.2857143   0.0952381   0.0000000), wk =   0.0090703
        k(  182) = (  -0.3333333   0.3333333   0.0000000), wk =   0.0090703
        k(  183) = (  -0.3333333   0.3809524   0.0000000), wk =   0.0090703
        k(  184) = (  -0.3333333   0.4285714   0.0000000), wk =   0.0090703
        k(  185) = (  -0.3333333   0.4761905   0.0000000), wk =   0.0090703
        k(  186) = (  -0.3333333   0.5238095   0.0000000), wk =   0.0090703
        k(  187) = (  -0.3333333   0.5714286   0.0000000), wk =   0.0090703
        k(  188) = (  -0.3333333   0.6190476   0.0000000), wk =   0.0090703
        k(  189) = (  -0.3333333   0.0476190   0.0000000), wk =   0.0090703
        k(  190) = (  -0.3333333   0.0952381   0.0000000), wk =   0.0090703
        k(  191) = (  -0.3333333   0.1428571   0.0000000), wk =   0.0090703
        k(  192) = (  -0.3809524   0.3809524   0.0000000), wk =   0.0090703
        k(  193) = (  -0.3809524   0.4285714   0.0000000), wk =   0.0090703
        k(  194) = (  -0.3809524   0.4761905   0.0000000), wk =   0.0090703
        k(  195) = (  -0.3809524   0.5238095   0.0000000), wk =   0.0090703
        k(  196) = (  -0.3809524   0.5714286   0.0000000), wk =   0.0090703
        k(  197) = (  -0.3809524   0.6190476   0.0000000), wk =   0.0090703
        k(  198) = (  -0.3809524   0.6666667   0.0000000), wk =   0.0090703
        k(  199) = (  -0.3809524   0.0476190   0.0000000), wk =   0.0090703
        k(  200) = (  -0.3809524   0.0952381   0.0000000), wk =   0.0090703
        k(  201) = (  -0.3809524   0.1428571   0.0000000), wk =   0.0090703
        k(  202) = (  -0.4285714   0.4285714   0.0000000), wk =   0.0090703
        k(  203) = (  -0.4285714   0.4761905   0.0000000), wk =   0.0090703
        k(  204) = (  -0.4285714   0.5238095   0.0000000), wk =   0.0090703
        k(  205) = (  -0.4285714   0.5714286   0.0000000), wk =   0.0090703
        k(  206) = (  -0.4285714   0.6190476   0.0000000), wk =   0.0090703
        k(  207) = (  -0.4285714   0.6666667   0.0000000), wk =   0.0090703
        k(  208) = (  -0.4285714   0.0476190   0.0000000), wk =   0.0090703
        k(  209) = (  -0.4285714   0.0952381   0.0000000), wk =   0.0090703
        k(  210) = (  -0.4285714   0.1428571   0.0000000), wk =   0.0090703
        k(  211) = (  -0.4285714   0.1904762   0.0000000), wk =   0.0090703
        k(  212) = (  -0.4761905   0.4761905   0.0000000), wk =   0.0090703
        k(  213) = (  -0.4761905   0.5238095   0.0000000), wk =   0.0090703
        k(  214) = (  -0.4761905   0.5714286   0.0000000), wk =   0.0090703
        k(  215) = (  -0.4761905   0.6190476   0.0000000), wk =   0.0090703
        k(  216) = (  -0.4761905   0.6666667   0.0000000), wk =   0.0090703
        k(  217) = (  -0.4761905   0.7142857   0.0000000), wk =   0.0090703
        k(  218) = (  -0.4761905   0.0476190   0.0000000), wk =   0.0090703
        k(  219) = (  -0.4761905   0.0952381   0.0000000), wk =   0.0090703
        k(  220) = (  -0.4761905   0.1428571   0.0000000), wk =   0.0090703
        k(  221) = (  -0.4761905   0.1904762   0.0000000), wk =   0.0090703

     Dense  grid:   454177 G-vectors     FFT dimensions: (  60,  60, 300)

     Smooth grid:   115133 G-vectors     FFT dimensions: (  40,  40, 192)

     Dynamical RAM for                 wfc:       0.36 MB

     Dynamical RAM for     wfc (w. buffer):      79.00 MB

     Dynamical RAM for           str. fact:       0.58 MB

     Dynamical RAM for           local pot:       0.00 MB

     Dynamical RAM for          nlocal pot:       0.82 MB

     Dynamical RAM for                qrad:       3.59 MB

     Dynamical RAM for          rho,v,vnew:       1.94 MB

     Dynamical RAM for               rhoin:       0.65 MB

     Dynamical RAM for            rho*nmix:       4.62 MB

     Dynamical RAM for           G-vectors:       1.12 MB

     Dynamical RAM for          h,s,v(r/c):       0.28 MB

     Dynamical RAM for          <psi|beta>:       0.05 MB

     Dynamical RAM for                 psi:       0.71 MB

     Dynamical RAM for                hpsi:       0.71 MB

     Dynamical RAM for      wfcinit/wfcrot:       0.75 MB

     Estimated static dynamical RAM per process >      90.34 MB

     Estimated max dynamical RAM per process >      96.72 MB

     Estimated total dynamical RAM >       2.27 GB

     Initial potential from superposition of free atoms

     starting charge      77.7638, renormalised to      78.0000

     negative rho (up, down):  3.806E-04 0.000E+00
     Starting wfcs are random

     total cpu time spent up to now is        5.0 secs

     Self-consistent Calculation

     iteration #  1     ecut=    50.00 Ry     beta= 0.70
     Davidson diagonalization with overlap

---- Real-time Memory Report at c_bands before calling an iterative solver
           278 MiB given to the printing process from OS
             0 MiB allocation reported by mallinfo(arena+hblkhd)
        122601 MiB available memory on the node where the printing process lives
------------------
     ethr =  1.00E-02,  avg # of iterations = 10.9

     Threshold (ethr) on eigenvalues was too large:
     Diagonalizing with lowered threshold

     Davidson diagonalization with overlap

---- Real-time Memory Report at c_bands before calling an iterative solver
           281 MiB given to the printing process from OS
             0 MiB allocation reported by mallinfo(arena+hblkhd)
        122578 MiB available memory on the node where the printing process lives
------------------
     ethr =  1.18E-04,  avg # of iterations =  5.9

     negative rho (up, down):  1.595E-05 0.000E+00

     total cpu time spent up to now is       64.3 secs

     total energy              =    -806.48526668 Ry
     estimated scf accuracy    <       0.08030166 Ry

     iteration #  2     ecut=    50.00 Ry     beta= 0.70
     Davidson diagonalization with overlap

---- Real-time Memory Report at c_bands before calling an iterative solver
           286 MiB given to the printing process from OS
             0 MiB allocation reported by mallinfo(arena+hblkhd)
        122515 MiB available memory on the node where the printing process lives
------------------
     ethr =  1.03E-04,  avg # of iterations =  5.2

     negative rho (up, down):  2.528E-05 0.000E+00

     total cpu time spent up to now is       80.9 secs

     total energy              =    -806.44065620 Ry
     estimated scf accuracy    <       0.43303487 Ry

     iteration #  3     ecut=    50.00 Ry     beta= 0.70
     Davidson diagonalization with overlap

---- Real-time Memory Report at c_bands before calling an iterative solver
           286 MiB given to the printing process from OS
             0 MiB allocation reported by mallinfo(arena+hblkhd)
        122509 MiB available memory on the node where the printing process lives
------------------
     ethr =  1.03E-04,  avg # of iterations =  5.2

     negative rho (up, down):  2.105E-05 0.000E+00

     total cpu time spent up to now is       96.7 secs

     total energy              =    -806.49582975 Ry
     estimated scf accuracy    <       0.22606883 Ry

     iteration #  4     ecut=    50.00 Ry     beta= 0.70
     Davidson diagonalization with overlap

---- Real-time Memory Report at c_bands before calling an iterative solver
           286 MiB given to the printing process from OS
             0 MiB allocation reported by mallinfo(arena+hblkhd)
        122508 MiB available memory on the node where the printing process lives
------------------
     ethr =  1.03E-04,  avg # of iterations =  3.3

     negative rho (up, down):  2.267E-06 0.000E+00

     total cpu time spent up to now is      109.5 secs

     total energy              =    -806.51954187 Ry
     estimated scf accuracy    <       0.00310970 Ry

     iteration #  5     ecut=    50.00 Ry     beta= 0.70
     Davidson diagonalization with overlap

---- Real-time Memory Report at c_bands before calling an iterative solver
           286 MiB given to the printing process from OS
             0 MiB allocation reported by mallinfo(arena+hblkhd)
        122505 MiB available memory on the node where the printing process lives
------------------
     ethr =  3.99E-06,  avg # of iterations =  5.5

     negative rho (up, down):  2.192E-06 0.000E+00

     total cpu time spent up to now is      124.9 secs

     total energy              =    -806.52007537 Ry
     estimated scf accuracy    <       0.00804963 Ry

     iteration #  6     ecut=    50.00 Ry     beta= 0.70
     Davidson diagonalization with overlap

---- Real-time Memory Report at c_bands before calling an iterative solver
           287 MiB given to the printing process from OS
             0 MiB allocation reported by mallinfo(arena+hblkhd)
        122504 MiB available memory on the node where the printing process lives
------------------
     ethr =  3.99E-06,  avg # of iterations =  5.7

     negative rho (up, down):  1.124E-08 0.000E+00

     total cpu time spent up to now is      138.2 secs

     total energy              =    -806.52027083 Ry
     estimated scf accuracy    <       0.00435918 Ry

     iteration #  7     ecut=    50.00 Ry     beta= 0.70
     Davidson diagonalization with overlap

---- Real-time Memory Report at c_bands before calling an iterative solver
           287 MiB given to the printing process from OS
             0 MiB allocation reported by mallinfo(arena+hblkhd)
        122501 MiB available memory on the node where the printing process lives
------------------
     ethr =  3.99E-06,  avg # of iterations =  3.3

     total cpu time spent up to now is      150.0 secs

     total energy              =    -806.52052614 Ry
     estimated scf accuracy    <       0.00027610 Ry

     iteration #  8     ecut=    50.00 Ry     beta= 0.70
     Davidson diagonalization with overlap

---- Real-time Memory Report at c_bands before calling an iterative solver
           287 MiB given to the printing process from OS
             0 MiB allocation reported by mallinfo(arena+hblkhd)
        122499 MiB available memory on the node where the printing process lives
------------------
     ethr =  3.54E-07,  avg # of iterations =  5.8

     total cpu time spent up to now is      164.3 secs

     total energy              =    -806.52057500 Ry
     estimated scf accuracy    <       0.00013872 Ry

     iteration #  9     ecut=    50.00 Ry     beta= 0.70
     Davidson diagonalization with overlap

---- Real-time Memory Report at c_bands before calling an iterative solver
           287 MiB given to the printing process from OS
             0 MiB allocation reported by mallinfo(arena+hblkhd)
        122498 MiB available memory on the node where the printing process lives
------------------
     ethr =  1.78E-07,  avg # of iterations =  2.0

     total cpu time spent up to now is      174.9 secs

     total energy              =    -806.52057035 Ry
     estimated scf accuracy    <       0.00005882 Ry

     iteration # 10     ecut=    50.00 Ry     beta= 0.70
     Davidson diagonalization with overlap

---- Real-time Memory Report at c_bands before calling an iterative solver
           287 MiB given to the printing process from OS
             0 MiB allocation reported by mallinfo(arena+hblkhd)
        122496 MiB available memory on the node where the printing process lives
------------------
     ethr =  7.54E-08,  avg # of iterations =  4.4

     total cpu time spent up to now is      187.5 secs

     total energy              =    -806.52057730 Ry
     estimated scf accuracy    <       0.00000066 Ry

     iteration # 11     ecut=    50.00 Ry     beta= 0.70
     Davidson diagonalization with overlap

---- Real-time Memory Report at c_bands before calling an iterative solver
           287 MiB given to the printing process from OS
             0 MiB allocation reported by mallinfo(arena+hblkhd)
        122492 MiB available memory on the node where the printing process lives
------------------
     ethr =  8.49E-10,  avg # of iterations =  5.9

     total cpu time spent up to now is      203.1 secs

     total energy              =    -806.52057708 Ry
     estimated scf accuracy    <       0.00000490 Ry

     iteration # 12     ecut=    50.00 Ry     beta= 0.70
     Davidson diagonalization with overlap

---- Real-time Memory Report at c_bands before calling an iterative solver
           288 MiB given to the printing process from OS
             0 MiB allocation reported by mallinfo(arena+hblkhd)
        122492 MiB available memory on the node where the printing process lives
------------------
     ethr =  8.49E-10,  avg # of iterations =  5.6

     total cpu time spent up to now is      217.2 secs

     End of self-consistent calculation

          k = 0.0000 0.0000 0.0000 ( 14301 PWs)   bands (ev):

   -34.5643 -34.5642 -34.5641 -34.5640 -34.5374 -34.5373 -34.5363 -34.5360
   -34.5267 -34.5266 -34.4628 -34.4508 -34.4505 -34.4117 -34.4117 -27.3134
   -27.3133 -27.3130 -27.3129 -27.3044 -27.3039 -27.3014 -27.3013 -27.3010
   -27.3009 -10.6080 -10.0693  -8.9739  -6.1945  -4.7426  -0.1094   0.3756
     0.3778   0.5923   0.5967   0.9279   1.1919   1.1935   1.4947

     occupation numbers 
     1.0000   1.0000   1.0000   1.0000   1.0000   1.0000   1.0000   1.0000
     1.0000   1.0000   1.0000   1.0000   1.0000   1.0000   1.0000   1.0000
     1.0000   1.0000   1.0000   1.0000   1.0000   1.0000   1.0000   1.0000
     1.0000   1.0000   1.0000   1.0000   1.0000   1.0000   1.0000   1.0000
     1.0000   1.0000   1.0000   1.0000   1.0000   1.0000   1.0000

          k = 0.0000 0.0550 0.0000 ( 14319 PWs)   bands (ev):

   -34.5642 -34.5642 -34.5641 -34.5640 -34.5374 -34.5373 -34.5363 -34.5360
   -34.5267 -34.5266 -34.4628 -34.4508 -34.4505 -34.4117 -34.4116 -27.3134
   -27.3132 -27.3129 -27.3129 -27.3044 -27.3039 -27.3015 -27.3014 -27.3010
   -27.3010 -10.5879 -10.0508  -8.9622  -6.1959  -4.7748  -0.1555   0.1565
     0.2922   0.3988   0.5714   0.9009   1.1957   1.2197   1.6951

     occupation numbers 
     1.0000   1.0000   1.0000   1.0000   1.0000   1.0000   1.0000   1.0000
     1.0000   1.0000   1.0000   1.0000   1.0000   1.0000   1.0000   1.0000
     1.0000   1.0000   1.0000   1.0000   1.0000   1.0000   1.0000   1.0000
     1.0000   1.0000   1.0000   1.0000   1.0000   1.0000   1.0000   1.0000
     1.0000   1.0000   1.0000   1.0000   1.0000   1.0000   1.0000

          k = 0.0000 0.1099 0.0000 ( 14350 PWs)   bands (ev):

   -34.5642 -34.5642 -34.5641 -34.5639 -34.5374 -34.5373 -34.5364 -34.5360
   -34.5267 -34.5265 -34.4627 -34.4508 -34.4506 -34.4117 -34.4115 -27.3134
   -27.3130 -27.3129 -27.3126 -27.3043 -27.3037 -27.3018 -27.3015 -27.3012
   -27.3010 -10.5281  -9.9956  -8.9278  -6.2021  -4.8720  -0.4522  -0.1222
     0.1024   0.1430   0.4798   0.5270   1.2661   1.4749   1.8266

     occupation numbers 
     1.0000   1.0000   1.0000   1.0000   1.0000   1.0000   1.0000   1.0000
     1.0000   1.0000   1.0000   1.0000   1.0000   1.0000   1.0000   1.0000
     1.0000   1.0000   1.0000   1.0000   1.0000   1.0000   1.0000   1.0000
     1.0000   1.0000   1.0000   1.0000   1.0000   1.0000   1.0000   1.0000
     1.0000   1.0000   1.0000   1.0000   1.0000   1.0000   1.0000

          k = 0.0000 0.1649 0.0000 ( 14326 PWs)   bands (ev):

   -34.5641 -34.5641 -34.5640 -34.5637 -34.5375 -34.5373 -34.5364 -34.5360
   -34.5266 -34.5264 -34.4626 -34.4509 -34.4506 -34.4117 -34.4114 -27.3135
   -27.3130 -27.3125 -27.3122 -27.3040 -27.3035 -27.3021 -27.3016 -27.3015
   -27.3010 -10.4290  -9.9048  -8.8732  -6.2193  -5.0333  -0.9420  -0.3574
    -0.1442  -0.1233   0.2963   0.3349   1.2882   1.5437   1.7424

     occupation numbers 
     1.0000   1.0000   1.0000   1.0000   1.0000   1.0000   1.0000   1.0000
     1.0000   1.0000   1.0000   1.0000   1.0000   1.0000   1.0000   1.0000
     1.0000   1.0000   1.0000   1.0000   1.0000   1.0000   1.0000   1.0000
     1.0000   1.0000   1.0000   1.0000   1.0000   1.0000   1.0000   1.0000
     1.0000   1.0000   1.0000   1.0000   1.0000   1.0000   1.0000

          k = 0.0000 0.2199 0.0000 ( 14352 PWs)   bands (ev):

   -34.5641 -34.5641 -34.5638 -34.5636 -34.5375 -34.5373 -34.5364 -34.5360
   -34.5265 -34.5264 -34.4625 -34.4509 -34.4507 -34.4117 -34.4112 -27.3135
   -27.3131 -27.3120 -27.3117 -27.3038 -27.3033 -27.3026 -27.3018 -27.3017
   -27.3010 -10.2922  -9.7809  -8.8030  -6.2585  -5.2535  -1.4275  -0.6092
    -0.5114  -0.3520   0.1657   0.2794   1.1545   1.2720   1.8855

     occupation numbers 
     1.0000   1.0000   1.0000   1.0000   1.0000   1.0000   1.0000   1.0000
     1.0000   1.0000   1.0000   1.0000   1.0000   1.0000   1.0000   1.0000
     1.0000   1.0000   1.0000   1.0000   1.0000   1.0000   1.0000   1.0000
     1.0000   1.0000   1.0000   1.0000   1.0000   1.0000   1.0000   1.0000
     1.0000   1.0000   1.0000   1.0000   1.0000   1.0000   1.0000

          k = 0.0000 0.2748 0.0000 ( 14358 PWs)   bands (ev):

   -34.5641 -34.5641 -34.5636 -34.5633 -34.5376 -34.5374 -34.5365 -34.5360
   -34.5264 -34.5262 -34.4624 -34.4509 -34.4507 -34.4116 -34.4110 -27.3136
   -27.3132 -27.3114 -27.3111 -27.3035 -27.3031 -27.3029 -27.3022 -27.3018
   -27.3010 -10.1196  -9.6274  -8.7243  -6.3334  -5.5181  -1.8609  -0.9709
    -0.7022  -0.5654  -0.0054   0.2981   0.7927   1.2256   1.8584

     occupation numbers 
     1.0000   1.0000   1.0000   1.0000   1.0000   1.0000   1.0000   1.0000
     1.0000   1.0000   1.0000   1.0000   1.0000   1.0000   1.0000   1.0000
     1.0000   1.0000   1.0000   1.0000   1.0000   1.0000   1.0000   1.0000
     1.0000   1.0000   1.0000   1.0000   1.0000   1.0000   1.0000   1.0000
     1.0000   1.0000   1.0000   1.0000   1.0000   1.0000   1.0000

          k = 0.0000 0.3298 0.0000 ( 14366 PWs)   bands (ev):

   -34.5641 -34.5641 -34.5633 -34.5631 -34.5376 -34.5374 -34.5365 -34.5360
   -34.5263 -34.5261 -34.4623 -34.4509 -34.4508 -34.4116 -34.4108 -27.3137
   -27.3133 -27.3108 -27.3105 -27.3036 -27.3033 -27.3027 -27.3023 -27.3019
   -27.3010  -9.9147  -9.4500  -8.6478  -6.4576  -5.8027  -2.2245  -1.2966
    -0.8240  -0.7535  -0.1633   0.2189   0.5916   1.1634   1.6931

     occupation numbers 
     1.0000   1.0000   1.0000   1.0000   1.0000   1.0000   1.0000   1.0000
     1.0000   1.0000   1.0000   1.0000   1.0000   1.0000   1.0000   1.0000
     1.0000   1.0000   1.0000   1.0000   1.0000   1.0000   1.0000   1.0000
     1.0000   1.0000   1.0000   1.0000   1.0000   1.0000   1.0000   1.0000
     1.0000   1.0000   1.0000   1.0000   1.0000   1.0000   1.0000

          k = 0.0000 0.3848 0.0000 ( 14390 PWs)   bands (ev):

   -34.5641 -34.5640 -34.5631 -34.5629 -34.5377 -34.5374 -34.5366 -34.5360
   -34.5262 -34.5260 -34.4622 -34.4509 -34.4509 -34.4116 -34.4106 -27.3138
   -27.3134 -27.3102 -27.3099 -27.3040 -27.3035 -27.3025 -27.3021 -27.3020
   -27.3010  -9.6825  -9.2582  -8.5891  -6.6357  -6.0760  -2.5148  -1.5341
    -0.9351  -0.9097  -0.2983   0.0177   0.5899   1.0991   1.4814

     occupation numbers 
     1.0000   1.0000   1.0000   1.0000   1.0000   1.0000   1.0000   1.0000
     1.0000   1.0000   1.0000   1.0000   1.0000   1.0000   1.0000   1.0000
     1.0000   1.0000   1.0000   1.0000   1.0000   1.0000   1.0000   1.0000
     1.0000   1.0000   1.0000   1.0000   1.0000   1.0000   1.0000   1.0000
     1.0000   1.0000   1.0000   1.0000   1.0000   1.0000   1.0000

          k = 0.0000 0.4397 0.0000 ( 14392 PWs)   bands (ev):

   -34.5640 -34.5640 -34.5630 -34.5627 -34.5377 -34.5374 -34.5366 -34.5361
   -34.5261 -34.5259 -34.4622 -34.4509 -34.4509 -34.4116 -34.4104 -27.3139
   -27.3135 -27.3097 -27.3094 -27.3044 -27.3038 -27.3022 -27.3021 -27.3019
   -27.3011  -9.4313  -9.0675  -8.5694  -6.8473  -6.3113  -2.7355  -1.6646
    -1.0761  -1.0299  -0.4041  -0.1304   0.6241   1.0428   1.2919

     occupation numbers 
     1.0000   1.0000   1.0000   1.0000   1.0000   1.0000   1.0000   1.0000
     1.0000   1.0000   1.0000   1.0000   1.0000   1.0000   1.0000   1.0000
     1.0000   1.0000   1.0000   1.0000   1.0000   1.0000   1.0000   1.0000
     1.0000   1.0000   1.0000   1.0000   1.0000   1.0000   1.0000   1.0000
     1.0000   1.0000   1.0000   1.0000   1.0000   1.0000   1.0000

          k = 0.0000 0.4947 0.0000 ( 14400 PWs)   bands (ev):

   -34.5640 -34.5640 -34.5628 -34.5626 -34.5377 -34.5374 -34.5366 -34.5361
   -34.5260 -34.5259 -34.4621 -34.4510 -34.4510 -34.4116 -34.4103 -27.3140
   -27.3136 -27.3094 -27.3091 -27.3046 -27.3040 -27.3022 -27.3020 -27.3017
   -27.3011  -9.1744  -8.9037  -8.6131  -7.0423  -6.4888  -2.8875  -1.6879
    -1.2520  -1.1114  -0.4766  -0.1885   0.6329   1.0016   1.1674

     occupation numbers 
     1.0000   1.0000   1.0000   1.0000   1.0000   1.0000   1.0000   1.0000
     1.0000   1.0000   1.0000   1.0000   1.0000   1.0000   1.0000   1.0000
     1.0000   1.0000   1.0000   1.0000   1.0000   1.0000   1.0000   1.0000
     1.0000   1.0000   1.0000   1.0000   1.0000   1.0000   1.0000   1.0000
     1.0000   1.0000   1.0000   1.0000   1.0000   1.0000   1.0000

          k = 0.0000 0.5497 0.0000 ( 14406 PWs)   bands (ev):

   -34.5640 -34.5640 -34.5628 -34.5626 -34.5378 -34.5374 -34.5367 -34.5361
   -34.5260 -34.5259 -34.4621 -34.4510 -34.4510 -34.4116 -34.4102 -27.3141
   -27.3136 -27.3092 -27.3089 -27.3048 -27.3041 -27.3022 -27.3019 -27.3015
   -27.3011  -8.9331  -8.8044  -8.7366  -7.1609  -6.5867  -2.9663  -1.6311
    -1.4158  -1.1526  -0.5134  -0.1972   0.6191   0.9800   1.1164

     occupation numbers 
     1.0000   1.0000   1.0000   1.0000   1.0000   1.0000   1.0000   1.0000
     1.0000   1.0000   1.0000   1.0000   1.0000   1.0000   1.0000   1.0000
     1.0000   1.0000   1.0000   1.0000   1.0000   1.0000   1.0000   1.0000
     1.0000   1.0000   1.0000   1.0000   1.0000   1.0000   1.0000   1.0000
     1.0000   1.0000   1.0000   1.0000   1.0000   1.0000   1.0000

          k = 0.0476 0.0275 0.0000 ( 14315 PWs)   bands (ev):

   -34.5642 -34.5642 -34.5641 -34.5640 -34.5374 -34.5373 -34.5363 -34.5360
   -34.5267 -34.5266 -34.4628 -34.4508 -34.4505 -34.4117 -34.4116 -27.3134
   -27.3132 -27.3130 -27.3128 -27.3044 -27.3039 -27.3015 -27.3014 -27.3010
   -27.3010 -10.5879 -10.0508  -8.9622  -6.1959  -4.7748  -0.1558   0.1563
     0.2931   0.4001   0.5695   0.9020   1.1949   1.2187   1.6958

     occupation numbers 
     1.0000   1.0000   1.0000   1.0000   1.0000   1.0000   1.0000   1.0000
     1.0000   1.0000   1.0000   1.0000   1.0000   1.0000   1.0000   1.0000
     1.0000   1.0000   1.0000   1.0000   1.0000   1.0000   1.0000   1.0000
     1.0000   1.0000   1.0000   1.0000   1.0000   1.0000   1.0000   1.0000
     1.0000   1.0000   1.0000   1.0000   1.0000   1.0000   1.0000

          k = 0.0476 0.0824 0.0000 ( 14323 PWs)   bands (ev):

   -34.5642 -34.5642 -34.5641 -34.5639 -34.5374 -34.5373 -34.5364 -34.5360
   -34.5267 -34.5265 -34.4627 -34.4508 -34.4506 -34.4117 -34.4116 -27.3134
   -27.3130 -27.3129 -27.3127 -27.3043 -27.3038 -27.3017 -27.3015 -27.3011
   -27.3010 -10.5479 -10.0139  -8.9391  -6.1996  -4.8396  -0.3230  -0.0624
     0.0794   0.2985   0.3941   0.7814   1.1399   1.4357   1.8410

     occupation numbers 
     1.0000   1.0000   1.0000   1.0000   1.0000   1.0000   1.0000   1.0000
     1.0000   1.0000   1.0000   1.0000   1.0000   1.0000   1.0000   1.0000
     1.0000   1.0000   1.0000   1.0000   1.0000   1.0000   1.0000   1.0000
     1.0000   1.0000   1.0000   1.0000   1.0000   1.0000   1.0000   1.0000
     1.0000   1.0000   1.0000   1.0000   1.0000   1.0000   1.0000

          k = 0.0476 0.1374 0.0000 ( 14347 PWs)   bands (ev):

   -34.5641 -34.5641 -34.5640 -34.5638 -34.5375 -34.5373 -34.5364 -34.5360
   -34.5266 -34.5265 -34.4627 -34.4509 -34.4506 -34.4117 -34.4115 -27.3134
   -27.3130 -27.3127 -27.3124 -27.3041 -27.3036 -27.3020 -27.3016 -27.3013
   -27.3010 -10.4685  -9.9409  -8.8945  -6.2112  -4.9692  -0.7237  -0.3265
    -0.1135  -0.0124   0.3174   0.5617   1.1091   1.6922   1.7658

     occupation numbers 
     1.0000   1.0000   1.0000   1.0000   1.0000   1.0000   1.0000   1.0000
     1.0000   1.0000   1.0000   1.0000   1.0000   1.0000   1.0000   1.0000
     1.0000   1.0000   1.0000   1.0000   1.0000   1.0000   1.0000   1.0000
     1.0000   1.0000   1.0000   1.0000   1.0000   1.0000   1.0000   1.0000
     1.0000   1.0000   1.0000   1.0000   1.0000   1.0000   1.0000

          k = 0.0476 0.1924 0.0000 ( 14344 PWs)   bands (ev):

   -34.5641 -34.5641 -34.5639 -34.5636 -34.5375 -34.5373 -34.5364 -34.5360
   -34.5265 -34.5264 -34.4626 -34.4509 -34.4507 -34.4117 -34.4113 -27.3135
   -27.3130 -27.3122 -27.3119 -27.3039 -27.3034 -27.3024 -27.3018 -27.3015
   -27.3010 -10.3505  -9.8335  -8.8320  -6.2389  -5.1607  -1.1962  -0.5804
    -0.4712  -0.1540   0.1836   0.3515   1.0946   1.4998   1.8649

     occupation numbers 
     1.0000   1.0000   1.0000   1.0000   1.0000   1.0000   1.0000   1.0000
     1.0000   1.0000   1.0000   1.0000   1.0000   1.0000   1.0000   1.0000
     1.0000   1.0000   1.0000   1.0000   1.0000   1.0000   1.0000   1.0000
     1.0000   1.0000   1.0000   1.0000   1.0000   1.0000   1.0000   1.0000
     1.0000   1.0000   1.0000   1.0000   1.0000   1.0000   1.0000

          k = 0.0476 0.2473 0.0000 ( 14345 PWs)   bands (ev):

   -34.5641 -34.5641 -34.5637 -34.5634 -34.5376 -34.5374 -34.5365 -34.5360
   -34.5264 -34.5263 -34.4625 -34.4509 -34.4507 -34.4116 -34.4111 -27.3135
   -27.3131 -27.3117 -27.3114 -27.3036 -27.3031 -27.3028 -27.3021 -27.3017
   -27.3010 -10.1957  -9.6946  -8.7571  -6.2951  -5.4050  -1.6463  -0.9103
    -0.6748  -0.3744  -0.0366   0.3145   0.9843   1.2533   1.9039

     occupation numbers 
     1.0000   1.0000   1.0000   1.0000   1.0000   1.0000   1.0000   1.0000
     1.0000   1.0000   1.0000   1.0000   1.0000   1.0000   1.0000   1.0000
     1.0000   1.0000   1.0000   1.0000   1.0000   1.0000   1.0000   1.0000
     1.0000   1.0000   1.0000   1.0000   1.0000   1.0000   1.0000   1.0000
     1.0000   1.0000   1.0000   1.0000   1.0000   1.0000   1.0000

          k = 0.0476 0.3023 0.0000 ( 14378 PWs)   bands (ev):

   -34.5641 -34.5641 -34.5635 -34.5632 -34.5376 -34.5374 -34.5365 -34.5360
   -34.5263 -34.5262 -34.4624 -34.4509 -34.4508 -34.4116 -34.4109 -27.3136
   -27.3132 -27.3111 -27.3108 -27.3035 -27.3032 -27.3028 -27.3023 -27.3018
   -27.3011 -10.0068  -9.5287  -8.6785  -6.3934  -5.6826  -2.0409  -1.2173
    -0.8218  -0.6128  -0.2207   0.2926   0.7674   1.1322   1.8148

     occupation numbers 
     1.0000   1.0000   1.0000   1.0000   1.0000   1.0000   1.0000   1.0000
     1.0000   1.0000   1.0000   1.0000   1.0000   1.0000   1.0000   1.0000
     1.0000   1.0000   1.0000   1.0000   1.0000   1.0000   1.0000   1.0000
     1.0000   1.0000   1.0000   1.0000   1.0000   1.0000   1.0000   1.0000
     1.0000   1.0000   1.0000   1.0000   1.0000   1.0000   1.0000

          k = 0.0476 0.3573 0.0000 ( 14406 PWs)   bands (ev):

   -34.5640 -34.5640 -34.5633 -34.5630 -34.5377 -34.5374 -34.5366 -34.5360
   -34.5262 -34.5261 -34.4623 -34.4509 -34.4508 -34.4116 -34.4107 -27.3137
   -27.3133 -27.3105 -27.3102 -27.3038 -27.3034 -27.3026 -27.3023 -27.3020
   -27.3011  -9.7879  -9.3432  -8.6091  -6.5444  -5.9653  -2.3667  -1.4593
    -0.9692  -0.8075  -0.3527   0.1778   0.6339   1.0611   1.6487

     occupation numbers 
     1.0000   1.0000   1.0000   1.0000   1.0000   1.0000   1.0000   1.0000
     1.0000   1.0000   1.0000   1.0000   1.0000   1.0000   1.0000   1.0000
     1.0000   1.0000   1.0000   1.0000   1.0000   1.0000   1.0000   1.0000
     1.0000   1.0000   1.0000   1.0000   1.0000   1.0000   1.0000   1.0000
     1.0000   1.0000   1.0000   1.0000   1.0000   1.0000   1.0000

          k = 0.0476 0.4122 0.0000 ( 14405 PWs)   bands (ev):

   -34.5640 -34.5640 -34.5631 -34.5628 -34.5377 -34.5374 -34.5366 -34.5360
   -34.5261 -34.5260 -34.4622 -34.4509 -34.4509 -34.4116 -34.4105 -27.3138
   -27.3134 -27.3100 -27.3097 -27.3042 -27.3036 -27.3024 -27.3021 -27.3019
   -27.3011  -9.5454  -9.1501  -8.5668  -6.7425  -6.2223  -2.6219  -1.6165
    -1.1290  -0.9525  -0.4388  -0.0012   0.6104   1.0113   1.4670

     occupation numbers 
     1.0000   1.0000   1.0000   1.0000   1.0000   1.0000   1.0000   1.0000
     1.0000   1.0000   1.0000   1.0000   1.0000   1.0000   1.0000   1.0000
     1.0000   1.0000   1.0000   1.0000   1.0000   1.0000   1.0000   1.0000
     1.0000   1.0000   1.0000   1.0000   1.0000   1.0000   1.0000   1.0000
     1.0000   1.0000   1.0000   1.0000   1.0000   1.0000   1.0000

          k = 0.0476 0.4672 0.0000 ( 14387 PWs)   bands (ev):

   -34.5640 -34.5640 -34.5629 -34.5627 -34.5377 -34.5374 -34.5366 -34.5361
   -34.5260 -34.5259 -34.4621 -34.4510 -34.4509 -34.4116 -34.4103 -27.3139
   -27.3135 -27.3096 -27.3093 -27.3045 -27.3039 -27.3022 -27.3021 -27.3017
   -27.3011  -9.2900  -8.9694  -8.5750  -6.9527  -6.4308  -2.8080  -1.6807
    -1.2775  -1.0757  -0.5023  -0.1304   0.6137   0.9749   1.3168

     occupation numbers 
     1.0000   1.0000   1.0000   1.0000   1.0000   1.0000   1.0000   1.0000
     1.0000   1.0000   1.0000   1.0000   1.0000   1.0000   1.0000   1.0000
     1.0000   1.0000   1.0000   1.0000   1.0000   1.0000   1.0000   1.0000
     1.0000   1.0000   1.0000   1.0000   1.0000   1.0000   1.0000   1.0000
     1.0000   1.0000   1.0000   1.0000   1.0000   1.0000   1.0000

          k = 0.0476 0.5222 0.0000 ( 14412 PWs)   bands (ev):

   -34.5640 -34.5640 -34.5628 -34.5626 -34.5378 -34.5374 -34.5367 -34.5361
   -34.5260 -34.5259 -34.4621 -34.4510 -34.4510 -34.4116 -34.4102 -27.3140
   -27.3135 -27.3093 -27.3090 -27.3047 -27.3041 -27.3023 -27.3020 -27.3016
   -27.3011  -9.0386  -8.8331  -8.6563  -7.1165  -6.5712  -2.9231  -1.6625
    -1.4095  -1.1669  -0.5553  -0.1815   0.6174   0.9413   1.2296

     occupation numbers 
     1.0000   1.0000   1.0000   1.0000   1.0000   1.0000   1.0000   1.0000
     1.0000   1.0000   1.0000   1.0000   1.0000   1.0000   1.0000   1.0000
     1.0000   1.0000   1.0000   1.0000   1.0000   1.0000   1.0000   1.0000
     1.0000   1.0000   1.0000   1.0000   1.0000   1.0000   1.0000   1.0000
     1.0000   1.0000   1.0000   1.0000   1.0000   1.0000   1.0000

          k = 0.0476 0.5771 0.0000 ( 14412 PWs)   bands (ev):

   -34.5640 -34.5640 -34.5628 -34.5626 -34.5378 -34.5374 -34.5367 -34.5361
   -34.5260 -34.5258 -34.4621 -34.4510 -34.4510 -34.4116 -34.4102 -27.3140
   -27.3135 -27.3092 -27.3089 -27.3048 -27.3041 -27.3023 -27.3019 -27.3015
   -27.3011  -8.8194  -8.8156  -8.7802  -7.1790  -6.6215  -2.9623  -1.6186
    -1.4889  -1.2006  -0.5771  -0.1910   0.6188   0.9240   1.2046

     occupation numbers 
     1.0000   1.0000   1.0000   1.0000   1.0000   1.0000   1.0000   1.0000
     1.0000   1.0000   1.0000   1.0000   1.0000   1.0000   1.0000   1.0000
     1.0000   1.0000   1.0000   1.0000   1.0000   1.0000   1.0000   1.0000
     1.0000   1.0000   1.0000   1.0000   1.0000   1.0000   1.0000   1.0000
     1.0000   1.0000   1.0000   1.0000   1.0000   1.0000   1.0000

          k = 0.0952 0.0550 0.0000 ( 14348 PWs)   bands (ev):

   -34.5642 -34.5641 -34.5640 -34.5639 -34.5374 -34.5373 -34.5364 -34.5360
   -34.5267 -34.5265 -34.4627 -34.4509 -34.4506 -34.4117 -34.4115 -27.3134
   -27.3130 -27.3130 -27.3126 -27.3042 -27.3037 -27.3017 -27.3015 -27.3012
   -27.3010 -10.5280  -9.9955  -8.9277  -6.2019  -4.8722  -0.4531  -0.1210
     0.1025   0.1444   0.4778   0.5268   1.2653   1.4743   1.8275

     occupation numbers 
     1.0000   1.0000   1.0000   1.0000   1.0000   1.0000   1.0000   1.0000
     1.0000   1.0000   1.0000   1.0000   1.0000   1.0000   1.0000   1.0000
     1.0000   1.0000   1.0000   1.0000   1.0000   1.0000   1.0000   1.0000
     1.0000   1.0000   1.0000   1.0000   1.0000   1.0000   1.0000   1.0000
     1.0000   1.0000   1.0000   1.0000   1.0000   1.0000   1.0000

          k = 0.0952 0.1099 0.0000 ( 14347 PWs)   bands (ev):

   -34.5641 -34.5641 -34.5640 -34.5638 -34.5375 -34.5373 -34.5364 -34.5360
   -34.5266 -34.5265 -34.4627 -34.4509 -34.4506 -34.4117 -34.4115 -27.3134
   -27.3130 -27.3127 -27.3124 -27.3041 -27.3036 -27.3019 -27.3016 -27.3013
   -27.3010 -10.4684  -9.9409  -8.8945  -6.2110  -4.9693  -0.7240  -0.3255
    -0.1128  -0.0130   0.3161   0.5618   1.1086   1.6909   1.7674

     occupation numbers 
     1.0000   1.0000   1.0000   1.0000   1.0000   1.0000   1.0000   1.0000
     1.0000   1.0000   1.0000   1.0000   1.0000   1.0000   1.0000   1.0000
     1.0000   1.0000   1.0000   1.0000   1.0000   1.0000   1.0000   1.0000
     1.0000   1.0000   1.0000   1.0000   1.0000   1.0000   1.0000   1.0000
     1.0000   1.0000   1.0000   1.0000   1.0000   1.0000   1.0000

          k = 0.0952 0.1649 0.0000 ( 14335 PWs)   bands (ev):

   -34.5641 -34.5641 -34.5639 -34.5637 -34.5375 -34.5373 -34.5364 -34.5360
   -34.5266 -34.5264 -34.4626 -34.4509 -34.4506 -34.4117 -34.4113 -27.3134
   -27.3130 -27.3123 -27.3120 -27.3039 -27.3034 -27.3022 -27.3019 -27.3013
   -27.3011 -10.3699  -9.8512  -8.8418  -6.2327  -5.1296  -1.0565  -0.6900
    -0.3881  -0.1428   0.1838   0.5383   0.8873   1.7129   1.8599

     occupation numbers 
     1.0000   1.0000   1.0000   1.0000   1.0000   1.0000   1.0000   1.0000
     1.0000   1.0000   1.0000   1.0000   1.0000   1.0000   1.0000   1.0000
     1.0000   1.0000   1.0000   1.0000   1.0000   1.0000   1.0000   1.0000
     1.0000   1.0000   1.0000   1.0000   1.0000   1.0000   1.0000   1.0000
     1.0000   1.0000   1.0000   1.0000   1.0000   1.0000   1.0000

          k = 0.0952 0.2199 0.0000 ( 14348 PWs)   bands (ev):

   -34.5641 -34.5641 -34.5637 -34.5635 -34.5375 -34.5373 -34.5365 -34.5360
   -34.5265 -34.5263 -34.4625 -34.4509 -34.4507 -34.4116 -34.4111 -27.3135
   -27.3130 -27.3119 -27.3116 -27.3037 -27.3031 -27.3026 -27.3022 -27.3015
   -27.3011 -10.2340  -9.7286  -8.7741  -6.2764  -5.3473  -1.4359  -1.0500
    -0.5820  -0.3121  -0.0333   0.3715   0.8609   1.5632   1.8831

     occupation numbers 
     1.0000   1.0000   1.0000   1.0000   1.0000   1.0000   1.0000   1.0000
     1.0000   1.0000   1.0000   1.0000   1.0000   1.0000   1.0000   1.0000
     1.0000   1.0000   1.0000   1.0000   1.0000   1.0000   1.0000   1.0000
     1.0000   1.0000   1.0000   1.0000   1.0000   1.0000   1.0000   1.0000
     1.0000   1.0000   1.0000   1.0000   1.0000   1.0000   1.0000

          k = 0.0952 0.2748 0.0000 ( 14344 PWs)   bands (ev):

   -34.5641 -34.5640 -34.5636 -34.5633 -34.5376 -34.5374 -34.5365 -34.5360
   -34.5263 -34.5262 -34.4624 -34.4509 -34.4507 -34.4116 -34.4110 -27.3135
   -27.3130 -27.3113 -27.3110 -27.3035 -27.3031 -27.3028 -27.3024 -27.3017
   -27.3012 -10.0626  -9.5768  -8.6981  -6.3539  -5.6088  -1.8256  -1.3238
    -0.7591  -0.4925  -0.3232   0.2690   0.8708   1.2972   1.8553

     occupation numbers 
     1.0000   1.0000   1.0000   1.0000   1.0000   1.0000   1.0000   1.0000
     1.0000   1.0000   1.0000   1.0000   1.0000   1.0000   1.0000   1.0000
     1.0000   1.0000   1.0000   1.0000   1.0000   1.0000   1.0000   1.0000
     1.0000   1.0000   1.0000   1.0000   1.0000   1.0000   1.0000   1.0000
     1.0000   1.0000   1.0000   1.0000   1.0000   1.0000   1.0000

          k = 0.0952 0.3298 0.0000 ( 14373 PWs)   bands (ev):

   -34.5640 -34.5640 -34.5634 -34.5631 -34.5376 -34.5374 -34.5366 -34.5360
   -34.5262 -34.5261 -34.4623 -34.4509 -34.4508 -34.4116 -34.4108 -27.3135
   -27.3131 -27.3108 -27.3105 -27.3036 -27.3033 -27.3027 -27.3024 -27.3018
   -27.3012  -9.8592  -9.4016  -8.6240  -6.4768  -5.8916  -2.1776  -1.5158
    -0.9631  -0.7163  -0.4929   0.1885   0.8321   1.0595   1.7872

     occupation numbers 
     1.0000   1.0000   1.0000   1.0000   1.0000   1.0000   1.0000   1.0000
     1.0000   1.0000   1.0000   1.0000   1.0000   1.0000   1.0000   1.0000
     1.0000   1.0000   1.0000   1.0000   1.0000   1.0000   1.0000   1.0000
     1.0000   1.0000   1.0000   1.0000   1.0000   1.0000   1.0000   1.0000
     1.0000   1.0000   1.0000   1.0000   1.0000   1.0000   1.0000

          k = 0.0952 0.3848 0.0000 ( 14393 PWs)   bands (ev):

   -34.5640 -34.5640 -34.5632 -34.5629 -34.5377 -34.5374 -34.5366 -34.5360
   -34.5261 -34.5260 -34.4622 -34.4510 -34.4509 -34.4115 -34.4106 -27.3136
   -27.3131 -27.3103 -27.3100 -27.3040 -27.3035 -27.3025 -27.3022 -27.3019
   -27.3012  -9.6289  -9.2123  -8.5664  -6.6498  -6.1650  -2.4678  -1.6316
    -1.1892  -0.9330  -0.5484   0.0793   0.6900   0.9875   1.6778

     occupation numbers 
     1.0000   1.0000   1.0000   1.0000   1.0000   1.0000   1.0000   1.0000
     1.0000   1.0000   1.0000   1.0000   1.0000   1.0000   1.0000   1.0000
     1.0000   1.0000   1.0000   1.0000   1.0000   1.0000   1.0000   1.0000
     1.0000   1.0000   1.0000   1.0000   1.0000   1.0000   1.0000   1.0000
     1.0000   1.0000   1.0000   1.0000   1.0000   1.0000   1.0000

          k = 0.0952 0.4397 0.0000 ( 14385 PWs)   bands (ev):

   -34.5640 -34.5640 -34.5630 -34.5628 -34.5377 -34.5374 -34.5366 -34.5361
   -34.5260 -34.5259 -34.4621 -34.4510 -34.4509 -34.4115 -34.4104 -27.3137
   -27.3132 -27.3099 -27.3096 -27.3043 -27.3037 -27.3024 -27.3021 -27.3018
   -27.3012  -9.3803  -9.0242  -8.5450  -6.8569  -6.4000  -2.6882  -1.6781
    -1.3940  -1.0928  -0.5797  -0.0657   0.5943   0.9700   1.5524

     occupation numbers 
     1.0000   1.0000   1.0000   1.0000   1.0000   1.0000   1.0000   1.0000
     1.0000   1.0000   1.0000   1.0000   1.0000   1.0000   1.0000   1.0000
     1.0000   1.0000   1.0000   1.0000   1.0000   1.0000   1.0000   1.0000
     1.0000   1.0000   1.0000   1.0000   1.0000   1.0000   1.0000   1.0000
     1.0000   1.0000   1.0000   1.0000   1.0000   1.0000   1.0000

          k = 0.0952 0.4947 0.0000 ( 14392 PWs)   bands (ev):

   -34.5639 -34.5639 -34.5629 -34.5627 -34.5377 -34.5374 -34.5367 -34.5361
   -34.5260 -34.5259 -34.4621 -34.4510 -34.4510 -34.4115 -34.4103 -27.3137
   -27.3133 -27.3096 -27.3093 -27.3046 -27.3039 -27.3024 -27.3020 -27.3016
   -27.3013  -9.1269  -8.8627  -8.5837  -7.0506  -6.5763  -2.8367  -1.6733
    -1.5405  -1.2033  -0.6237  -0.1910   0.5854   0.9360   1.4493

     occupation numbers 
     1.0000   1.0000   1.0000   1.0000   1.0000   1.0000   1.0000   1.0000
     1.0000   1.0000   1.0000   1.0000   1.0000   1.0000   1.0000   1.0000
     1.0000   1.0000   1.0000   1.0000   1.0000   1.0000   1.0000   1.0000
     1.0000   1.0000   1.0000   1.0000   1.0000   1.0000   1.0000   1.0000
     1.0000   1.0000   1.0000   1.0000   1.0000   1.0000   1.0000

          k = 0.0952 0.5497 0.0000 ( 14395 PWs)   bands (ev):

   -34.5639 -34.5639 -34.5628 -34.5626 -34.5378 -34.5374 -34.5367 -34.5361
   -34.5260 -34.5258 -34.4621 -34.4510 -34.4510 -34.4115 -34.4103 -27.3137
   -27.3133 -27.3094 -27.3091 -27.3047 -27.3040 -27.3024 -27.3019 -27.3015
   -27.3013  -8.8905  -8.7650  -8.6998  -7.1695  -6.6737  -2.9117  -1.6595
    -1.6061  -1.2649  -0.6694  -0.2511   0.6160   0.8896   1.3961

     occupation numbers 
     1.0000   1.0000   1.0000   1.0000   1.0000   1.0000   1.0000   1.0000
     1.0000   1.0000   1.0000   1.0000   1.0000   1.0000   1.0000   1.0000
     1.0000   1.0000   1.0000   1.0000   1.0000   1.0000   1.0000   1.0000
     1.0000   1.0000   1.0000   1.0000   1.0000   1.0000   1.0000   1.0000
     1.0000   1.0000   1.0000   1.0000   1.0000   1.0000   1.0000

          k = 0.0952-0.0000 0.0000 ( 14323 PWs)   bands (ev):

   -34.5642 -34.5641 -34.5640 -34.5640 -34.5374 -34.5373 -34.5363 -34.5360
   -34.5267 -34.5265 -34.4627 -34.4509 -34.4505 -34.4117 -34.4116 -27.3133
   -27.3131 -27.3130 -27.3126 -27.3043 -27.3038 -27.3016 -27.3015 -27.3011
   -27.3010 -10.5479 -10.0139  -8.9390  -6.1994  -4.8396  -0.3226  -0.0638
     0.0825   0.2994   0.3924   0.7796   1.1392   1.4354   1.8412

     occupation numbers 
     1.0000   1.0000   1.0000   1.0000   1.0000   1.0000   1.0000   1.0000
     1.0000   1.0000   1.0000   1.0000   1.0000   1.0000   1.0000   1.0000
     1.0000   1.0000   1.0000   1.0000   1.0000   1.0000   1.0000   1.0000
     1.0000   1.0000   1.0000   1.0000   1.0000   1.0000   1.0000   1.0000
     1.0000   1.0000   1.0000   1.0000   1.0000   1.0000   1.0000

          k = 0.1429 0.0824 0.0000 ( 14336 PWs)   bands (ev):

   -34.5642 -34.5641 -34.5639 -34.5638 -34.5375 -34.5373 -34.5364 -34.5360
   -34.5266 -34.5264 -34.4626 -34.4509 -34.4506 -34.4117 -34.4114 -27.3134
   -27.3130 -27.3125 -27.3122 -27.3040 -27.3035 -27.3021 -27.3016 -27.3015
   -27.3010 -10.4288  -9.9048  -8.8730  -6.2189  -5.0337  -0.9425  -0.3568
    -0.1424  -0.1230   0.2946   0.3328   1.2874   1.5433   1.7431

     occupation numbers 
     1.0000   1.0000   1.0000   1.0000   1.0000   1.0000   1.0000   1.0000
     1.0000   1.0000   1.0000   1.0000   1.0000   1.0000   1.0000   1.0000
     1.0000   1.0000   1.0000   1.0000   1.0000   1.0000   1.0000   1.0000
     1.0000   1.0000   1.0000   1.0000   1.0000   1.0000   1.0000   1.0000
     1.0000   1.0000   1.0000   1.0000   1.0000   1.0000   1.0000

          k = 0.1429 0.1374 0.0000 ( 14342 PWs)   bands (ev):

   -34.5641 -34.5641 -34.5638 -34.5637 -34.5375 -34.5374 -34.5364 -34.5360
   -34.5265 -34.5264 -34.4626 -34.4509 -34.4506 -34.4117 -34.4113 -27.3135
   -27.3130 -27.3122 -27.3119 -27.3039 -27.3034 -27.3023 -27.3019 -27.3015
   -27.3010 -10.3503  -9.8335  -8.8318  -6.2386  -5.1611  -1.1965  -0.5794
    -0.4702  -0.1552   0.1826   0.3503   1.0939   1.5002   1.8648

     occupation numbers 
     1.0000   1.0000   1.0000   1.0000   1.0000   1.0000   1.0000   1.0000
     1.0000   1.0000   1.0000   1.0000   1.0000   1.0000   1.0000   1.0000
     1.0000   1.0000   1.0000   1.0000   1.0000   1.0000   1.0000   1.0000
     1.0000   1.0000   1.0000   1.0000   1.0000   1.0000   1.0000   1.0000
     1.0000   1.0000   1.0000   1.0000   1.0000   1.0000   1.0000

          k = 0.1429 0.1924 0.0000 ( 14348 PWs)   bands (ev):

   -34.5641 -34.5641 -34.5637 -34.5635 -34.5375 -34.5374 -34.5365 -34.5360
   -34.5265 -34.5263 -34.4625 -34.4509 -34.4507 -34.4116 -34.4111 -27.3135
   -27.3130 -27.3119 -27.3115 -27.3037 -27.3031 -27.3026 -27.3022 -27.3015
   -27.3011 -10.2339  -9.7286  -8.7740  -6.2762  -5.3476  -1.4361  -1.0495
    -0.5813  -0.3133  -0.0332   0.3702   0.8610   1.5638   1.8823

     occupation numbers 
     1.0000   1.0000   1.0000   1.0000   1.0000   1.0000   1.0000   1.0000
     1.0000   1.0000   1.0000   1.0000   1.0000   1.0000   1.0000   1.0000
     1.0000   1.0000   1.0000   1.0000   1.0000   1.0000   1.0000   1.0000
     1.0000   1.0000   1.0000   1.0000   1.0000   1.0000   1.0000   1.0000
     1.0000   1.0000   1.0000   1.0000   1.0000   1.0000   1.0000

          k = 0.1429 0.2473 0.0000 ( 14341 PWs)   bands (ev):

   -34.5640 -34.5640 -34.5636 -34.5633 -34.5376 -34.5374 -34.5365 -34.5360
   -34.5264 -34.5262 -34.4624 -34.4510 -34.4507 -34.4116 -34.4110 -27.3134
   -27.3130 -27.3115 -27.3112 -27.3035 -27.3030 -27.3028 -27.3025 -27.3015
   -27.3012 -10.0812  -9.5930  -8.7048  -6.3404  -5.5841  -1.6581  -1.4724
    -0.6560  -0.5886  -0.2523   0.2149   0.8346   1.6019   1.7160

     occupation numbers 
     1.0000   1.0000   1.0000   1.0000   1.0000   1.0000   1.0000   1.0000
     1.0000   1.0000   1.0000   1.0000   1.0000   1.0000   1.0000   1.0000
     1.0000   1.0000   1.0000   1.0000   1.0000   1.0000   1.0000   1.0000
     1.0000   1.0000   1.0000   1.0000   1.0000   1.0000   1.0000   1.0000
     1.0000   1.0000   1.0000   1.0000   1.0000   1.0000   1.0000

          k = 0.1429 0.3023 0.0000 ( 14356 PWs)   bands (ev):

   -34.5640 -34.5640 -34.5634 -34.5632 -34.5376 -34.5374 -34.5365 -34.5360
   -34.5263 -34.5261 -34.4623 -34.4510 -34.4508 -34.4115 -34.4108 -27.3134
   -27.3129 -27.3110 -27.3107 -27.3035 -27.3032 -27.3027 -27.3025 -27.3017
   -27.3013  -9.8951  -9.4313  -8.6320  -6.4404  -5.8551  -1.9560  -1.7120
[...]
     1.0000   1.0000   1.0000   1.0000   1.0000   1.0000   1.0000   1.0000
     1.0000   1.0000   1.0000   1.0000   1.0000   1.0000   1.0000   1.0000
     1.0000   1.0000   1.0000   1.0000   1.0000   1.0000   1.0000

          k =-0.4286 0.2473 0.0000 ( 14408 PWs)   bands (ev):

   -34.5641 -34.5639 -34.5628 -34.5627 -34.5376 -34.5375 -34.5364 -34.5363
   -34.5260 -34.5258 -34.4621 -34.4512 -34.4507 -34.4116 -34.4103 -27.3140
   -27.3136 -27.3095 -27.3090 -27.3046 -27.3040 -27.3022 -27.3020 -27.3017
   -27.3011  -9.1734  -8.9038  -8.6118  -7.0400  -6.4897  -2.8890  -1.6868
    -1.2521  -1.1139  -0.4801  -0.1879   0.6329   0.9995   1.1654

     occupation numbers 
     1.0000   1.0000   1.0000   1.0000   1.0000   1.0000   1.0000   1.0000
     1.0000   1.0000   1.0000   1.0000   1.0000   1.0000   1.0000   1.0000
     1.0000   1.0000   1.0000   1.0000   1.0000   1.0000   1.0000   1.0000
     1.0000   1.0000   1.0000   1.0000   1.0000   1.0000   1.0000   1.0000
     1.0000   1.0000   1.0000   1.0000   1.0000   1.0000   1.0000

          k =-0.4286 0.3023 0.0000 ( 14414 PWs)   bands (ev):

   -34.5641 -34.5639 -34.5627 -34.5627 -34.5376 -34.5375 -34.5365 -34.5363
   -34.5260 -34.5258 -34.4621 -34.4512 -34.4507 -34.4116 -34.4102 -27.3139
   -27.3136 -27.3094 -27.3089 -27.3047 -27.3041 -27.3023 -27.3020 -27.3016
   -27.3011  -9.0377  -8.8333  -8.6550  -7.1143  -6.5720  -2.9246  -1.6622
    -1.4081  -1.1702  -0.5581  -0.1816   0.6174   0.9394   1.2276

     occupation numbers 
     1.0000   1.0000   1.0000   1.0000   1.0000   1.0000   1.0000   1.0000
     1.0000   1.0000   1.0000   1.0000   1.0000   1.0000   1.0000   1.0000
     1.0000   1.0000   1.0000   1.0000   1.0000   1.0000   1.0000   1.0000
     1.0000   1.0000   1.0000   1.0000   1.0000   1.0000   1.0000   1.0000
     1.0000   1.0000   1.0000   1.0000   1.0000   1.0000   1.0000

          k =-0.4286 0.3573 0.0000 ( 14399 PWs)   bands (ev):

   -34.5640 -34.5638 -34.5627 -34.5627 -34.5376 -34.5376 -34.5365 -34.5363
   -34.5260 -34.5258 -34.4620 -34.4512 -34.4507 -34.4115 -34.4103 -27.3137
   -27.3133 -27.3095 -27.3090 -27.3046 -27.3041 -27.3024 -27.3019 -27.3016
   -27.3013  -8.8896  -8.7653  -8.6984  -7.1674  -6.6745  -2.9132  -1.6603
    -1.6049  -1.2666  -0.6706  -0.2525   0.6160   0.8886   1.3937

     occupation numbers 
     1.0000   1.0000   1.0000   1.0000   1.0000   1.0000   1.0000   1.0000
     1.0000   1.0000   1.0000   1.0000   1.0000   1.0000   1.0000   1.0000
     1.0000   1.0000   1.0000   1.0000   1.0000   1.0000   1.0000   1.0000
     1.0000   1.0000   1.0000   1.0000   1.0000   1.0000   1.0000   1.0000
     1.0000   1.0000   1.0000   1.0000   1.0000   1.0000   1.0000

          k =-0.4286 0.4122 0.0000 ( 14378 PWs)   bands (ev):

   -34.5639 -34.5637 -34.5628 -34.5628 -34.5376 -34.5376 -34.5365 -34.5363
   -34.5260 -34.5258 -34.4620 -34.4512 -34.4508 -34.4114 -34.4103 -27.3133
   -27.3129 -27.3097 -27.3092 -27.3045 -27.3040 -27.3026 -27.3019 -27.3016
   -27.3015  -8.7491  -8.7377  -8.6976  -7.1962  -6.7910  -2.8561  -1.8070
    -1.7448  -1.3056  -0.7256  -0.4705   0.6180   0.9627   1.4935

     occupation numbers 
     1.0000   1.0000   1.0000   1.0000   1.0000   1.0000   1.0000   1.0000
     1.0000   1.0000   1.0000   1.0000   1.0000   1.0000   1.0000   1.0000
     1.0000   1.0000   1.0000   1.0000   1.0000   1.0000   1.0000   1.0000
     1.0000   1.0000   1.0000   1.0000   1.0000   1.0000   1.0000   1.0000
     1.0000   1.0000   1.0000   1.0000   1.0000   1.0000   1.0000

          k =-0.4286 0.4672 0.0000 ( 14383 PWs)   bands (ev):

   -34.5638 -34.5636 -34.5629 -34.5629 -34.5376 -34.5376 -34.5365 -34.5363
   -34.5259 -34.5258 -34.4620 -34.4512 -34.4508 -34.4112 -34.4104 -27.3128
   -27.3125 -27.3100 -27.3096 -27.3044 -27.3039 -27.3029 -27.3019 -27.3018
   -27.3015  -8.7751  -8.6636  -8.5982  -7.1990  -6.9120  -2.7610  -2.0374
    -1.8109  -1.3197  -0.7932  -0.6377   0.5869   1.1135   1.4660

     occupation numbers 
     1.0000   1.0000   1.0000   1.0000   1.0000   1.0000   1.0000   1.0000
     1.0000   1.0000   1.0000   1.0000   1.0000   1.0000   1.0000   1.0000
     1.0000   1.0000   1.0000   1.0000   1.0000   1.0000   1.0000   1.0000
     1.0000   1.0000   1.0000   1.0000   1.0000   1.0000   1.0000   1.0000
     1.0000   1.0000   1.0000   1.0000   1.0000   1.0000   1.0000

          k =-0.4286 0.5222 0.0000 ( 14376 PWs)   bands (ev):

   -34.5637 -34.5634 -34.5630 -34.5630 -34.5376 -34.5376 -34.5365 -34.5363
   -34.5259 -34.5258 -34.4620 -34.4512 -34.4508 -34.4111 -34.4105 -27.3123
   -27.3120 -27.3104 -27.3099 -27.3042 -27.3038 -27.3031 -27.3020 -27.3019
   -27.3016  -8.7960  -8.6341  -8.5024  -7.1741  -7.0237  -2.6395  -2.2572
    -1.8009  -1.3678  -0.9956  -0.5649   0.5402   1.2113   1.4224

     occupation numbers 
     1.0000   1.0000   1.0000   1.0000   1.0000   1.0000   1.0000   1.0000
     1.0000   1.0000   1.0000   1.0000   1.0000   1.0000   1.0000   1.0000
     1.0000   1.0000   1.0000   1.0000   1.0000   1.0000   1.0000   1.0000
     1.0000   1.0000   1.0000   1.0000   1.0000   1.0000   1.0000   1.0000
     1.0000   1.0000   1.0000   1.0000   1.0000   1.0000   1.0000

          k =-0.4286-0.1924 0.0000 ( 14389 PWs)   bands (ev):

   -34.5641 -34.5639 -34.5629 -34.5628 -34.5376 -34.5375 -34.5365 -34.5362
   -34.5260 -34.5259 -34.4621 -34.4512 -34.4507 -34.4116 -34.4103 -27.3139
   -27.3135 -27.3096 -27.3092 -27.3045 -27.3039 -27.3023 -27.3021 -27.3017
   -27.3011  -9.2886  -8.9689  -8.5734  -6.9513  -6.4334  -2.8097  -1.6797
    -1.2793  -1.0763  -0.5042  -0.1314   0.6145   0.9732   1.3151

     occupation numbers 
     1.0000   1.0000   1.0000   1.0000   1.0000   1.0000   1.0000   1.0000
     1.0000   1.0000   1.0000   1.0000   1.0000   1.0000   1.0000   1.0000
     1.0000   1.0000   1.0000   1.0000   1.0000   1.0000   1.0000   1.0000
     1.0000   1.0000   1.0000   1.0000   1.0000   1.0000   1.0000   1.0000
     1.0000   1.0000   1.0000   1.0000   1.0000   1.0000   1.0000

          k =-0.4286-0.1374 0.0000 ( 14385 PWs)   bands (ev):

   -34.5640 -34.5639 -34.5629 -34.5629 -34.5376 -34.5375 -34.5365 -34.5362
   -34.5261 -34.5259 -34.4621 -34.4512 -34.4507 -34.4115 -34.4104 -27.3136
   -27.3133 -27.3099 -27.3095 -27.3043 -27.3037 -27.3024 -27.3021 -27.3018
   -27.3012  -9.3790  -9.0237  -8.5436  -6.8553  -6.4024  -2.6900  -1.6778
    -1.3948  -1.0931  -0.5803  -0.0676   0.5952   0.9686   1.5505

     occupation numbers 
     1.0000   1.0000   1.0000   1.0000   1.0000   1.0000   1.0000   1.0000
     1.0000   1.0000   1.0000   1.0000   1.0000   1.0000   1.0000   1.0000
     1.0000   1.0000   1.0000   1.0000   1.0000   1.0000   1.0000   1.0000
     1.0000   1.0000   1.0000   1.0000   1.0000   1.0000   1.0000   1.0000
     1.0000   1.0000   1.0000   1.0000   1.0000   1.0000   1.0000

          k =-0.4286-0.0824 0.0000 ( 14378 PWs)   bands (ev):

   -34.5640 -34.5638 -34.5630 -34.5630 -34.5376 -34.5375 -34.5365 -34.5362
   -34.5261 -34.5259 -34.4621 -34.4512 -34.4507 -34.4114 -34.4105 -27.3133
   -27.3129 -27.3103 -27.3098 -27.3041 -27.3036 -27.3026 -27.3021 -27.3019
   -27.3014  -9.4410  -9.0630  -8.5235  -6.7674  -6.3963  -2.5313  -1.8413
    -1.3494  -1.1390  -0.6808  -0.1467   0.7260   1.0326   1.6519

     occupation numbers 
     1.0000   1.0000   1.0000   1.0000   1.0000   1.0000   1.0000   1.0000
     1.0000   1.0000   1.0000   1.0000   1.0000   1.0000   1.0000   1.0000
     1.0000   1.0000   1.0000   1.0000   1.0000   1.0000   1.0000   1.0000
     1.0000   1.0000   1.0000   1.0000   1.0000   1.0000   1.0000   1.0000
     1.0000   1.0000   1.0000   1.0000   1.0000   1.0000   1.0000

          k =-0.4286-0.0275 0.0000 ( 14373 PWs)   bands (ev):

   -34.5639 -34.5637 -34.5631 -34.5631 -34.5376 -34.5376 -34.5365 -34.5362
   -34.5261 -34.5259 -34.4622 -34.4512 -34.4507 -34.4114 -34.4106 -27.3130
   -27.3127 -27.3105 -27.3101 -27.3039 -27.3036 -27.3027 -27.3021 -27.3019
   -27.3015  -9.4724  -9.0835  -8.5134  -6.7102  -6.4032  -2.3399  -2.0766
    -1.2894  -1.0620  -0.8442  -0.2384   0.8670   1.1755   1.5343

     occupation numbers 
     1.0000   1.0000   1.0000   1.0000   1.0000   1.0000   1.0000   1.0000
     1.0000   1.0000   1.0000   1.0000   1.0000   1.0000   1.0000   1.0000
     1.0000   1.0000   1.0000   1.0000   1.0000   1.0000   1.0000   1.0000
     1.0000   1.0000   1.0000   1.0000   1.0000   1.0000   1.0000   1.0000
     1.0000   1.0000   1.0000   1.0000   1.0000   1.0000   1.0000

          k =-0.4762 0.2748 0.0000 ( 14408 PWs)   bands (ev):

   -34.5641 -34.5639 -34.5627 -34.5627 -34.5377 -34.5375 -34.5364 -34.5363
   -34.5260 -34.5258 -34.4621 -34.4512 -34.4507 -34.4116 -34.4102 -27.3140
   -27.3137 -27.3093 -27.3088 -27.3047 -27.3042 -27.3022 -27.3019 -27.3016
   -27.3011  -8.9320  -8.8046  -8.7353  -7.1587  -6.5875  -2.9678  -1.6308
    -1.4152  -1.1551  -0.5169  -0.1966   0.6193   0.9779   1.1143

     occupation numbers 
     1.0000   1.0000   1.0000   1.0000   1.0000   1.0000   1.0000   1.0000
     1.0000   1.0000   1.0000   1.0000   1.0000   1.0000   1.0000   1.0000
     1.0000   1.0000   1.0000   1.0000   1.0000   1.0000   1.0000   1.0000
     1.0000   1.0000   1.0000   1.0000   1.0000   1.0000   1.0000   1.0000
     1.0000   1.0000   1.0000   1.0000   1.0000   1.0000   1.0000

          k =-0.4762 0.3298 0.0000 ( 14410 PWs)   bands (ev):

   -34.5641 -34.5639 -34.5627 -34.5627 -34.5377 -34.5375 -34.5365 -34.5363
   -34.5260 -34.5258 -34.4621 -34.4512 -34.4507 -34.4115 -34.4102 -27.3139
   -27.3136 -27.3093 -27.3088 -27.3047 -27.3042 -27.3023 -27.3019 -27.3015
   -27.3011  -8.8196  -8.8129  -8.7803  -7.1768  -6.6224  -2.9639  -1.6186
    -1.4884  -1.2026  -0.5798  -0.1910   0.6189   0.9223   1.2023

     occupation numbers 
     1.0000   1.0000   1.0000   1.0000   1.0000   1.0000   1.0000   1.0000
     1.0000   1.0000   1.0000   1.0000   1.0000   1.0000   1.0000   1.0000
     1.0000   1.0000   1.0000   1.0000   1.0000   1.0000   1.0000   1.0000
     1.0000   1.0000   1.0000   1.0000   1.0000   1.0000   1.0000   1.0000
     1.0000   1.0000   1.0000   1.0000   1.0000   1.0000   1.0000

          k =-0.4762 0.3848 0.0000 ( 14393 PWs)   bands (ev):

   -34.5640 -34.5638 -34.5627 -34.5627 -34.5376 -34.5376 -34.5365 -34.5363
   -34.5260 -34.5258 -34.4620 -34.4512 -34.4507 -34.4115 -34.4103 -27.3137
   -27.3133 -27.3095 -27.3090 -27.3046 -27.3041 -27.3024 -27.3019 -27.3015
   -27.3013  -8.8892  -8.7653  -8.6986  -7.1674  -6.6746  -2.9133  -1.6587
    -1.6075  -1.2657  -0.6704  -0.2524   0.6160   0.8887   1.3935

     occupation numbers 
     1.0000   1.0000   1.0000   1.0000   1.0000   1.0000   1.0000   1.0000
     1.0000   1.0000   1.0000   1.0000   1.0000   1.0000   1.0000   1.0000
     1.0000   1.0000   1.0000   1.0000   1.0000   1.0000   1.0000   1.0000
     1.0000   1.0000   1.0000   1.0000   1.0000   1.0000   1.0000   1.0000
     1.0000   1.0000   1.0000   1.0000   1.0000   1.0000   1.0000

          k =-0.4762 0.4397 0.0000 ( 14383 PWs)   bands (ev):

   -34.5639 -34.5637 -34.5628 -34.5628 -34.5376 -34.5376 -34.5365 -34.5363
   -34.5260 -34.5258 -34.4620 -34.4512 -34.4507 -34.4114 -34.4104 -27.3133
   -27.3129 -27.3098 -27.3093 -27.3045 -27.3040 -27.3026 -27.3019 -27.3016
   -27.3015  -8.9493  -8.7565  -8.5926  -7.1331  -6.7414  -2.8207  -1.8290
    -1.6740  -1.3110  -0.7172  -0.4105   0.6058   0.9820   1.5189

     occupation numbers 
     1.0000   1.0000   1.0000   1.0000   1.0000   1.0000   1.0000   1.0000
     1.0000   1.0000   1.0000   1.0000   1.0000   1.0000   1.0000   1.0000
     1.0000   1.0000   1.0000   1.0000   1.0000   1.0000   1.0000   1.0000
     1.0000   1.0000   1.0000   1.0000   1.0000   1.0000   1.0000   1.0000
     1.0000   1.0000   1.0000   1.0000   1.0000   1.0000   1.0000

          k =-0.4762 0.4947 0.0000 ( 14383 PWs)   bands (ev):

   -34.5638 -34.5636 -34.5629 -34.5629 -34.5376 -34.5376 -34.5365 -34.5363
   -34.5260 -34.5258 -34.4620 -34.4512 -34.4508 -34.4113 -34.4105 -27.3128
   -27.3125 -27.3101 -27.3097 -27.3043 -27.3038 -27.3028 -27.3020 -27.3017
   -27.3016  -8.9918  -8.7530  -8.5108  -7.0794  -6.8175  -2.6913  -2.0836
    -1.6293  -1.3461  -0.8760  -0.4612   0.6227   1.1017   1.5080

     occupation numbers 
     1.0000   1.0000   1.0000   1.0000   1.0000   1.0000   1.0000   1.0000
     1.0000   1.0000   1.0000   1.0000   1.0000   1.0000   1.0000   1.0000
     1.0000   1.0000   1.0000   1.0000   1.0000   1.0000   1.0000   1.0000
     1.0000   1.0000   1.0000   1.0000   1.0000   1.0000   1.0000   1.0000
     1.0000   1.0000   1.0000   1.0000   1.0000   1.0000   1.0000

          k =-0.4762 0.5497 0.0000 ( 14367 PWs)   bands (ev):

   -34.5637 -34.5635 -34.5630 -34.5630 -34.5376 -34.5376 -34.5365 -34.5363
   -34.5260 -34.5258 -34.4620 -34.4512 -34.4508 -34.4112 -34.4105 -27.3125
   -27.3122 -27.3104 -27.3099 -27.3041 -27.3038 -27.3029 -27.3020 -27.3019
   -27.3016  -9.0138  -8.7520  -8.4658  -7.0199  -6.8887  -2.5261  -2.3227
    -1.5617  -1.3070  -1.1203  -0.4224   0.6526   1.1558   1.4627

     occupation numbers 
     1.0000   1.0000   1.0000   1.0000   1.0000   1.0000   1.0000   1.0000
     1.0000   1.0000   1.0000   1.0000   1.0000   1.0000   1.0000   1.0000
     1.0000   1.0000   1.0000   1.0000   1.0000   1.0000   1.0000   1.0000
     1.0000   1.0000   1.0000   1.0000   1.0000   1.0000   1.0000   1.0000
     1.0000   1.0000   1.0000   1.0000   1.0000   1.0000   1.0000

          k =-0.4762-0.2199 0.0000 ( 14412 PWs)   bands (ev):

   -34.5640 -34.5639 -34.5628 -34.5627 -34.5376 -34.5375 -34.5366 -34.5362
   -34.5260 -34.5258 -34.4621 -34.4512 -34.4507 -34.4116 -34.4102 -27.3140
   -27.3136 -27.3094 -27.3090 -27.3047 -27.3041 -27.3023 -27.3020 -27.3016
   -27.3011  -9.0369  -8.8325  -8.6545  -7.1156  -6.5739  -2.9248  -1.6616
    -1.4108  -1.1679  -0.5575  -0.1824   0.6184   0.9398   1.2274

     occupation numbers 
     1.0000   1.0000   1.0000   1.0000   1.0000   1.0000   1.0000   1.0000
     1.0000   1.0000   1.0000   1.0000   1.0000   1.0000   1.0000   1.0000
     1.0000   1.0000   1.0000   1.0000   1.0000   1.0000   1.0000   1.0000
     1.0000   1.0000   1.0000   1.0000   1.0000   1.0000   1.0000   1.0000
     1.0000   1.0000   1.0000   1.0000   1.0000   1.0000   1.0000

          k =-0.4762-0.1649 0.0000 ( 14390 PWs)   bands (ev):

   -34.5640 -34.5639 -34.5628 -34.5628 -34.5376 -34.5375 -34.5365 -34.5362
   -34.5260 -34.5258 -34.4621 -34.4512 -34.4507 -34.4115 -34.4103 -27.3137
   -27.3133 -27.3096 -27.3092 -27.3045 -27.3039 -27.3024 -27.3020 -27.3016
   -27.3013  -9.1253  -8.8621  -8.5820  -7.0495  -6.5788  -2.8385  -1.6728
    -1.5417  -1.2037  -0.6244  -0.1928   0.5863   0.9349   1.4471

     occupation numbers 
     1.0000   1.0000   1.0000   1.0000   1.0000   1.0000   1.0000   1.0000
     1.0000   1.0000   1.0000   1.0000   1.0000   1.0000   1.0000   1.0000
     1.0000   1.0000   1.0000   1.0000   1.0000   1.0000   1.0000   1.0000
     1.0000   1.0000   1.0000   1.0000   1.0000   1.0000   1.0000   1.0000
     1.0000   1.0000   1.0000   1.0000   1.0000   1.0000   1.0000

          k =-0.4762-0.1099 0.0000 ( 14373 PWs)   bands (ev):

   -34.5639 -34.5638 -34.5629 -34.5629 -34.5376 -34.5376 -34.5365 -34.5362
   -34.5260 -34.5258 -34.4621 -34.4512 -34.4507 -34.4114 -34.4104 -27.3133
   -27.3129 -27.3099 -27.3095 -27.3043 -27.3038 -27.3026 -27.3020 -27.3017
   -27.3015  -9.1916  -8.8878  -8.5246  -6.9706  -6.6042  -2.7132  -1.8425
    -1.5294  -1.2796  -0.7003  -0.2755   0.6192   1.0116   1.5835

     occupation numbers 
     1.0000   1.0000   1.0000   1.0000   1.0000   1.0000   1.0000   1.0000
     1.0000   1.0000   1.0000   1.0000   1.0000   1.0000   1.0000   1.0000
     1.0000   1.0000   1.0000   1.0000   1.0000   1.0000   1.0000   1.0000
     1.0000   1.0000   1.0000   1.0000   1.0000   1.0000   1.0000   1.0000
     1.0000   1.0000   1.0000   1.0000   1.0000   1.0000   1.0000

          k =-0.4762-0.0550 0.0000 ( 14378 PWs)   bands (ev):

   -34.5638 -34.5637 -34.5630 -34.5630 -34.5376 -34.5376 -34.5365 -34.5362
   -34.5260 -34.5258 -34.4621 -34.4512 -34.4507 -34.4113 -34.4105 -27.3129
   -27.3126 -27.3103 -27.3098 -27.3041 -27.3037 -27.3027 -27.3020 -27.3018
   -27.3016  -9.2326  -8.9051  -8.4880  -6.8946  -6.6433  -2.5510  -2.0951
    -1.3745  -1.3494  -0.8828  -0.3250   0.7282   1.1044   1.5426

     occupation numbers 
     1.0000   1.0000   1.0000   1.0000   1.0000   1.0000   1.0000   1.0000
     1.0000   1.0000   1.0000   1.0000   1.0000   1.0000   1.0000   1.0000
     1.0000   1.0000   1.0000   1.0000   1.0000   1.0000   1.0000   1.0000
     1.0000   1.0000   1.0000   1.0000   1.0000   1.0000   1.0000   1.0000
     1.0000   1.0000   1.0000   1.0000   1.0000   1.0000   1.0000

     highest occupied level (ev):     1.9039

!    total energy              =    -806.52057731 Ry
     estimated scf accuracy    <       0.00000006 Ry

     The total energy is the sum of the following terms:
     one-electron contribution =   -3424.73656477 Ry
     hartree contribution      =    1707.77756911 Ry
     xc contribution           =     -87.19124187 Ry
     ewald contribution        =     997.62966022 Ry

     convergence has been achieved in  12 iterations

     Writing all to output data dir tmp/Sb2Te3-uatsx-c1-0.0.save/ :
     XML data file, charge density, pseudopotentials, collected wavefunctions

     init_run     :      8.49s CPU      4.97s WALL (       1 calls)
     electrons    :    413.64s CPU    212.26s WALL (       1 calls)

     Called by init_run:
     wfcinit      :      7.37s CPU      3.81s WALL (       1 calls)
     wfcinit:wfcr :      6.76s CPU      3.46s WALL (     221 calls)
     potinit      :      0.48s CPU      0.46s WALL (       1 calls)
     hinit0       :      0.54s CPU      0.60s WALL (       1 calls)

     Called by electrons:
     c_bands      :    372.97s CPU    191.28s WALL (      13 calls)
     sum_band     :     39.95s CPU     20.38s WALL (      13 calls)
     v_of_rho     :      0.54s CPU      0.40s WALL (      13 calls)
     v_h          :      0.05s CPU      0.05s WALL (      13 calls)
     v_xc         :      0.49s CPU      0.35s WALL (      13 calls)
     mix_rho      :      0.10s CPU      0.09s WALL (      13 calls)

     Called by c_bands:
     init_us_2    :      3.58s CPU      2.25s WALL (    5967 calls)
     cegterg      :    359.53s CPU    183.84s WALL (    2873 calls)

     Called by sum_band:
     sum_band:wei :      0.00s CPU      0.00s WALL (      13 calls)
     sum_band:loo :     39.90s CPU     20.35s WALL (      13 calls)
     sum_band:buf :      0.54s CPU      0.29s WALL (    2873 calls)
     sum_band:ini :      1.82s CPU      1.04s WALL (    2873 calls)

     Called by *egterg:
     cdiaghg      :     66.61s CPU     36.24s WALL (   17833 calls)
     cegterg:over :     11.88s CPU      6.90s WALL (   15181 calls)
     cegterg:upda :      9.63s CPU      3.09s WALL (   15181 calls)
     cegterg:last :      9.52s CPU      4.17s WALL (    7738 calls)
     h_psi        :    259.65s CPU    130.62s WALL (   18275 calls)
     g_psi        :      0.87s CPU      0.81s WALL (   15181 calls)

     Called by h_psi:
     h_psi:calbec :     19.51s CPU      6.87s WALL (   18275 calls)
     vloc_psi     :    230.55s CPU    119.26s WALL (   18275 calls)
     add_vuspsi   :      8.81s CPU      3.96s WALL (   18275 calls)

     General routines
     calbec       :     19.44s CPU      6.83s WALL (   18275 calls)
     fft          :      0.98s CPU      0.95s WALL (     154 calls)
     ffts         :      0.43s CPU      0.42s WALL (      26 calls)
     fftw         :    222.84s CPU    115.62s WALL (  828355 calls)
     interpolate  :      0.47s CPU      0.46s WALL (      13 calls)

     Parallel routines

     PWSCF        :   7m 5.68s CPU   3m49.53s WALL


   This run was terminated on:  15:20:45  13Aug2025            

=------------------------------------------------------------------------------=
   JOB DONE.
=------------------------------------------------------------------------------=
