
     Program PWSCF v.7.4.1 starts on 14Aug2025 at 20:50: 1 

     This program is part of the open-source Quantum ESPRESSO suite
     for quantum simulation of materials; please cite
         "P. Giannozzi et al., J. Phys.:Condens. Matter 21 395502 (2009);
         "P. Giannozzi et al., J. Phys.:Condens. Matter 29 465901 (2017);
         "P. Giannozzi et al., J. Chem. Phys. 152 154105 (2020);
          URL http://www.quantum-espresso.org", 
     in publications or presentations arising from this work. More details at
     http://www.quantum-espresso.org/quote

     Parallel version (MPI & OpenMP), running on      48 processor cores
     Number of MPI processes:                24
     Threads/MPI process:                     2

     MPI processes distributed on     2 nodes
     104337 MiB available memory on the printing compute node when the environment starts

     Waiting for input...
     Reading input from standard input

     Current dimensions of program PWSCF are:
     Max number of different atomic species (ntypx) = 10
     Max number of k-points (npk) =  40000
     Max angular momentum in pseudopotentials (lmaxx) =  4

     IMPORTANT: XC functional enforced from input :
     Exchange-correlation= PBE
                           (   1   4   3   4   0   0   0)
     Any further DFT definition will be discarded
     Please, verify this is what you really want

     Message from routine setup:
     no reason to have ecutrho>4*ecutwfc

     R & G space division:  proc/nbgrp/npool/nimage =      24
     Subspace diagonalization in iterative solution of the eigenvalue problem:
     a serial algorithm will be used


     Parallelization info
     --------------------
     sticks:   dense  smooth     PW     G-vecs:    dense   smooth      PW
     Min          99      39     12                19681     4971     832
     Max         100      40     13                19687     4990     841
     Sum        2379     953    291               472441   119521   19997

     Using Slab Decomposition



     bravais-lattice index     =            0
     lattice parameter (alat)  =       8.4715  a.u.
     unit-cell volume          =    2502.8602 (a.u.)^3
     number of atoms/cell      =            5
     number of atomic types    =            2
     number of electrons       =        78.00
     number of Kohn-Sham states=           39
     kinetic-energy cutoff     =      50.0000  Ry
     charge density cutoff     =     500.0000  Ry
     scf convergence threshold =      1.0E-07
     mixing beta               =       0.7000
     number of iterations used =            8  plain     mixing
     Exchange-correlation= PBE
                           (   1   4   3   4   0   0   0)

     celldm(1)=   8.471459  celldm(2)=   0.000000  celldm(3)=   0.000000
     celldm(4)=   0.000000  celldm(5)=   0.000000  celldm(6)=   0.000000

     crystal axes: (cart. coord. in units of alat)
               a(1) = (   1.000000   0.000000   0.000000 )  
               a(2) = (  -0.480769   0.832709   0.000000 )  
               a(3) = (   0.000000   0.000000   4.943891 )  

     reciprocal axes: (cart. coord. in units 2 pi/alat)
               b(1) = (  1.000000  0.577356 -0.000000 )  
               b(2) = (  0.000000  1.200900  0.000000 )  
               b(3) = (  0.000000 -0.000000  0.202270 )  


     PseudoPot. # 1 for Sb read from file:
     /zfs-home/202401017n1/pseudos/Sb_ONCV_PBE-1.2.upf
     MD5 check sum: 0417cd6c0fe8ce4611e2b23135f1abd9
     Pseudo is Norm-conserving, Zval = 15.0
     Generated using ONCVPSP code by D. R. Hamann
     Using radial grid of  602 points,  6 beta functions with: 
                l(1) =   0
                l(2) =   0
                l(3) =   1
                l(4) =   1
                l(5) =   2
                l(6) =   2

     PseudoPot. # 2 for Te read from file:
     /zfs-home/202401017n1/pseudos/Te_ONCV_PBE-1.2.upf
     MD5 check sum: dd4de4dac1e38587f63aaf3700bb29d3
     Pseudo is Norm-conserving, Zval = 16.0
     Generated using ONCVPSP code by D. R. Hamann
     Using radial grid of  602 points,  6 beta functions with: 
                l(1) =   0
                l(2) =   0
                l(3) =   1
                l(4) =   1
                l(5) =   2
                l(6) =   2

     atomic species   valence    mass     pseudopotential
     Sb               15.00   121.76000     Sb( 1.00)
     Te               16.00   127.60000     Te( 1.00)

     No symmetry found


                                    s                        frac. trans.

      isym =  1     identity                                     

 cryst.   s( 1) = (     1          0          0      )
                  (     0          1          0      )
                  (     0          0          1      )

 cart.    s( 1) = (  1.0000000  0.0000000  0.0000000 )
                  (  0.0000000  1.0000000  0.0000000 )
                  (  0.0000000  0.0000000  1.0000000 )


   Cartesian axes

     site n.     atom                  positions (alat units)
         1        Sb     tau(   1) = (   0.5904646   0.4157527   2.9115514  )
         2        Te     tau(   2) = (   0.5755298   0.3904446   1.6605492  )
         3        Sb     tau(   3) = (   0.0721083   0.1184920   2.0322939  )
         4        Te     tau(   4) = (   0.0869606   0.1439524   3.2833161  )
         5        Te     tau(   5) = (   0.0908738   0.6835524   2.4719228  )

     -------------------------------------------------
     Parameters for Dispersion (Grimme-D2) Correction:
     -------------------------------------------------
       atom      VdW radius       C_6     

        Sb         3.555       1333.532
        Te         3.575       1101.101

   Crystallographic axes

     site n.     atom                  positions (cryst. coord.)
         1        Sb     tau(   1) = (  0.8305018  0.4992775  0.5889190  )
         2        Te     tau(   2) = (  0.8009552  0.4688850  0.3358790  )
         3        Sb     tau(   3) = (  0.1405204  0.1422971  0.4110717  )
         4        Te     tau(   4) = (  0.1700723  0.1728725  0.6641158  )
         5        Te     tau(   5) = (  0.4855268  0.8208782  0.4999954  )

     number of k points=   221
                       cart. coord. in units 2pi/alat
        k(    1) = (   0.0000000   0.0000000   0.0000000), wk =   0.0045351
        k(    2) = (   0.0000000   0.0571857   0.0000000), wk =   0.0090703
        k(    3) = (   0.0000000   0.1143714   0.0000000), wk =   0.0090703
        k(    4) = (   0.0000000   0.1715572   0.0000000), wk =   0.0090703
        k(    5) = (   0.0000000   0.2287429   0.0000000), wk =   0.0090703
        k(    6) = (   0.0000000   0.2859286   0.0000000), wk =   0.0090703
        k(    7) = (   0.0000000   0.3431143   0.0000000), wk =   0.0090703
        k(    8) = (   0.0000000   0.4003001   0.0000000), wk =   0.0090703
        k(    9) = (   0.0000000   0.4574858   0.0000000), wk =   0.0090703
        k(   10) = (   0.0000000   0.5146715   0.0000000), wk =   0.0090703
        k(   11) = (   0.0000000   0.5718572   0.0000000), wk =   0.0090703
        k(   12) = (   0.0476190   0.0274931   0.0000000), wk =   0.0090703
        k(   13) = (   0.0476190   0.0846789   0.0000000), wk =   0.0090703
        k(   14) = (   0.0476190   0.1418646   0.0000000), wk =   0.0090703
        k(   15) = (   0.0476190   0.1990503   0.0000000), wk =   0.0090703
        k(   16) = (   0.0476190   0.2562360   0.0000000), wk =   0.0090703
        k(   17) = (   0.0476190   0.3134217   0.0000000), wk =   0.0090703
        k(   18) = (   0.0476190   0.3706075   0.0000000), wk =   0.0090703
        k(   19) = (   0.0476190   0.4277932   0.0000000), wk =   0.0090703
        k(   20) = (   0.0476190   0.4849789   0.0000000), wk =   0.0090703
        k(   21) = (   0.0476190   0.5421646   0.0000000), wk =   0.0090703
        k(   22) = (   0.0476190   0.5993504   0.0000000), wk =   0.0090703
        k(   23) = (   0.0476190  -0.5443641   0.0000000), wk =   0.0090703
        k(   24) = (   0.0476190  -0.4871784   0.0000000), wk =   0.0090703
        k(   25) = (   0.0476190  -0.4299926   0.0000000), wk =   0.0090703
        k(   26) = (   0.0476190  -0.3728069   0.0000000), wk =   0.0090703
        k(   27) = (   0.0476190  -0.3156212   0.0000000), wk =   0.0090703
        k(   28) = (   0.0476190  -0.2584355   0.0000000), wk =   0.0090703
        k(   29) = (   0.0476190  -0.2012498   0.0000000), wk =   0.0090703
        k(   30) = (   0.0476190  -0.1440640   0.0000000), wk =   0.0090703
        k(   31) = (   0.0476190  -0.0868783   0.0000000), wk =   0.0090703
        k(   32) = (   0.0476190  -0.0296926   0.0000000), wk =   0.0090703
        k(   33) = (   0.0952381   0.0549863   0.0000000), wk =   0.0090703
        k(   34) = (   0.0952381   0.1121720   0.0000000), wk =   0.0090703
        k(   35) = (   0.0952381   0.1693577   0.0000000), wk =   0.0090703
        k(   36) = (   0.0952381   0.2265434   0.0000000), wk =   0.0090703
        k(   37) = (   0.0952381   0.2837292   0.0000000), wk =   0.0090703
        k(   38) = (   0.0952381   0.3409149   0.0000000), wk =   0.0090703
        k(   39) = (   0.0952381   0.3981006   0.0000000), wk =   0.0090703
        k(   40) = (   0.0952381   0.4552863   0.0000000), wk =   0.0090703
        k(   41) = (   0.0952381   0.5124721   0.0000000), wk =   0.0090703
        k(   42) = (   0.0952381   0.5696578   0.0000000), wk =   0.0090703
        k(   43) = (   0.0952381   0.6268435   0.0000000), wk =   0.0090703
        k(   44) = (   0.0952381  -0.5168710   0.0000000), wk =   0.0090703
        k(   45) = (   0.0952381  -0.4596852   0.0000000), wk =   0.0090703
        k(   46) = (   0.0952381  -0.4024995   0.0000000), wk =   0.0090703
        k(   47) = (   0.0952381  -0.3453138   0.0000000), wk =   0.0090703
        k(   48) = (   0.0952381  -0.2881281   0.0000000), wk =   0.0090703
        k(   49) = (   0.0952381  -0.2309423   0.0000000), wk =   0.0090703
        k(   50) = (   0.0952381  -0.1737566   0.0000000), wk =   0.0090703
        k(   51) = (   0.0952381  -0.1165709   0.0000000), wk =   0.0090703
        k(   52) = (   0.0952381  -0.0593852   0.0000000), wk =   0.0090703
        k(   53) = (   0.0952381  -0.0021995   0.0000000), wk =   0.0090703
        k(   54) = (   0.1428571   0.0824794   0.0000000), wk =   0.0090703
        k(   55) = (   0.1428571   0.1396651   0.0000000), wk =   0.0090703
        k(   56) = (   0.1428571   0.1968509   0.0000000), wk =   0.0090703
        k(   57) = (   0.1428571   0.2540366   0.0000000), wk =   0.0090703
        k(   58) = (   0.1428571   0.3112223   0.0000000), wk =   0.0090703
        k(   59) = (   0.1428571   0.3684080   0.0000000), wk =   0.0090703
        k(   60) = (   0.1428571   0.4255937   0.0000000), wk =   0.0090703
        k(   61) = (   0.1428571   0.4827795   0.0000000), wk =   0.0090703
        k(   62) = (   0.1428571   0.5399652   0.0000000), wk =   0.0090703
        k(   63) = (   0.1428571   0.5971509   0.0000000), wk =   0.0090703
        k(   64) = (   0.1428571   0.6543366   0.0000000), wk =   0.0090703
        k(   65) = (   0.1428571  -0.4893778   0.0000000), wk =   0.0090703
        k(   66) = (   0.1428571  -0.4321921   0.0000000), wk =   0.0090703
        k(   67) = (   0.1428571  -0.3750064   0.0000000), wk =   0.0090703
        k(   68) = (   0.1428571  -0.3178207   0.0000000), wk =   0.0090703
        k(   69) = (   0.1428571  -0.2606349   0.0000000), wk =   0.0090703
        k(   70) = (   0.1428571  -0.2034492   0.0000000), wk =   0.0090703
        k(   71) = (   0.1428571  -0.1462635   0.0000000), wk =   0.0090703
        k(   72) = (   0.1428571  -0.0890778   0.0000000), wk =   0.0090703
        k(   73) = (   0.1428571  -0.0318920   0.0000000), wk =   0.0090703
        k(   74) = (   0.1428571   0.0252937   0.0000000), wk =   0.0090703
        k(   75) = (   0.1904762   0.1099725   0.0000000), wk =   0.0090703
        k(   76) = (   0.1904762   0.1671583   0.0000000), wk =   0.0090703
        k(   77) = (   0.1904762   0.2243440   0.0000000), wk =   0.0090703
        k(   78) = (   0.1904762   0.2815297   0.0000000), wk =   0.0090703
        k(   79) = (   0.1904762   0.3387154   0.0000000), wk =   0.0090703
        k(   80) = (   0.1904762   0.3959012   0.0000000), wk =   0.0090703
        k(   81) = (   0.1904762   0.4530869   0.0000000), wk =   0.0090703
        k(   82) = (   0.1904762   0.5102726   0.0000000), wk =   0.0090703
        k(   83) = (   0.1904762   0.5674583   0.0000000), wk =   0.0090703
        k(   84) = (   0.1904762   0.6246440   0.0000000), wk =   0.0090703
        k(   85) = (   0.1904762   0.6818298   0.0000000), wk =   0.0090703
        k(   86) = (   0.1904762  -0.4618847   0.0000000), wk =   0.0090703
        k(   87) = (   0.1904762  -0.4046990   0.0000000), wk =   0.0090703
        k(   88) = (   0.1904762  -0.3475132   0.0000000), wk =   0.0090703
        k(   89) = (   0.1904762  -0.2903275   0.0000000), wk =   0.0090703
        k(   90) = (   0.1904762  -0.2331418   0.0000000), wk =   0.0090703
        k(   91) = (   0.1904762  -0.1759561   0.0000000), wk =   0.0090703
        k(   92) = (   0.1904762  -0.1187703   0.0000000), wk =   0.0090703
        k(   93) = (   0.1904762  -0.0615846   0.0000000), wk =   0.0090703
        k(   94) = (   0.1904762  -0.0043989   0.0000000), wk =   0.0090703
        k(   95) = (   0.1904762   0.0527868   0.0000000), wk =   0.0090703
        k(   96) = (   0.2380952   0.1374657   0.0000000), wk =   0.0090703
        k(   97) = (   0.2380952   0.1946514   0.0000000), wk =   0.0090703
        k(   98) = (   0.2380952   0.2518371   0.0000000), wk =   0.0090703
        k(   99) = (   0.2380952   0.3090228   0.0000000), wk =   0.0090703
        k(  100) = (   0.2380952   0.3662086   0.0000000), wk =   0.0090703
        k(  101) = (   0.2380952   0.4233943   0.0000000), wk =   0.0090703
        k(  102) = (   0.2380952   0.4805800   0.0000000), wk =   0.0090703
        k(  103) = (   0.2380952   0.5377657   0.0000000), wk =   0.0090703
        k(  104) = (   0.2380952   0.5949515   0.0000000), wk =   0.0090703
        k(  105) = (   0.2380952   0.6521372   0.0000000), wk =   0.0090703
        k(  106) = (   0.2380952   0.7093229   0.0000000), wk =   0.0090703
        k(  107) = (   0.2380952  -0.4343915   0.0000000), wk =   0.0090703
        k(  108) = (   0.2380952  -0.3772058   0.0000000), wk =   0.0090703
        k(  109) = (   0.2380952  -0.3200201   0.0000000), wk =   0.0090703
        k(  110) = (   0.2380952  -0.2628344   0.0000000), wk =   0.0090703
        k(  111) = (   0.2380952  -0.2056487   0.0000000), wk =   0.0090703
        k(  112) = (   0.2380952  -0.1484629   0.0000000), wk =   0.0090703
        k(  113) = (   0.2380952  -0.0912772   0.0000000), wk =   0.0090703
        k(  114) = (   0.2380952  -0.0340915   0.0000000), wk =   0.0090703
        k(  115) = (   0.2380952   0.0230942   0.0000000), wk =   0.0090703
        k(  116) = (   0.2380952   0.0802800   0.0000000), wk =   0.0090703
        k(  117) = (   0.2857143   0.1649588   0.0000000), wk =   0.0090703
        k(  118) = (   0.2857143   0.2221445   0.0000000), wk =   0.0090703
        k(  119) = (   0.2857143   0.2793303   0.0000000), wk =   0.0090703
        k(  120) = (   0.2857143   0.3365160   0.0000000), wk =   0.0090703
        k(  121) = (   0.2857143   0.3937017   0.0000000), wk =   0.0090703
        k(  122) = (   0.2857143   0.4508874   0.0000000), wk =   0.0090703
        k(  123) = (   0.2857143   0.5080732   0.0000000), wk =   0.0090703
        k(  124) = (   0.2857143   0.5652589   0.0000000), wk =   0.0090703
        k(  125) = (   0.2857143   0.6224446   0.0000000), wk =   0.0090703
        k(  126) = (   0.2857143   0.6796303   0.0000000), wk =   0.0090703
        k(  127) = (   0.2857143   0.7368160   0.0000000), wk =   0.0090703
        k(  128) = (   0.2857143  -0.4068984   0.0000000), wk =   0.0090703
        k(  129) = (   0.2857143  -0.3497127   0.0000000), wk =   0.0090703
        k(  130) = (   0.2857143  -0.2925270   0.0000000), wk =   0.0090703
        k(  131) = (   0.2857143  -0.2353412   0.0000000), wk =   0.0090703
        k(  132) = (   0.2857143  -0.1781555   0.0000000), wk =   0.0090703
        k(  133) = (   0.2857143  -0.1209698   0.0000000), wk =   0.0090703
        k(  134) = (   0.2857143  -0.0637841   0.0000000), wk =   0.0090703
        k(  135) = (   0.2857143  -0.0065984   0.0000000), wk =   0.0090703
        k(  136) = (   0.2857143   0.0505874   0.0000000), wk =   0.0090703
        k(  137) = (   0.2857143   0.1077731   0.0000000), wk =   0.0090703
        k(  138) = (   0.3333333   0.1924520   0.0000000), wk =   0.0090703
        k(  139) = (   0.3333333   0.2496377   0.0000000), wk =   0.0090703
        k(  140) = (   0.3333333   0.3068234   0.0000000), wk =   0.0090703
        k(  141) = (   0.3333333   0.3640091   0.0000000), wk =   0.0090703
        k(  142) = (   0.3333333   0.4211948   0.0000000), wk =   0.0090703
        k(  143) = (   0.3333333   0.4783806   0.0000000), wk =   0.0090703
        k(  144) = (   0.3333333   0.5355663   0.0000000), wk =   0.0090703
        k(  145) = (   0.3333333   0.5927520   0.0000000), wk =   0.0090703
        k(  146) = (   0.3333333   0.6499377   0.0000000), wk =   0.0090703
        k(  147) = (   0.3333333   0.7071235   0.0000000), wk =   0.0090703
        k(  148) = (   0.3333333   0.7643092   0.0000000), wk =   0.0090703
        k(  149) = (   0.3333333  -0.3794053   0.0000000), wk =   0.0090703
        k(  150) = (   0.3333333  -0.3222196   0.0000000), wk =   0.0090703
        k(  151) = (   0.3333333  -0.2650338   0.0000000), wk =   0.0090703
        k(  152) = (   0.3333333  -0.2078481   0.0000000), wk =   0.0090703
        k(  153) = (   0.3333333  -0.1506624   0.0000000), wk =   0.0090703
        k(  154) = (   0.3333333  -0.0934767   0.0000000), wk =   0.0090703
        k(  155) = (   0.3333333  -0.0362909   0.0000000), wk =   0.0090703
        k(  156) = (   0.3333333   0.0208948   0.0000000), wk =   0.0090703
        k(  157) = (   0.3333333   0.0780805   0.0000000), wk =   0.0090703
        k(  158) = (   0.3333333   0.1352662   0.0000000), wk =   0.0090703
        k(  159) = (   0.3809524   0.2199451   0.0000000), wk =   0.0090703
        k(  160) = (   0.3809524   0.2771308   0.0000000), wk =   0.0090703
        k(  161) = (   0.3809524   0.3343165   0.0000000), wk =   0.0090703
        k(  162) = (   0.3809524   0.3915023   0.0000000), wk =   0.0090703
        k(  163) = (   0.3809524   0.4486880   0.0000000), wk =   0.0090703
        k(  164) = (   0.3809524   0.5058737   0.0000000), wk =   0.0090703
        k(  165) = (   0.3809524   0.5630594   0.0000000), wk =   0.0090703
        k(  166) = (   0.3809524   0.6202451   0.0000000), wk =   0.0090703
        k(  167) = (   0.3809524   0.6774309   0.0000000), wk =   0.0090703
        k(  168) = (   0.3809524   0.7346166   0.0000000), wk =   0.0090703
        k(  169) = (   0.3809524   0.7918023   0.0000000), wk =   0.0090703
        k(  170) = (   0.3809524  -0.3519121   0.0000000), wk =   0.0090703
        k(  171) = (   0.3809524  -0.2947264   0.0000000), wk =   0.0090703
        k(  172) = (   0.3809524  -0.2375407   0.0000000), wk =   0.0090703
        k(  173) = (   0.3809524  -0.1803550   0.0000000), wk =   0.0090703
        k(  174) = (   0.3809524  -0.1231692   0.0000000), wk =   0.0090703
        k(  175) = (   0.3809524  -0.0659835   0.0000000), wk =   0.0090703
        k(  176) = (   0.3809524  -0.0087978   0.0000000), wk =   0.0090703
        k(  177) = (   0.3809524   0.0483879   0.0000000), wk =   0.0090703
        k(  178) = (   0.3809524   0.1055736   0.0000000), wk =   0.0090703
        k(  179) = (   0.3809524   0.1627594   0.0000000), wk =   0.0090703
        k(  180) = (   0.4285714   0.2474382   0.0000000), wk =   0.0090703
        k(  181) = (   0.4285714   0.3046239   0.0000000), wk =   0.0090703
        k(  182) = (   0.4285714   0.3618097   0.0000000), wk =   0.0090703
        k(  183) = (   0.4285714   0.4189954   0.0000000), wk =   0.0090703
        k(  184) = (   0.4285714   0.4761811   0.0000000), wk =   0.0090703
        k(  185) = (   0.4285714   0.5333668   0.0000000), wk =   0.0090703
        k(  186) = (   0.4285714   0.5905526   0.0000000), wk =   0.0090703
        k(  187) = (   0.4285714   0.6477383   0.0000000), wk =   0.0090703
        k(  188) = (   0.4285714   0.7049240   0.0000000), wk =   0.0090703
        k(  189) = (   0.4285714   0.7621097   0.0000000), wk =   0.0090703
        k(  190) = (   0.4285714   0.8192954   0.0000000), wk =   0.0090703
        k(  191) = (   0.4285714  -0.3244190   0.0000000), wk =   0.0090703
        k(  192) = (   0.4285714  -0.2672333   0.0000000), wk =   0.0090703
        k(  193) = (   0.4285714  -0.2100476   0.0000000), wk =   0.0090703
        k(  194) = (   0.4285714  -0.1528618   0.0000000), wk =   0.0090703
        k(  195) = (   0.4285714  -0.0956761   0.0000000), wk =   0.0090703
        k(  196) = (   0.4285714  -0.0384904   0.0000000), wk =   0.0090703
        k(  197) = (   0.4285714   0.0186953   0.0000000), wk =   0.0090703
        k(  198) = (   0.4285714   0.0758811   0.0000000), wk =   0.0090703
        k(  199) = (   0.4285714   0.1330668   0.0000000), wk =   0.0090703
        k(  200) = (   0.4285714   0.1902525   0.0000000), wk =   0.0090703
        k(  201) = (   0.4761905   0.2749314   0.0000000), wk =   0.0090703
        k(  202) = (   0.4761905   0.3321171   0.0000000), wk =   0.0090703
        k(  203) = (   0.4761905   0.3893028   0.0000000), wk =   0.0090703
        k(  204) = (   0.4761905   0.4464885   0.0000000), wk =   0.0090703
        k(  205) = (   0.4761905   0.5036742   0.0000000), wk =   0.0090703
        k(  206) = (   0.4761905   0.5608600   0.0000000), wk =   0.0090703
        k(  207) = (   0.4761905   0.6180457   0.0000000), wk =   0.0090703
        k(  208) = (   0.4761905   0.6752314   0.0000000), wk =   0.0090703
        k(  209) = (   0.4761905   0.7324171   0.0000000), wk =   0.0090703
        k(  210) = (   0.4761905   0.7896029   0.0000000), wk =   0.0090703
        k(  211) = (   0.4761905   0.8467886   0.0000000), wk =   0.0090703
        k(  212) = (   0.4761905  -0.2969259   0.0000000), wk =   0.0090703
        k(  213) = (   0.4761905  -0.2397401   0.0000000), wk =   0.0090703
        k(  214) = (   0.4761905  -0.1825544   0.0000000), wk =   0.0090703
        k(  215) = (   0.4761905  -0.1253687   0.0000000), wk =   0.0090703
        k(  216) = (   0.4761905  -0.0681830   0.0000000), wk =   0.0090703
        k(  217) = (   0.4761905  -0.0109973   0.0000000), wk =   0.0090703
        k(  218) = (   0.4761905   0.0461885   0.0000000), wk =   0.0090703
        k(  219) = (   0.4761905   0.1033742   0.0000000), wk =   0.0090703
        k(  220) = (   0.4761905   0.1605599   0.0000000), wk =   0.0090703
        k(  221) = (   0.4761905   0.2177456   0.0000000), wk =   0.0090703

                       cryst. coord.
        k(    1) = (   0.0000000   0.0000000   0.0000000), wk =   0.0045351
        k(    2) = (   0.0000000   0.0476190   0.0000000), wk =   0.0090703
        k(    3) = (   0.0000000   0.0952381   0.0000000), wk =   0.0090703
        k(    4) = (   0.0000000   0.1428571   0.0000000), wk =   0.0090703
        k(    5) = (   0.0000000   0.1904762   0.0000000), wk =   0.0090703
        k(    6) = (   0.0000000   0.2380952   0.0000000), wk =   0.0090703
        k(    7) = (   0.0000000   0.2857143   0.0000000), wk =   0.0090703
        k(    8) = (   0.0000000   0.3333333   0.0000000), wk =   0.0090703
        k(    9) = (   0.0000000   0.3809524   0.0000000), wk =   0.0090703
        k(   10) = (   0.0000000   0.4285714   0.0000000), wk =   0.0090703
        k(   11) = (   0.0000000   0.4761905   0.0000000), wk =   0.0090703
        k(   12) = (   0.0476190   0.0000000   0.0000000), wk =   0.0090703
        k(   13) = (   0.0476190   0.0476190   0.0000000), wk =   0.0090703
        k(   14) = (   0.0476190   0.0952381   0.0000000), wk =   0.0090703
        k(   15) = (   0.0476190   0.1428571   0.0000000), wk =   0.0090703
        k(   16) = (   0.0476190   0.1904762   0.0000000), wk =   0.0090703
        k(   17) = (   0.0476190   0.2380952   0.0000000), wk =   0.0090703
        k(   18) = (   0.0476190   0.2857143   0.0000000), wk =   0.0090703
        k(   19) = (   0.0476190   0.3333333   0.0000000), wk =   0.0090703
        k(   20) = (   0.0476190   0.3809524   0.0000000), wk =   0.0090703
        k(   21) = (   0.0476190   0.4285714   0.0000000), wk =   0.0090703
        k(   22) = (   0.0476190   0.4761905   0.0000000), wk =   0.0090703
        k(   23) = (   0.0476190  -0.4761905   0.0000000), wk =   0.0090703
        k(   24) = (   0.0476190  -0.4285714   0.0000000), wk =   0.0090703
        k(   25) = (   0.0476190  -0.3809524   0.0000000), wk =   0.0090703
        k(   26) = (   0.0476190  -0.3333333   0.0000000), wk =   0.0090703
        k(   27) = (   0.0476190  -0.2857143   0.0000000), wk =   0.0090703
        k(   28) = (   0.0476190  -0.2380952   0.0000000), wk =   0.0090703
        k(   29) = (   0.0476190  -0.1904762   0.0000000), wk =   0.0090703
        k(   30) = (   0.0476190  -0.1428571   0.0000000), wk =   0.0090703
        k(   31) = (   0.0476190  -0.0952381   0.0000000), wk =   0.0090703
        k(   32) = (   0.0476190  -0.0476190   0.0000000), wk =   0.0090703
        k(   33) = (   0.0952381   0.0000000   0.0000000), wk =   0.0090703
        k(   34) = (   0.0952381   0.0476190   0.0000000), wk =   0.0090703
        k(   35) = (   0.0952381   0.0952381   0.0000000), wk =   0.0090703
        k(   36) = (   0.0952381   0.1428571   0.0000000), wk =   0.0090703
        k(   37) = (   0.0952381   0.1904762   0.0000000), wk =   0.0090703
        k(   38) = (   0.0952381   0.2380952   0.0000000), wk =   0.0090703
        k(   39) = (   0.0952381   0.2857143   0.0000000), wk =   0.0090703
        k(   40) = (   0.0952381   0.3333333   0.0000000), wk =   0.0090703
        k(   41) = (   0.0952381   0.3809524   0.0000000), wk =   0.0090703
        k(   42) = (   0.0952381   0.4285714   0.0000000), wk =   0.0090703
        k(   43) = (   0.0952381   0.4761905   0.0000000), wk =   0.0090703
        k(   44) = (   0.0952381  -0.4761905   0.0000000), wk =   0.0090703
        k(   45) = (   0.0952381  -0.4285714   0.0000000), wk =   0.0090703
        k(   46) = (   0.0952381  -0.3809524   0.0000000), wk =   0.0090703
        k(   47) = (   0.0952381  -0.3333333   0.0000000), wk =   0.0090703
        k(   48) = (   0.0952381  -0.2857143   0.0000000), wk =   0.0090703
        k(   49) = (   0.0952381  -0.2380952   0.0000000), wk =   0.0090703
        k(   50) = (   0.0952381  -0.1904762   0.0000000), wk =   0.0090703
        k(   51) = (   0.0952381  -0.1428571   0.0000000), wk =   0.0090703
        k(   52) = (   0.0952381  -0.0952381   0.0000000), wk =   0.0090703
        k(   53) = (   0.0952381  -0.0476190   0.0000000), wk =   0.0090703
        k(   54) = (   0.1428571   0.0000000   0.0000000), wk =   0.0090703
        k(   55) = (   0.1428571   0.0476190   0.0000000), wk =   0.0090703
        k(   56) = (   0.1428571   0.0952381   0.0000000), wk =   0.0090703
        k(   57) = (   0.1428571   0.1428571   0.0000000), wk =   0.0090703
        k(   58) = (   0.1428571   0.1904762   0.0000000), wk =   0.0090703
        k(   59) = (   0.1428571   0.2380952   0.0000000), wk =   0.0090703
        k(   60) = (   0.1428571   0.2857143   0.0000000), wk =   0.0090703
        k(   61) = (   0.1428571   0.3333333   0.0000000), wk =   0.0090703
        k(   62) = (   0.1428571   0.3809524   0.0000000), wk =   0.0090703
        k(   63) = (   0.1428571   0.4285714   0.0000000), wk =   0.0090703
        k(   64) = (   0.1428571   0.4761905   0.0000000), wk =   0.0090703
        k(   65) = (   0.1428571  -0.4761905   0.0000000), wk =   0.0090703
        k(   66) = (   0.1428571  -0.4285714   0.0000000), wk =   0.0090703
        k(   67) = (   0.1428571  -0.3809524   0.0000000), wk =   0.0090703
        k(   68) = (   0.1428571  -0.3333333   0.0000000), wk =   0.0090703
        k(   69) = (   0.1428571  -0.2857143   0.0000000), wk =   0.0090703
        k(   70) = (   0.1428571  -0.2380952   0.0000000), wk =   0.0090703
        k(   71) = (   0.1428571  -0.1904762   0.0000000), wk =   0.0090703
        k(   72) = (   0.1428571  -0.1428571   0.0000000), wk =   0.0090703
        k(   73) = (   0.1428571  -0.0952381   0.0000000), wk =   0.0090703
        k(   74) = (   0.1428571  -0.0476190   0.0000000), wk =   0.0090703
        k(   75) = (   0.1904762   0.0000000   0.0000000), wk =   0.0090703
        k(   76) = (   0.1904762   0.0476190   0.0000000), wk =   0.0090703
        k(   77) = (   0.1904762   0.0952381   0.0000000), wk =   0.0090703
        k(   78) = (   0.1904762   0.1428571   0.0000000), wk =   0.0090703
        k(   79) = (   0.1904762   0.1904762   0.0000000), wk =   0.0090703
        k(   80) = (   0.1904762   0.2380952   0.0000000), wk =   0.0090703
        k(   81) = (   0.1904762   0.2857143   0.0000000), wk =   0.0090703
        k(   82) = (   0.1904762   0.3333333   0.0000000), wk =   0.0090703
        k(   83) = (   0.1904762   0.3809524   0.0000000), wk =   0.0090703
        k(   84) = (   0.1904762   0.4285714   0.0000000), wk =   0.0090703
        k(   85) = (   0.1904762   0.4761905   0.0000000), wk =   0.0090703
        k(   86) = (   0.1904762  -0.4761905   0.0000000), wk =   0.0090703
        k(   87) = (   0.1904762  -0.4285714   0.0000000), wk =   0.0090703
        k(   88) = (   0.1904762  -0.3809524   0.0000000), wk =   0.0090703
        k(   89) = (   0.1904762  -0.3333333   0.0000000), wk =   0.0090703
        k(   90) = (   0.1904762  -0.2857143   0.0000000), wk =   0.0090703
        k(   91) = (   0.1904762  -0.2380952   0.0000000), wk =   0.0090703
        k(   92) = (   0.1904762  -0.1904762   0.0000000), wk =   0.0090703
        k(   93) = (   0.1904762  -0.1428571   0.0000000), wk =   0.0090703
        k(   94) = (   0.1904762  -0.0952381   0.0000000), wk =   0.0090703
        k(   95) = (   0.1904762  -0.0476190   0.0000000), wk =   0.0090703
        k(   96) = (   0.2380952   0.0000000   0.0000000), wk =   0.0090703
        k(   97) = (   0.2380952   0.0476190   0.0000000), wk =   0.0090703
        k(   98) = (   0.2380952   0.0952381   0.0000000), wk =   0.0090703
        k(   99) = (   0.2380952   0.1428571   0.0000000), wk =   0.0090703
        k(  100) = (   0.2380952   0.1904762   0.0000000), wk =   0.0090703
        k(  101) = (   0.2380952   0.2380952   0.0000000), wk =   0.0090703
        k(  102) = (   0.2380952   0.2857143   0.0000000), wk =   0.0090703
        k(  103) = (   0.2380952   0.3333333   0.0000000), wk =   0.0090703
        k(  104) = (   0.2380952   0.3809524   0.0000000), wk =   0.0090703
        k(  105) = (   0.2380952   0.4285714   0.0000000), wk =   0.0090703
        k(  106) = (   0.2380952   0.4761905   0.0000000), wk =   0.0090703
        k(  107) = (   0.2380952  -0.4761905   0.0000000), wk =   0.0090703
        k(  108) = (   0.2380952  -0.4285714   0.0000000), wk =   0.0090703
        k(  109) = (   0.2380952  -0.3809524   0.0000000), wk =   0.0090703
        k(  110) = (   0.2380952  -0.3333333   0.0000000), wk =   0.0090703
        k(  111) = (   0.2380952  -0.2857143   0.0000000), wk =   0.0090703
        k(  112) = (   0.2380952  -0.2380952   0.0000000), wk =   0.0090703
        k(  113) = (   0.2380952  -0.1904762   0.0000000), wk =   0.0090703
        k(  114) = (   0.2380952  -0.1428571   0.0000000), wk =   0.0090703
        k(  115) = (   0.2380952  -0.0952381   0.0000000), wk =   0.0090703
        k(  116) = (   0.2380952  -0.0476190   0.0000000), wk =   0.0090703
        k(  117) = (   0.2857143   0.0000000   0.0000000), wk =   0.0090703
        k(  118) = (   0.2857143   0.0476190   0.0000000), wk =   0.0090703
        k(  119) = (   0.2857143   0.0952381   0.0000000), wk =   0.0090703
        k(  120) = (   0.2857143   0.1428571   0.0000000), wk =   0.0090703
        k(  121) = (   0.2857143   0.1904762   0.0000000), wk =   0.0090703
        k(  122) = (   0.2857143   0.2380952   0.0000000), wk =   0.0090703
        k(  123) = (   0.2857143   0.2857143   0.0000000), wk =   0.0090703
        k(  124) = (   0.2857143   0.3333333   0.0000000), wk =   0.0090703
        k(  125) = (   0.2857143   0.3809524   0.0000000), wk =   0.0090703
        k(  126) = (   0.2857143   0.4285714   0.0000000), wk =   0.0090703
        k(  127) = (   0.2857143   0.4761905   0.0000000), wk =   0.0090703
        k(  128) = (   0.2857143  -0.4761905   0.0000000), wk =   0.0090703
        k(  129) = (   0.2857143  -0.4285714   0.0000000), wk =   0.0090703
        k(  130) = (   0.2857143  -0.3809524   0.0000000), wk =   0.0090703
        k(  131) = (   0.2857143  -0.3333333   0.0000000), wk =   0.0090703
        k(  132) = (   0.2857143  -0.2857143   0.0000000), wk =   0.0090703
        k(  133) = (   0.2857143  -0.2380952   0.0000000), wk =   0.0090703
        k(  134) = (   0.2857143  -0.1904762   0.0000000), wk =   0.0090703
        k(  135) = (   0.2857143  -0.1428571   0.0000000), wk =   0.0090703
        k(  136) = (   0.2857143  -0.0952381   0.0000000), wk =   0.0090703
        k(  137) = (   0.2857143  -0.0476190   0.0000000), wk =   0.0090703
        k(  138) = (   0.3333333  -0.0000000   0.0000000), wk =   0.0090703
        k(  139) = (   0.3333333   0.0476190   0.0000000), wk =   0.0090703
        k(  140) = (   0.3333333   0.0952381   0.0000000), wk =   0.0090703
        k(  141) = (   0.3333333   0.1428571   0.0000000), wk =   0.0090703
        k(  142) = (   0.3333333   0.1904762   0.0000000), wk =   0.0090703
        k(  143) = (   0.3333333   0.2380952   0.0000000), wk =   0.0090703
        k(  144) = (   0.3333333   0.2857143   0.0000000), wk =   0.0090703
        k(  145) = (   0.3333333   0.3333333   0.0000000), wk =   0.0090703
        k(  146) = (   0.3333333   0.3809524   0.0000000), wk =   0.0090703
        k(  147) = (   0.3333333   0.4285714   0.0000000), wk =   0.0090703
        k(  148) = (   0.3333333   0.4761905   0.0000000), wk =   0.0090703
        k(  149) = (   0.3333333  -0.4761905   0.0000000), wk =   0.0090703
        k(  150) = (   0.3333333  -0.4285714   0.0000000), wk =   0.0090703
        k(  151) = (   0.3333333  -0.3809524   0.0000000), wk =   0.0090703
        k(  152) = (   0.3333333  -0.3333333   0.0000000), wk =   0.0090703
        k(  153) = (   0.3333333  -0.2857143   0.0000000), wk =   0.0090703
        k(  154) = (   0.3333333  -0.2380952   0.0000000), wk =   0.0090703
        k(  155) = (   0.3333333  -0.1904762   0.0000000), wk =   0.0090703
        k(  156) = (   0.3333333  -0.1428571   0.0000000), wk =   0.0090703
        k(  157) = (   0.3333333  -0.0952381   0.0000000), wk =   0.0090703
        k(  158) = (   0.3333333  -0.0476190   0.0000000), wk =   0.0090703
        k(  159) = (   0.3809524   0.0000000   0.0000000), wk =   0.0090703
        k(  160) = (   0.3809524   0.0476190   0.0000000), wk =   0.0090703
        k(  161) = (   0.3809524   0.0952381   0.0000000), wk =   0.0090703
        k(  162) = (   0.3809524   0.1428571   0.0000000), wk =   0.0090703
        k(  163) = (   0.3809524   0.1904762   0.0000000), wk =   0.0090703
        k(  164) = (   0.3809524   0.2380952   0.0000000), wk =   0.0090703
        k(  165) = (   0.3809524   0.2857143   0.0000000), wk =   0.0090703
        k(  166) = (   0.3809524   0.3333333   0.0000000), wk =   0.0090703
        k(  167) = (   0.3809524   0.3809524   0.0000000), wk =   0.0090703
        k(  168) = (   0.3809524   0.4285714   0.0000000), wk =   0.0090703
        k(  169) = (   0.3809524   0.4761905   0.0000000), wk =   0.0090703
        k(  170) = (   0.3809524  -0.4761905   0.0000000), wk =   0.0090703
        k(  171) = (   0.3809524  -0.4285714   0.0000000), wk =   0.0090703
        k(  172) = (   0.3809524  -0.3809524   0.0000000), wk =   0.0090703
        k(  173) = (   0.3809524  -0.3333333   0.0000000), wk =   0.0090703
        k(  174) = (   0.3809524  -0.2857143   0.0000000), wk =   0.0090703
        k(  175) = (   0.3809524  -0.2380952   0.0000000), wk =   0.0090703
        k(  176) = (   0.3809524  -0.1904762   0.0000000), wk =   0.0090703
        k(  177) = (   0.3809524  -0.1428571   0.0000000), wk =   0.0090703
        k(  178) = (   0.3809524  -0.0952381   0.0000000), wk =   0.0090703
        k(  179) = (   0.3809524  -0.0476190   0.0000000), wk =   0.0090703
        k(  180) = (   0.4285714   0.0000000   0.0000000), wk =   0.0090703
        k(  181) = (   0.4285714   0.0476190   0.0000000), wk =   0.0090703
        k(  182) = (   0.4285714   0.0952381   0.0000000), wk =   0.0090703
        k(  183) = (   0.4285714   0.1428571   0.0000000), wk =   0.0090703
        k(  184) = (   0.4285714   0.1904762   0.0000000), wk =   0.0090703
        k(  185) = (   0.4285714   0.2380952   0.0000000), wk =   0.0090703
        k(  186) = (   0.4285714   0.2857143   0.0000000), wk =   0.0090703
        k(  187) = (   0.4285714   0.3333333   0.0000000), wk =   0.0090703
        k(  188) = (   0.4285714   0.3809524   0.0000000), wk =   0.0090703
        k(  189) = (   0.4285714   0.4285714   0.0000000), wk =   0.0090703
        k(  190) = (   0.4285714   0.4761905   0.0000000), wk =   0.0090703
        k(  191) = (   0.4285714  -0.4761905   0.0000000), wk =   0.0090703
        k(  192) = (   0.4285714  -0.4285714   0.0000000), wk =   0.0090703
        k(  193) = (   0.4285714  -0.3809524   0.0000000), wk =   0.0090703
        k(  194) = (   0.4285714  -0.3333333   0.0000000), wk =   0.0090703
        k(  195) = (   0.4285714  -0.2857143   0.0000000), wk =   0.0090703
        k(  196) = (   0.4285714  -0.2380952   0.0000000), wk =   0.0090703
        k(  197) = (   0.4285714  -0.1904762   0.0000000), wk =   0.0090703
        k(  198) = (   0.4285714  -0.1428571   0.0000000), wk =   0.0090703
        k(  199) = (   0.4285714  -0.0952381   0.0000000), wk =   0.0090703
        k(  200) = (   0.4285714  -0.0476190   0.0000000), wk =   0.0090703
        k(  201) = (   0.4761905   0.0000000   0.0000000), wk =   0.0090703
        k(  202) = (   0.4761905   0.0476190   0.0000000), wk =   0.0090703
        k(  203) = (   0.4761905   0.0952381   0.0000000), wk =   0.0090703
        k(  204) = (   0.4761905   0.1428571   0.0000000), wk =   0.0090703
        k(  205) = (   0.4761905   0.1904762   0.0000000), wk =   0.0090703
        k(  206) = (   0.4761905   0.2380952   0.0000000), wk =   0.0090703
        k(  207) = (   0.4761905   0.2857143   0.0000000), wk =   0.0090703
        k(  208) = (   0.4761905   0.3333333   0.0000000), wk =   0.0090703
        k(  209) = (   0.4761905   0.3809524   0.0000000), wk =   0.0090703
        k(  210) = (   0.4761905   0.4285714   0.0000000), wk =   0.0090703
        k(  211) = (   0.4761905   0.4761905   0.0000000), wk =   0.0090703
        k(  212) = (   0.4761905  -0.4761905   0.0000000), wk =   0.0090703
        k(  213) = (   0.4761905  -0.4285714   0.0000000), wk =   0.0090703
        k(  214) = (   0.4761905  -0.3809524   0.0000000), wk =   0.0090703
        k(  215) = (   0.4761905  -0.3333333   0.0000000), wk =   0.0090703
        k(  216) = (   0.4761905  -0.2857143   0.0000000), wk =   0.0090703
        k(  217) = (   0.4761905  -0.2380952   0.0000000), wk =   0.0090703
        k(  218) = (   0.4761905  -0.1904762   0.0000000), wk =   0.0090703
        k(  219) = (   0.4761905  -0.1428571   0.0000000), wk =   0.0090703
        k(  220) = (   0.4761905  -0.0952381   0.0000000), wk =   0.0090703
        k(  221) = (   0.4761905  -0.0476190   0.0000000), wk =   0.0090703

     Dense  grid:   472441 G-vectors     FFT dimensions: (  64,  60, 300)

     Smooth grid:   119521 G-vectors     FFT dimensions: (  40,  40, 192)

     Dynamical RAM for                 wfc:       0.37 MB

     Dynamical RAM for     wfc (w. buffer):      82.17 MB

     Dynamical RAM for           str. fact:       0.60 MB

     Dynamical RAM for           local pot:       0.00 MB

     Dynamical RAM for          nlocal pot:       0.85 MB

     Dynamical RAM for                qrad:       3.59 MB

     Dynamical RAM for          rho,v,vnew:       2.04 MB

     Dynamical RAM for               rhoin:       0.68 MB

     Dynamical RAM for            rho*nmix:       4.81 MB

     Dynamical RAM for           G-vectors:       1.16 MB

     Dynamical RAM for          h,s,v(r/c):       0.28 MB

     Dynamical RAM for          <psi|beta>:       0.05 MB

     Dynamical RAM for                 psi:       0.74 MB

     Dynamical RAM for                hpsi:       0.74 MB

     Dynamical RAM for      wfcinit/wfcrot:       0.78 MB

     Estimated static dynamical RAM per process >      93.91 MB

     Estimated max dynamical RAM per process >     100.53 MB

     Estimated total dynamical RAM >       2.36 GB

     Initial potential from superposition of free atoms

     starting charge      77.7638, renormalised to      78.0000

     negative rho (up, down):  3.968E-04 0.000E+00
     Starting wfcs are random

     total cpu time spent up to now is        5.1 secs

     Self-consistent Calculation

     iteration #  1     ecut=    50.00 Ry     beta= 0.70
     Davidson diagonalization with overlap

---- Real-time Memory Report at c_bands before calling an iterative solver
           283 MiB given to the printing process from OS
             0 MiB allocation reported by mallinfo(arena+hblkhd)
        103129 MiB available memory on the node where the printing process lives
------------------
     ethr =  1.00E-02,  avg # of iterations = 11.0

     Threshold (ethr) on eigenvalues was too large:
     Diagonalizing with lowered threshold

     Davidson diagonalization with overlap

---- Real-time Memory Report at c_bands before calling an iterative solver
           289 MiB given to the printing process from OS
             0 MiB allocation reported by mallinfo(arena+hblkhd)
        103103 MiB available memory on the node where the printing process lives
------------------
     ethr =  1.27E-04,  avg # of iterations =  5.9

     negative rho (up, down):  1.638E-05 0.000E+00

     total cpu time spent up to now is       66.1 secs

     total energy              =    -806.57300493 Ry
     estimated scf accuracy    <       0.08899435 Ry

     iteration #  2     ecut=    50.00 Ry     beta= 0.70
     Davidson diagonalization with overlap

---- Real-time Memory Report at c_bands before calling an iterative solver
           295 MiB given to the printing process from OS
             0 MiB allocation reported by mallinfo(arena+hblkhd)
        103034 MiB available memory on the node where the printing process lives
------------------
     ethr =  1.14E-04,  avg # of iterations =  5.8

     negative rho (up, down):  2.803E-05 0.000E+00

     total cpu time spent up to now is       83.6 secs

     total energy              =    -806.51801437 Ry
     estimated scf accuracy    <       0.54014733 Ry

     iteration #  3     ecut=    50.00 Ry     beta= 0.70
     Davidson diagonalization with overlap

---- Real-time Memory Report at c_bands before calling an iterative solver
           295 MiB given to the printing process from OS
             0 MiB allocation reported by mallinfo(arena+hblkhd)
        103031 MiB available memory on the node where the printing process lives
------------------
     ethr =  1.14E-04,  avg # of iterations =  5.4

     negative rho (up, down):  2.339E-05 0.000E+00

     total cpu time spent up to now is       99.9 secs

     total energy              =    -806.58753647 Ry
     estimated scf accuracy    <       0.23325198 Ry

     iteration #  4     ecut=    50.00 Ry     beta= 0.70
     Davidson diagonalization with overlap

---- Real-time Memory Report at c_bands before calling an iterative solver
           296 MiB given to the printing process from OS
             0 MiB allocation reported by mallinfo(arena+hblkhd)
        103028 MiB available memory on the node where the printing process lives
------------------
     ethr =  1.14E-04,  avg # of iterations =  3.4

     negative rho (up, down):  2.919E-06 0.000E+00

     total cpu time spent up to now is      112.9 secs

     total energy              =    -806.61194981 Ry
     estimated scf accuracy    <       0.00409267 Ry

     iteration #  5     ecut=    50.00 Ry     beta= 0.70
     Davidson diagonalization with overlap

---- Real-time Memory Report at c_bands before calling an iterative solver
           296 MiB given to the printing process from OS
             0 MiB allocation reported by mallinfo(arena+hblkhd)
        103027 MiB available memory on the node where the printing process lives
------------------
     ethr =  5.25E-06,  avg # of iterations =  6.1

     negative rho (up, down):  2.616E-06 0.000E+00

     total cpu time spent up to now is      129.2 secs

     total energy              =    -806.61222847 Ry
     estimated scf accuracy    <       0.02051842 Ry

     iteration #  6     ecut=    50.00 Ry     beta= 0.70
     Davidson diagonalization with overlap

---- Real-time Memory Report at c_bands before calling an iterative solver
           296 MiB given to the printing process from OS
             0 MiB allocation reported by mallinfo(arena+hblkhd)
        103024 MiB available memory on the node where the printing process lives
------------------
     ethr =  5.25E-06,  avg # of iterations =  6.0

     negative rho (up, down):  1.861E-08 0.000E+00

     total cpu time spent up to now is      143.3 secs

     total energy              =    -806.61306520 Ry
     estimated scf accuracy    <       0.00358857 Ry

     iteration #  7     ecut=    50.00 Ry     beta= 0.70
     Davidson diagonalization with overlap

---- Real-time Memory Report at c_bands before calling an iterative solver
           296 MiB given to the printing process from OS
             0 MiB allocation reported by mallinfo(arena+hblkhd)
        103023 MiB available memory on the node where the printing process lives
------------------
     ethr =  4.60E-06,  avg # of iterations =  3.0

     total cpu time spent up to now is      155.2 secs

     total energy              =    -806.61331743 Ry
     estimated scf accuracy    <       0.00024064 Ry

     iteration #  8     ecut=    50.00 Ry     beta= 0.70
     Davidson diagonalization with overlap

---- Real-time Memory Report at c_bands before calling an iterative solver
           296 MiB given to the printing process from OS
             0 MiB allocation reported by mallinfo(arena+hblkhd)
        103021 MiB available memory on the node where the printing process lives
------------------
     ethr =  3.09E-07,  avg # of iterations =  5.6

     total cpu time spent up to now is      170.0 secs

     total energy              =    -806.61336969 Ry
     estimated scf accuracy    <       0.00014016 Ry

     iteration #  9     ecut=    50.00 Ry     beta= 0.70
     Davidson diagonalization with overlap

---- Real-time Memory Report at c_bands before calling an iterative solver
           297 MiB given to the printing process from OS
             0 MiB allocation reported by mallinfo(arena+hblkhd)
        103019 MiB available memory on the node where the printing process lives
------------------
     ethr =  1.80E-07,  avg # of iterations =  2.0

     total cpu time spent up to now is      181.0 secs

     total energy              =    -806.61336416 Ry
     estimated scf accuracy    <       0.00005757 Ry

     iteration # 10     ecut=    50.00 Ry     beta= 0.70
     Davidson diagonalization with overlap

---- Real-time Memory Report at c_bands before calling an iterative solver
           297 MiB given to the printing process from OS
             0 MiB allocation reported by mallinfo(arena+hblkhd)
        103017 MiB available memory on the node where the printing process lives
------------------
     ethr =  7.38E-08,  avg # of iterations =  4.1

     total cpu time spent up to now is      193.8 secs

     total energy              =    -806.61337107 Ry
     estimated scf accuracy    <       0.00000033 Ry

     iteration # 11     ecut=    50.00 Ry     beta= 0.70
     Davidson diagonalization with overlap

---- Real-time Memory Report at c_bands before calling an iterative solver
           297 MiB given to the printing process from OS
             0 MiB allocation reported by mallinfo(arena+hblkhd)
        103016 MiB available memory on the node where the printing process lives
------------------
     ethr =  4.27E-10,  avg # of iterations =  6.0

     total cpu time spent up to now is      211.0 secs

     total energy              =    -806.61337096 Ry
     estimated scf accuracy    <       0.00000452 Ry

     iteration # 12     ecut=    50.00 Ry     beta= 0.70
     Davidson diagonalization with overlap

---- Real-time Memory Report at c_bands before calling an iterative solver
           299 MiB given to the printing process from OS
             0 MiB allocation reported by mallinfo(arena+hblkhd)
        103014 MiB available memory on the node where the printing process lives
------------------
     ethr =  4.27E-10,  avg # of iterations =  5.7

     total cpu time spent up to now is      226.4 secs

     End of self-consistent calculation

          k = 0.0000 0.0000 0.0000 ( 14963 PWs)   bands (ev):

   -34.8374 -34.8371 -34.8370 -34.8367 -34.8035 -34.8033 -34.7969 -34.7966
   -34.7873 -34.7870 -34.7342 -34.7300 -34.7161 -34.6922 -34.6906 -27.6211
   -27.6206 -27.6200 -27.6195 -27.6137 -27.6132 -27.6095 -27.6090 -27.6068
   -27.6062 -10.7434 -10.2025  -9.1303  -6.3983  -5.0607  -0.2892  -0.1153
     0.0795   0.1668   0.3144   0.6429   0.6847   0.8634   1.0881

     occupation numbers 
     1.0000   1.0000   1.0000   1.0000   1.0000   1.0000   1.0000   1.0000
     1.0000   1.0000   1.0000   1.0000   1.0000   1.0000   1.0000   1.0000
     1.0000   1.0000   1.0000   1.0000   1.0000   1.0000   1.0000   1.0000
     1.0000   1.0000   1.0000   1.0000   1.0000   1.0000   1.0000   1.0000
     1.0000   1.0000   1.0000   1.0000   1.0000   1.0000   1.0000

          k = 0.0000 0.0572 0.0000 ( 14953 PWs)   bands (ev):

   -34.8374 -34.8371 -34.8370 -34.8367 -34.8035 -34.8033 -34.7969 -34.7966
   -34.7872 -34.7870 -34.7342 -34.7300 -34.7161 -34.6922 -34.6906 -27.6211
   -27.6206 -27.6199 -27.6194 -27.6137 -27.6131 -27.6095 -27.6090 -27.6068
   -27.6063 -10.7237 -10.1844  -9.1194  -6.4015  -5.0932  -0.3618  -0.2275
    -0.0016   0.0888   0.1355   0.5639   0.7424   0.8643   1.2770

     occupation numbers 
     1.0000   1.0000   1.0000   1.0000   1.0000   1.0000   1.0000   1.0000
     1.0000   1.0000   1.0000   1.0000   1.0000   1.0000   1.0000   1.0000
     1.0000   1.0000   1.0000   1.0000   1.0000   1.0000   1.0000   1.0000
     1.0000   1.0000   1.0000   1.0000   1.0000   1.0000   1.0000   1.0000
     1.0000   1.0000   1.0000   1.0000   1.0000   1.0000   1.0000

          k = 0.0000 0.1144 0.0000 ( 14969 PWs)   bands (ev):

   -34.8374 -34.8371 -34.8369 -34.8366 -34.8035 -34.8033 -34.7970 -34.7967
   -34.7872 -34.7870 -34.7342 -34.7300 -34.7161 -34.6921 -34.6906 -27.6211
   -27.6206 -27.6197 -27.6192 -27.6135 -27.6130 -27.6096 -27.6090 -27.6070
   -27.6065 -10.6647 -10.1305  -9.0875  -6.4130  -5.1907  -0.6870  -0.4337
    -0.2199  -0.0952   0.0103   0.2307   0.7898   1.0982   1.4305

     occupation numbers 
     1.0000   1.0000   1.0000   1.0000   1.0000   1.0000   1.0000   1.0000
     1.0000   1.0000   1.0000   1.0000   1.0000   1.0000   1.0000   1.0000
     1.0000   1.0000   1.0000   1.0000   1.0000   1.0000   1.0000   1.0000
     1.0000   1.0000   1.0000   1.0000   1.0000   1.0000   1.0000   1.0000
     1.0000   1.0000   1.0000   1.0000   1.0000   1.0000   1.0000

          k = 0.0000 0.1716 0.0000 ( 14964 PWs)   bands (ev):

   -34.8374 -34.8371 -34.8367 -34.8364 -34.8035 -34.8033 -34.7970 -34.7967
   -34.7871 -34.7869 -34.7341 -34.7300 -34.7162 -34.6920 -34.6905 -27.6212
   -27.6207 -27.6193 -27.6188 -27.6133 -27.6128 -27.6096 -27.6090 -27.6073
   -27.6067 -10.5674 -10.0419  -9.0370  -6.4384  -5.3510  -1.1482  -0.6495
    -0.4989  -0.3595  -0.1573   0.1023   0.8158   1.1062   1.4015

     occupation numbers 
     1.0000   1.0000   1.0000   1.0000   1.0000   1.0000   1.0000   1.0000
     1.0000   1.0000   1.0000   1.0000   1.0000   1.0000   1.0000   1.0000
     1.0000   1.0000   1.0000   1.0000   1.0000   1.0000   1.0000   1.0000
     1.0000   1.0000   1.0000   1.0000   1.0000   1.0000   1.0000   1.0000
     1.0000   1.0000   1.0000   1.0000   1.0000   1.0000   1.0000

          k = 0.0000 0.2287 0.0000 ( 14958 PWs)   bands (ev):

   -34.8374 -34.8371 -34.8366 -34.8363 -34.8035 -34.8033 -34.7970 -34.7967
   -34.7870 -34.7868 -34.7341 -34.7300 -34.7162 -34.6919 -34.6904 -27.6213
   -27.6208 -27.6188 -27.6183 -27.6131 -27.6126 -27.6096 -27.6090 -27.6077
   -27.6071 -10.4329  -9.9210  -8.9723  -6.4868  -5.5674  -1.6077  -0.8740
    -0.8391  -0.6010  -0.3312   0.1023   0.7559   0.8092   1.5065

     occupation numbers 
     1.0000   1.0000   1.0000   1.0000   1.0000   1.0000   1.0000   1.0000
     1.0000   1.0000   1.0000   1.0000   1.0000   1.0000   1.0000   1.0000
     1.0000   1.0000   1.0000   1.0000   1.0000   1.0000   1.0000   1.0000
     1.0000   1.0000   1.0000   1.0000   1.0000   1.0000   1.0000   1.0000
     1.0000   1.0000   1.0000   1.0000   1.0000   1.0000   1.0000

          k = 0.0000 0.2859 0.0000 ( 14967 PWs)   bands (ev):

   -34.8374 -34.8371 -34.8364 -34.8361 -34.8035 -34.8034 -34.7971 -34.7968
   -34.7869 -34.7867 -34.7340 -34.7301 -34.7163 -34.6918 -34.6903 -27.6214
   -27.6209 -27.6182 -27.6177 -27.6129 -27.6123 -27.6097 -27.6089 -27.6081
   -27.6075 -10.2635  -9.7712  -8.9001  -6.5695  -5.8262  -2.0247  -1.1799
    -1.0830  -0.7666  -0.5007   0.0969   0.4423   0.7639   1.4657

     occupation numbers 
     1.0000   1.0000   1.0000   1.0000   1.0000   1.0000   1.0000   1.0000
     1.0000   1.0000   1.0000   1.0000   1.0000   1.0000   1.0000   1.0000
     1.0000   1.0000   1.0000   1.0000   1.0000   1.0000   1.0000   1.0000
     1.0000   1.0000   1.0000   1.0000   1.0000   1.0000   1.0000   1.0000
     1.0000   1.0000   1.0000   1.0000   1.0000   1.0000   1.0000

          k = 0.0000 0.3431 0.0000 ( 14941 PWs)   bands (ev):

   -34.8374 -34.8371 -34.8362 -34.8359 -34.8036 -34.8034 -34.7971 -34.7968
   -34.7868 -34.7866 -34.7340 -34.7301 -34.7163 -34.6917 -34.6902 -27.6216
   -27.6210 -27.6177 -27.6172 -27.6126 -27.6121 -27.6097 -27.6089 -27.6085
   -27.6079 -10.0624  -9.5984  -8.8303  -6.6971  -6.1046  -2.3814  -1.4589
    -1.2702  -0.8975  -0.6566  -0.0450   0.3263   0.7046   1.2942

     occupation numbers 
     1.0000   1.0000   1.0000   1.0000   1.0000   1.0000   1.0000   1.0000
     1.0000   1.0000   1.0000   1.0000   1.0000   1.0000   1.0000   1.0000
     1.0000   1.0000   1.0000   1.0000   1.0000   1.0000   1.0000   1.0000
     1.0000   1.0000   1.0000   1.0000   1.0000   1.0000   1.0000   1.0000
     1.0000   1.0000   1.0000   1.0000   1.0000   1.0000   1.0000

          k = 0.0000 0.4003 0.0000 ( 14966 PWs)   bands (ev):

   -34.8374 -34.8371 -34.8360 -34.8357 -34.8036 -34.8034 -34.7972 -34.7969
   -34.7867 -34.7865 -34.7339 -34.7301 -34.7164 -34.6916 -34.6901 -27.6217
   -27.6211 -27.6172 -27.6167 -27.6125 -27.6120 -27.6096 -27.6089 -27.6088
   -27.6083  -9.8351  -9.4117  -8.7771  -6.8729  -6.3736  -2.6706  -1.6586
    -1.4253  -1.0266  -0.7913  -0.2433   0.3529   0.6417   1.0794

     occupation numbers 
     1.0000   1.0000   1.0000   1.0000   1.0000   1.0000   1.0000   1.0000
     1.0000   1.0000   1.0000   1.0000   1.0000   1.0000   1.0000   1.0000
     1.0000   1.0000   1.0000   1.0000   1.0000   1.0000   1.0000   1.0000
     1.0000   1.0000   1.0000   1.0000   1.0000   1.0000   1.0000   1.0000
     1.0000   1.0000   1.0000   1.0000   1.0000   1.0000   1.0000

          k = 0.0000 0.4575 0.0000 ( 14960 PWs)   bands (ev):

   -34.8374 -34.8371 -34.8358 -34.8355 -34.8036 -34.8034 -34.7972 -34.7969
   -34.7866 -34.7864 -34.7338 -34.7301 -34.7164 -34.6915 -34.6900 -27.6218
   -27.6212 -27.6167 -27.6163 -27.6123 -27.6118 -27.6096 -27.6092 -27.6088
   -27.6086  -9.5898  -9.2263  -8.7599  -7.0793  -6.6056  -2.8907  -1.7713
    -1.5446  -1.1772  -0.8985  -0.3675   0.3988   0.5841   0.8834

     occupation numbers 
     1.0000   1.0000   1.0000   1.0000   1.0000   1.0000   1.0000   1.0000
     1.0000   1.0000   1.0000   1.0000   1.0000   1.0000   1.0000   1.0000
     1.0000   1.0000   1.0000   1.0000   1.0000   1.0000   1.0000   1.0000
     1.0000   1.0000   1.0000   1.0000   1.0000   1.0000   1.0000   1.0000
     1.0000   1.0000   1.0000   1.0000   1.0000   1.0000   1.0000

          k = 0.0000 0.5147 0.0000 ( 14967 PWs)   bands (ev):

   -34.8374 -34.8371 -34.8357 -34.8354 -34.8036 -34.8034 -34.7972 -34.7969
   -34.7866 -34.7863 -34.7338 -34.7301 -34.7164 -34.6915 -34.6899 -27.6218
   -27.6213 -27.6164 -27.6159 -27.6123 -27.6118 -27.6095 -27.6093 -27.6089
   -27.6086  -9.3400  -9.0671  -8.8013  -7.2701  -6.7804  -3.0404  -1.8030
    -1.6262  -1.3366  -0.9719  -0.4174   0.4305   0.5362   0.7470

     occupation numbers 
     1.0000   1.0000   1.0000   1.0000   1.0000   1.0000   1.0000   1.0000
     1.0000   1.0000   1.0000   1.0000   1.0000   1.0000   1.0000   1.0000
     1.0000   1.0000   1.0000   1.0000   1.0000   1.0000   1.0000   1.0000
     1.0000   1.0000   1.0000   1.0000   1.0000   1.0000   1.0000   1.0000
     1.0000   1.0000   1.0000   1.0000   1.0000   1.0000   1.0000

          k = 0.0000 0.5719 0.0000 ( 14962 PWs)   bands (ev):

   -34.8374 -34.8371 -34.8357 -34.8354 -34.8036 -34.8034 -34.7972 -34.7969
   -34.7865 -34.7863 -34.7338 -34.7301 -34.7165 -34.6915 -34.6898 -27.6219
   -27.6213 -27.6163 -27.6158 -27.6122 -27.6118 -27.6096 -27.6093 -27.6090
   -27.6086  -9.1074  -8.9706  -8.9177  -7.3869  -6.8769  -3.1166  -1.7841
    -1.6696  -1.4541  -1.0089  -0.4287   0.4367   0.5067   0.6884

     occupation numbers 
     1.0000   1.0000   1.0000   1.0000   1.0000   1.0000   1.0000   1.0000
     1.0000   1.0000   1.0000   1.0000   1.0000   1.0000   1.0000   1.0000
     1.0000   1.0000   1.0000   1.0000   1.0000   1.0000   1.0000   1.0000
     1.0000   1.0000   1.0000   1.0000   1.0000   1.0000   1.0000   1.0000
     1.0000   1.0000   1.0000   1.0000   1.0000   1.0000   1.0000

          k = 0.0476 0.0275 0.0000 ( 14959 PWs)   bands (ev):

   -34.8374 -34.8371 -34.8370 -34.8367 -34.8035 -34.8033 -34.7969 -34.7966
   -34.7872 -34.7870 -34.7342 -34.7300 -34.7161 -34.6922 -34.6906 -27.6210
   -27.6205 -27.6200 -27.6195 -27.6137 -27.6131 -27.6095 -27.6090 -27.6068
   -27.6062 -10.7251 -10.1859  -9.1207  -6.4034  -5.0980  -0.3749  -0.3427
    -0.0121   0.1243   0.2924   0.4935   0.8219   0.9061   1.2223

     occupation numbers 
     1.0000   1.0000   1.0000   1.0000   1.0000   1.0000   1.0000   1.0000
     1.0000   1.0000   1.0000   1.0000   1.0000   1.0000   1.0000   1.0000
     1.0000   1.0000   1.0000   1.0000   1.0000   1.0000   1.0000   1.0000
     1.0000   1.0000   1.0000   1.0000   1.0000   1.0000   1.0000   1.0000
     1.0000   1.0000   1.0000   1.0000   1.0000   1.0000   1.0000

          k = 0.0476 0.0847 0.0000 ( 14968 PWs)   bands (ev):

   -34.8374 -34.8371 -34.8369 -34.8366 -34.8035 -34.8033 -34.7970 -34.7966
   -34.7872 -34.7870 -34.7342 -34.7300 -34.7161 -34.6922 -34.6906 -27.6211
   -27.6205 -27.6199 -27.6193 -27.6136 -27.6131 -27.6096 -27.6090 -27.6069
   -27.6063 -10.6866 -10.1508  -9.1001  -6.4118  -5.1655  -0.6239  -0.4733
    -0.1181  -0.0103   0.0997   0.4020   0.7714   1.0560   1.4069

     occupation numbers 
     1.0000   1.0000   1.0000   1.0000   1.0000   1.0000   1.0000   1.0000
     1.0000   1.0000   1.0000   1.0000   1.0000   1.0000   1.0000   1.0000
     1.0000   1.0000   1.0000   1.0000   1.0000   1.0000   1.0000   1.0000
     1.0000   1.0000   1.0000   1.0000   1.0000   1.0000   1.0000   1.0000
     1.0000   1.0000   1.0000   1.0000   1.0000   1.0000   1.0000

          k = 0.0476 0.1419 0.0000 ( 14952 PWs)   bands (ev):

   -34.8374 -34.8371 -34.8368 -34.8365 -34.8035 -34.8033 -34.7970 -34.7967
   -34.7872 -34.7869 -34.7341 -34.7300 -34.7161 -34.6921 -34.6906 -27.6211
   -27.6206 -27.6196 -27.6190 -27.6135 -27.6129 -27.6096 -27.6090 -27.6071
   -27.6065 -10.6091 -10.0803  -9.0595  -6.4310  -5.2961  -0.9793  -0.6825
    -0.4270  -0.2485   0.0342   0.2299   0.7020   1.2400   1.4245

     occupation numbers 
     1.0000   1.0000   1.0000   1.0000   1.0000   1.0000   1.0000   1.0000
     1.0000   1.0000   1.0000   1.0000   1.0000   1.0000   1.0000   1.0000
     1.0000   1.0000   1.0000   1.0000   1.0000   1.0000   1.0000   1.0000
     1.0000   1.0000   1.0000   1.0000   1.0000   1.0000   1.0000   1.0000
     1.0000   1.0000   1.0000   1.0000   1.0000   1.0000   1.0000

          k = 0.0476 0.1991 0.0000 ( 14943 PWs)   bands (ev):

   -34.8374 -34.8371 -34.8367 -34.8364 -34.8035 -34.8034 -34.7970 -34.7967
   -34.7871 -34.7868 -34.7341 -34.7300 -34.7162 -34.6919 -34.6905 -27.6212
   -27.6207 -27.6191 -27.6186 -27.6133 -27.6127 -27.6097 -27.6090 -27.6074
   -27.6068 -10.4938  -9.9763  -9.0023  -6.4681  -5.4855  -1.3933  -0.9642
    -0.6818  -0.4666  -0.1589   0.1051   0.6813   1.0883   1.4942

     occupation numbers 
     1.0000   1.0000   1.0000   1.0000   1.0000   1.0000   1.0000   1.0000
     1.0000   1.0000   1.0000   1.0000   1.0000   1.0000   1.0000   1.0000
     1.0000   1.0000   1.0000   1.0000   1.0000   1.0000   1.0000   1.0000
     1.0000   1.0000   1.0000   1.0000   1.0000   1.0000   1.0000   1.0000
     1.0000   1.0000   1.0000   1.0000   1.0000   1.0000   1.0000

          k = 0.0476 0.2562 0.0000 ( 14943 PWs)   bands (ev):

   -34.8374 -34.8371 -34.8365 -34.8362 -34.8035 -34.8034 -34.7970 -34.7967
   -34.7870 -34.7867 -34.7340 -34.7301 -34.7162 -34.6918 -34.6905 -27.6213
   -27.6208 -27.6186 -27.6181 -27.6131 -27.6125 -27.6097 -27.6090 -27.6078
   -27.6071 -10.3424  -9.8414  -8.9339  -6.5328  -5.7241  -1.8128  -1.2419
    -0.8879  -0.6822  -0.4190   0.0746   0.6094   0.8462   1.5189

     occupation numbers 
     1.0000   1.0000   1.0000   1.0000   1.0000   1.0000   1.0000   1.0000
     1.0000   1.0000   1.0000   1.0000   1.0000   1.0000   1.0000   1.0000
     1.0000   1.0000   1.0000   1.0000   1.0000   1.0000   1.0000   1.0000
     1.0000   1.0000   1.0000   1.0000   1.0000   1.0000   1.0000   1.0000
     1.0000   1.0000   1.0000   1.0000   1.0000   1.0000   1.0000

          k = 0.0476 0.3134 0.0000 ( 14929 PWs)   bands (ev):

   -34.8374 -34.8371 -34.8363 -34.8360 -34.8036 -34.8034 -34.7971 -34.7968
   -34.7869 -34.7866 -34.7340 -34.7301 -34.7163 -34.6917 -34.6903 -27.6214
   -27.6209 -27.6180 -27.6175 -27.6128 -27.6123 -27.6098 -27.6090 -27.6082
   -27.6075 -10.1575  -9.6803  -8.8621  -6.6360  -5.9943  -2.1954  -1.4687
    -1.1120  -0.8826  -0.5966   0.0076   0.4601   0.7192   1.4185

     occupation numbers 
     1.0000   1.0000   1.0000   1.0000   1.0000   1.0000   1.0000   1.0000
     1.0000   1.0000   1.0000   1.0000   1.0000   1.0000   1.0000   1.0000
     1.0000   1.0000   1.0000   1.0000   1.0000   1.0000   1.0000   1.0000
     1.0000   1.0000   1.0000   1.0000   1.0000   1.0000   1.0000   1.0000
     1.0000   1.0000   1.0000   1.0000   1.0000   1.0000   1.0000

          k = 0.0476 0.3706 0.0000 ( 14940 PWs)   bands (ev):

   -34.8374 -34.8371 -34.8361 -34.8358 -34.8036 -34.8034 -34.7971 -34.7968
   -34.7868 -34.7865 -34.7339 -34.7301 -34.7163 -34.6916 -34.6902 -27.6215
   -27.6210 -27.6175 -27.6170 -27.6126 -27.6121 -27.6097 -27.6089 -27.6085
   -27.6079  -9.9434  -9.4999  -8.7986  -6.7858  -6.2704  -2.5193  -1.6332
    -1.3409  -1.0597  -0.7007  -0.1437   0.3666   0.6623   1.2400

     occupation numbers 
     1.0000   1.0000   1.0000   1.0000   1.0000   1.0000   1.0000   1.0000
     1.0000   1.0000   1.0000   1.0000   1.0000   1.0000   1.0000   1.0000
     1.0000   1.0000   1.0000   1.0000   1.0000   1.0000   1.0000   1.0000
     1.0000   1.0000   1.0000   1.0000   1.0000   1.0000   1.0000   1.0000
     1.0000   1.0000   1.0000   1.0000   1.0000   1.0000   1.0000

          k = 0.0476 0.4278 0.0000 ( 14949 PWs)   bands (ev):

   -34.8374 -34.8371 -34.8359 -34.8356 -34.8036 -34.8034 -34.7972 -34.7969
   -34.7867 -34.7864 -34.7339 -34.7301 -34.7164 -34.6915 -34.6901 -27.6217
   -27.6211 -27.6170 -27.6165 -27.6125 -27.6120 -27.6097 -27.6090 -27.6088
   -27.6083  -9.7067  -9.3121  -8.7597  -6.9781  -6.5227  -2.7755  -1.7342
    -1.5313  -1.2164  -0.7820  -0.3111   0.3468   0.6279   1.0436

     occupation numbers 
     1.0000   1.0000   1.0000   1.0000   1.0000   1.0000   1.0000   1.0000
     1.0000   1.0000   1.0000   1.0000   1.0000   1.0000   1.0000   1.0000
     1.0000   1.0000   1.0000   1.0000   1.0000   1.0000   1.0000   1.0000
     1.0000   1.0000   1.0000   1.0000   1.0000   1.0000   1.0000   1.0000
     1.0000   1.0000   1.0000   1.0000   1.0000   1.0000   1.0000

          k = 0.0476 0.4850 0.0000 ( 14948 PWs)   bands (ev):

   -34.8374 -34.8371 -34.8358 -34.8355 -34.8036 -34.8034 -34.7972 -34.7969
   -34.7866 -34.7864 -34.7338 -34.7301 -34.7164 -34.6915 -34.6900 -27.6217
   -27.6212 -27.6166 -27.6161 -27.6124 -27.6119 -27.6096 -27.6092 -27.6088
   -27.6086  -9.4578  -9.1360  -8.7668  -7.1826  -6.7271  -2.9612  -1.7864
    -1.6485  -1.3583  -0.8746  -0.4139   0.3606   0.5975   0.8754

     occupation numbers 
     1.0000   1.0000   1.0000   1.0000   1.0000   1.0000   1.0000   1.0000
     1.0000   1.0000   1.0000   1.0000   1.0000   1.0000   1.0000   1.0000
     1.0000   1.0000   1.0000   1.0000   1.0000   1.0000   1.0000   1.0000
     1.0000   1.0000   1.0000   1.0000   1.0000   1.0000   1.0000   1.0000
     1.0000   1.0000   1.0000   1.0000   1.0000   1.0000   1.0000

          k = 0.0476 0.5422 0.0000 ( 14934 PWs)   bands (ev):

   -34.8374 -34.8371 -34.8357 -34.8354 -34.8036 -34.8034 -34.7972 -34.7969
   -34.7866 -34.7863 -34.7338 -34.7301 -34.7164 -34.6915 -34.6899 -27.6218
   -27.6213 -27.6164 -27.6159 -27.6123 -27.6118 -27.6096 -27.6093 -27.6089
   -27.6086  -9.2139  -9.0022  -8.8416  -7.3438  -6.8644  -3.0748  -1.8245
    -1.6601  -1.4890  -0.9577  -0.4514   0.3952   0.5461   0.7758

     occupation numbers 
     1.0000   1.0000   1.0000   1.0000   1.0000   1.0000   1.0000   1.0000
     1.0000   1.0000   1.0000   1.0000   1.0000   1.0000   1.0000   1.0000
     1.0000   1.0000   1.0000   1.0000   1.0000   1.0000   1.0000   1.0000
     1.0000   1.0000   1.0000   1.0000   1.0000   1.0000   1.0000   1.0000
     1.0000   1.0000   1.0000   1.0000   1.0000   1.0000   1.0000

          k = 0.0476 0.5994 0.0000 ( 14953 PWs)   bands (ev):

   -34.8374 -34.8371 -34.8357 -34.8354 -34.8036 -34.8034 -34.7972 -34.7969
   -34.7865 -34.7863 -34.7338 -34.7301 -34.7165 -34.6915 -34.6898 -27.6218
   -27.6213 -27.6163 -27.6158 -27.6122 -27.6118 -27.6096 -27.6094 -27.6090
   -27.6086  -9.0101  -8.9832  -8.9492  -7.4066  -6.9134  -3.1139  -1.8364
    -1.6384  -1.5569  -0.9926  -0.4563   0.4342   0.4889   0.7518

     occupation numbers 
     1.0000   1.0000   1.0000   1.0000   1.0000   1.0000   1.0000   1.0000
     1.0000   1.0000   1.0000   1.0000   1.0000   1.0000   1.0000   1.0000
     1.0000   1.0000   1.0000   1.0000   1.0000   1.0000   1.0000   1.0000
     1.0000   1.0000   1.0000   1.0000   1.0000   1.0000   1.0000   1.0000
     1.0000   1.0000   1.0000   1.0000   1.0000   1.0000   1.0000

          k = 0.0476-0.5444 0.0000 ( 14967 PWs)   bands (ev):

   -34.8374 -34.8371 -34.8357 -34.8354 -34.8036 -34.8034 -34.7972 -34.7969
   -34.7866 -34.7863 -34.7338 -34.7301 -34.7165 -34.6915 -34.6898 -27.6218
   -27.6213 -27.6164 -27.6159 -27.6122 -27.6117 -27.6095 -27.6094 -27.6090
   -27.6086  -9.2058  -8.9980  -8.8451  -7.3462  -6.8633  -3.0775  -1.8097
    -1.7017  -1.4575  -0.9686  -0.4420   0.4139   0.5077   0.7872

     occupation numbers 
     1.0000   1.0000   1.0000   1.0000   1.0000   1.0000   1.0000   1.0000
     1.0000   1.0000   1.0000   1.0000   1.0000   1.0000   1.0000   1.0000
     1.0000   1.0000   1.0000   1.0000   1.0000   1.0000   1.0000   1.0000
     1.0000   1.0000   1.0000   1.0000   1.0000   1.0000   1.0000   1.0000
     1.0000   1.0000   1.0000   1.0000   1.0000   1.0000   1.0000

          k = 0.0476-0.4872 0.0000 ( 14952 PWs)   bands (ev):

   -34.8374 -34.8371 -34.8358 -34.8355 -34.8036 -34.8034 -34.7972 -34.7969
   -34.7866 -34.7864 -34.7338 -34.7301 -34.7164 -34.6916 -34.6899 -27.6218
   -27.6212 -27.6166 -27.6161 -27.6122 -27.6118 -27.6095 -27.6093 -27.6089
   -27.6086  -9.4489  -9.1290  -8.7670  -7.1861  -6.7241  -2.9664  -1.7897
    -1.6664  -1.3243  -0.9020  -0.3942   0.3927   0.5343   0.8877

     occupation numbers 
     1.0000   1.0000   1.0000   1.0000   1.0000   1.0000   1.0000   1.0000
     1.0000   1.0000   1.0000   1.0000   1.0000   1.0000   1.0000   1.0000
     1.0000   1.0000   1.0000   1.0000   1.0000   1.0000   1.0000   1.0000
     1.0000   1.0000   1.0000   1.0000   1.0000   1.0000   1.0000   1.0000
     1.0000   1.0000   1.0000   1.0000   1.0000   1.0000   1.0000

          k = 0.0476-0.4300 0.0000 ( 14971 PWs)   bands (ev):

   -34.8374 -34.8371 -34.8359 -34.8356 -34.8036 -34.8034 -34.7972 -34.7969
   -34.7867 -34.7864 -34.7339 -34.7301 -34.7164 -34.6916 -34.6899 -27.6217
   -27.6212 -27.6169 -27.6165 -27.6123 -27.6118 -27.6096 -27.6091 -27.6088
   -27.6085  -9.6978  -9.3039  -8.7572  -6.9809  -6.5173  -2.7830  -1.7521
    -1.5303  -1.1779  -0.8217  -0.2846   0.3767   0.5657   1.0408

     occupation numbers 
     1.0000   1.0000   1.0000   1.0000   1.0000   1.0000   1.0000   1.0000
     1.0000   1.0000   1.0000   1.0000   1.0000   1.0000   1.0000   1.0000
     1.0000   1.0000   1.0000   1.0000   1.0000   1.0000   1.0000   1.0000
     1.0000   1.0000   1.0000   1.0000   1.0000   1.0000   1.0000   1.0000
     1.0000   1.0000   1.0000   1.0000   1.0000   1.0000   1.0000

          k = 0.0476-0.3728 0.0000 ( 14992 PWs)   bands (ev):

   -34.8374 -34.8371 -34.8361 -34.8358 -34.8036 -34.8034 -34.7971 -34.7968
   -34.7868 -34.7865 -34.7339 -34.7301 -34.7164 -34.6917 -34.6900 -27.6216
   -27.6211 -27.6174 -27.6169 -27.6124 -27.6119 -27.6096 -27.6089 -27.6088
   -27.6082  -9.9352  -9.4916  -8.7944  -6.7861  -6.2628  -2.5292  -1.6453
    -1.3428  -1.0205  -0.7353  -0.1132   0.3636   0.6214   1.2192

     occupation numbers 
     1.0000   1.0000   1.0000   1.0000   1.0000   1.0000   1.0000   1.0000
     1.0000   1.0000   1.0000   1.0000   1.0000   1.0000   1.0000   1.0000
     1.0000   1.0000   1.0000   1.0000   1.0000   1.0000   1.0000   1.0000
     1.0000   1.0000   1.0000   1.0000   1.0000   1.0000   1.0000   1.0000
     1.0000   1.0000   1.0000   1.0000   1.0000   1.0000   1.0000

          k = 0.0476-0.3156 0.0000 ( 14972 PWs)   bands (ev):

   -34.8374 -34.8371 -34.8363 -34.8360 -34.8035 -34.8034 -34.7971 -34.7968
   -34.7869 -34.7866 -34.7340 -34.7301 -34.7163 -34.6918 -34.6902 -27.6215
   -27.6210 -27.6179 -27.6174 -27.6126 -27.6121 -27.6096 -27.6089 -27.6084
   -27.6078 -10.1502  -9.6724  -8.8570  -6.6334  -5.9845  -2.2075  -1.4643
    -1.1251  -0.8524  -0.6147   0.0483   0.4073   0.6971   1.3877

     occupation numbers 
     1.0000   1.0000   1.0000   1.0000   1.0000   1.0000   1.0000   1.0000
     1.0000   1.0000   1.0000   1.0000   1.0000   1.0000   1.0000   1.0000
     1.0000   1.0000   1.0000   1.0000   1.0000   1.0000   1.0000   1.0000
     1.0000   1.0000   1.0000   1.0000   1.0000   1.0000   1.0000   1.0000
     1.0000   1.0000   1.0000   1.0000   1.0000   1.0000   1.0000

          k = 0.0476-0.2584 0.0000 ( 14968 PWs)   bands (ev):

   -34.8374 -34.8371 -34.8365 -34.8362 -34.8035 -34.8034 -34.7971 -34.7968
   -34.7870 -34.7867 -34.7341 -34.7301 -34.7162 -34.6919 -34.6903 -27.6214
   -27.6209 -27.6185 -27.6180 -27.6129 -27.6124 -27.6096 -27.6090 -27.6080
   -27.6074 -10.3361  -9.8346  -8.9288  -6.5282  -5.7125  -1.8242  -1.2184
    -0.8995  -0.6667  -0.4355   0.0996   0.5620   0.8042   1.4939

     occupation numbers 
     1.0000   1.0000   1.0000   1.0000   1.0000   1.0000   1.0000   1.0000
     1.0000   1.0000   1.0000   1.0000   1.0000   1.0000   1.0000   1.0000
     1.0000   1.0000   1.0000   1.0000   1.0000   1.0000   1.0000   1.0000
     1.0000   1.0000   1.0000   1.0000   1.0000   1.0000   1.0000   1.0000
     1.0000   1.0000   1.0000   1.0000   1.0000   1.0000   1.0000

          k = 0.0476-0.2012 0.0000 ( 14972 PWs)   bands (ev):

   -34.8374 -34.8371 -34.8366 -34.8364 -34.8035 -34.8033 -34.7970 -34.7967
   -34.7871 -34.7868 -34.7341 -34.7300 -34.7162 -34.6920 -34.6904 -27.6213
   -27.6208 -27.6190 -27.6185 -27.6131 -27.6126 -27.6096 -27.6090 -27.6076
   -27.6070 -10.4888  -9.9707  -8.9979  -6.4629  -5.4733  -1.3956  -0.9302
    -0.6628  -0.4640  -0.2120   0.1049   0.6577   1.0178   1.4868

     occupation numbers 
     1.0000   1.0000   1.0000   1.0000   1.0000   1.0000   1.0000   1.0000
     1.0000   1.0000   1.0000   1.0000   1.0000   1.0000   1.0000   1.0000
     1.0000   1.0000   1.0000   1.0000   1.0000   1.0000   1.0000   1.0000
     1.0000   1.0000   1.0000   1.0000   1.0000   1.0000   1.0000   1.0000
     1.0000   1.0000   1.0000   1.0000   1.0000   1.0000   1.0000

          k = 0.0476-0.1441 0.0000 ( 14961 PWs)   bands (ev):

   -34.8374 -34.8371 -34.8368 -34.8365 -34.8035 -34.8033 -34.7970 -34.7967
   -34.7871 -34.7869 -34.7342 -34.7300 -34.7161 -34.6921 -34.6905 -27.6212
   -27.6207 -27.6194 -27.6189 -27.6134 -27.6129 -27.6096 -27.6090 -27.6072
   -27.6067 -10.6054 -10.0762  -9.0561  -6.4264  -5.2851  -0.9563  -0.6405
    -0.3665  -0.2809  -0.0514   0.2051   0.6521   1.2355   1.3863

     occupation numbers 
     1.0000   1.0000   1.0000   1.0000   1.0000   1.0000   1.0000   1.0000
     1.0000   1.0000   1.0000   1.0000   1.0000   1.0000   1.0000   1.0000
     1.0000   1.0000   1.0000   1.0000   1.0000   1.0000   1.0000   1.0000
     1.0000   1.0000   1.0000   1.0000   1.0000   1.0000   1.0000   1.0000
     1.0000   1.0000   1.0000   1.0000   1.0000   1.0000   1.0000

          k = 0.0476-0.0869 0.0000 ( 14968 PWs)   bands (ev):

   -34.8374 -34.8371 -34.8369 -34.8366 -34.8035 -34.8033 -34.7970 -34.7967
   -34.7872 -34.7870 -34.7342 -34.7300 -34.7161 -34.6922 -34.6906 -27.6211
   -27.6206 -27.6198 -27.6192 -27.6136 -27.6130 -27.6095 -27.6090 -27.6070
   -27.6064 -10.6843 -10.1483  -9.0979  -6.4087  -5.1579  -0.5832  -0.3612
    -0.1707  -0.0131   0.0027   0.4073   0.6561   1.0876   1.4016

     occupation numbers 
     1.0000   1.0000   1.0000   1.0000   1.0000   1.0000   1.0000   1.0000
     1.0000   1.0000   1.0000   1.0000   1.0000   1.0000   1.0000   1.0000
     1.0000   1.0000   1.0000   1.0000   1.0000   1.0000   1.0000   1.0000
     1.0000   1.0000   1.0000   1.0000   1.0000   1.0000   1.0000   1.0000
     1.0000   1.0000   1.0000   1.0000   1.0000   1.0000   1.0000

          k = 0.0476-0.0297 0.0000 ( 14962 PWs)   bands (ev):

   -34.8374 -34.8371 -34.8370 -34.8367 -34.8035 -34.8033 -34.7969 -34.7966
   -34.7872 -34.7870 -34.7342 -34.7300 -34.7161 -34.6922 -34.6906 -27.6211
   -27.6206 -27.6200 -27.6194 -27.6137 -27.6131 -27.6095 -27.6090 -27.6068
   -27.6063 -10.7244 -10.1851  -9.1200  -6.4023  -5.0953  -0.3797  -0.2043
    -0.1213   0.1471   0.2088   0.5374   0.7717   0.8890   1.2542

     occupation numbers 
     1.0000   1.0000   1.0000   1.0000   1.0000   1.0000   1.0000   1.0000
     1.0000   1.0000   1.0000   1.0000   1.0000   1.0000   1.0000   1.0000
     1.0000   1.0000   1.0000   1.0000   1.0000   1.0000   1.0000   1.0000
     1.0000   1.0000   1.0000   1.0000   1.0000   1.0000   1.0000   1.0000
     1.0000   1.0000   1.0000   1.0000   1.0000   1.0000   1.0000

          k = 0.0952 0.0550 0.0000 ( 14955 PWs)   bands (ev):

   -34.8374 -34.8371 -34.8369 -34.8366 -34.8035 -34.8033 -34.7969 -34.7966
   -34.7872 -34.7870 -34.7342 -34.7300 -34.7161 -34.6922 -34.6906 -27.6209
   -27.6204 -27.6200 -27.6194 -27.6137 -27.6131 -27.6097 -27.6091 -27.6068
   -27.6062 -10.6705 -10.1367  -9.0928  -6.4205  -5.2084  -0.8242  -0.5314
    -0.1460  -0.0589   0.1942   0.2302   0.9653   1.1002   1.3920

     occupation numbers 
     1.0000   1.0000   1.0000   1.0000   1.0000   1.0000   1.0000   1.0000
     1.0000   1.0000   1.0000   1.0000   1.0000   1.0000   1.0000   1.0000
     1.0000   1.0000   1.0000   1.0000   1.0000   1.0000   1.0000   1.0000
     1.0000   1.0000   1.0000   1.0000   1.0000   1.0000   1.0000   1.0000
     1.0000   1.0000   1.0000   1.0000   1.0000   1.0000   1.0000

          k = 0.0952 0.1122 0.0000 ( 14969 PWs)   bands (ev):

   -34.8374 -34.8371 -34.8368 -34.8366 -34.8035 -34.8033 -34.7970 -34.7967
   -34.7872 -34.7869 -34.7341 -34.7300 -34.7161 -34.6921 -34.6906 -27.6210
   -27.6204 -27.6198 -27.6193 -27.6136 -27.6130 -27.6097 -27.6091 -27.6069
   -27.6063 -10.6134 -10.0851  -9.0637  -6.4371  -5.3088  -1.0830  -0.6617
    -0.4438  -0.1397   0.0642   0.2298   0.8000   1.2964   1.3775

     occupation numbers 
     1.0000   1.0000   1.0000   1.0000   1.0000   1.0000   1.0000   1.0000
     1.0000   1.0000   1.0000   1.0000   1.0000   1.0000   1.0000   1.0000
     1.0000   1.0000   1.0000   1.0000   1.0000   1.0000   1.0000   1.0000
     1.0000   1.0000   1.0000   1.0000   1.0000   1.0000   1.0000   1.0000
     1.0000   1.0000   1.0000   1.0000   1.0000   1.0000   1.0000

          k = 0.0952 0.1694 0.0000 ( 14946 PWs)   bands (ev):

   -34.8374 -34.8371 -34.8367 -34.8364 -34.8035 -34.8034 -34.7970 -34.7967
   -34.7871 -34.7869 -34.7341 -34.7301 -34.7161 -34.6920 -34.6906 -27.6210
   -27.6205 -27.6194 -27.6189 -27.6134 -27.6129 -27.6098 -27.6091 -27.6072
   -27.6065 -10.5181  -9.9991  -9.0164  -6.4682  -5.4687  -1.3516  -0.9784
    -0.7079  -0.3453  -0.0416   0.2019   0.5857   1.2815   1.5103

     occupation numbers 
     1.0000   1.0000   1.0000   1.0000   1.0000   1.0000   1.0000   1.0000
     1.0000   1.0000   1.0000   1.0000   1.0000   1.0000   1.0000   1.0000
     1.0000   1.0000   1.0000   1.0000   1.0000   1.0000   1.0000   1.0000
     1.0000   1.0000   1.0000   1.0000   1.0000   1.0000   1.0000   1.0000
     1.0000   1.0000   1.0000   1.0000   1.0000   1.0000   1.0000

          k = 0.0952 0.2265 0.0000 ( 14941 PWs)   bands (ev):

   -34.8374 -34.8371 -34.8366 -34.8363 -34.8035 -34.8034 -34.7970 -34.7967
   -34.7870 -34.7868 -34.7340 -34.7301 -34.7162 -34.6918 -34.6905 -27.6211
   -27.6206 -27.6190 -27.6185 -27.6132 -27.6127 -27.6099 -27.6091 -27.6075
   -27.6068 -10.3858  -9.8810  -8.9552  -6.5213  -5.6813  -1.6363  -1.3776
    -0.8199  -0.6222  -0.2285   0.0352   0.5646   1.1587   1.5169

     occupation numbers 
     1.0000   1.0000   1.0000   1.0000   1.0000   1.0000   1.0000   1.0000
     1.0000   1.0000   1.0000   1.0000   1.0000   1.0000   1.0000   1.0000
     1.0000   1.0000   1.0000   1.0000   1.0000   1.0000   1.0000   1.0000
     1.0000   1.0000   1.0000   1.0000   1.0000   1.0000   1.0000   1.0000
     1.0000   1.0000   1.0000   1.0000   1.0000   1.0000   1.0000

          k = 0.0952 0.2837 0.0000 ( 14917 PWs)   bands (ev):

   -34.8374 -34.8371 -34.8364 -34.8361 -34.8036 -34.8034 -34.7970 -34.7967
   -34.7869 -34.7867 -34.7340 -34.7301 -34.7162 -34.6917 -34.6905 -27.6212
   -27.6207 -27.6185 -27.6180 -27.6130 -27.6125 -27.6099 -27.6091 -27.6079
   -27.6072 -10.2187  -9.7344  -8.8863  -6.6052  -5.9343  -1.9825  -1.6350
    -0.9388  -0.8991  -0.4946  -0.0741   0.5895   0.9270   1.4635

     occupation numbers 
     1.0000   1.0000   1.0000   1.0000   1.0000   1.0000   1.0000   1.0000
     1.0000   1.0000   1.0000   1.0000   1.0000   1.0000   1.0000   1.0000
     1.0000   1.0000   1.0000   1.0000   1.0000   1.0000   1.0000   1.0000
     1.0000   1.0000   1.0000   1.0000   1.0000   1.0000   1.0000   1.0000
     1.0000   1.0000   1.0000   1.0000   1.0000   1.0000   1.0000

          k = 0.0952 0.3409 0.0000 ( 14928 PWs)   bands (ev):

[...]
     1.0000   1.0000   1.0000   1.0000   1.0000   1.0000   1.0000   1.0000
     1.0000   1.0000   1.0000   1.0000   1.0000   1.0000   1.0000

          k = 0.4762 0.3321 0.0000 ( 14918 PWs)   bands (ev):

   -34.8370 -34.8367 -34.8362 -34.8359 -34.8037 -34.8035 -34.7970 -34.7967
   -34.7868 -34.7866 -34.7336 -34.7303 -34.7162 -34.6916 -34.6903 -27.6204
   -27.6199 -27.6189 -27.6184 -27.6134 -27.6127 -27.6105 -27.6097 -27.6070
   -27.6060  -9.1186  -9.0987  -9.0671  -7.4675  -6.9091  -3.0986  -1.7317
    -1.7129  -1.3318  -0.7235  -0.3758   0.5068   0.7692   1.0602

     occupation numbers 
     1.0000   1.0000   1.0000   1.0000   1.0000   1.0000   1.0000   1.0000
     1.0000   1.0000   1.0000   1.0000   1.0000   1.0000   1.0000   1.0000
     1.0000   1.0000   1.0000   1.0000   1.0000   1.0000   1.0000   1.0000
     1.0000   1.0000   1.0000   1.0000   1.0000   1.0000   1.0000   1.0000
     1.0000   1.0000   1.0000   1.0000   1.0000   1.0000   1.0000

          k = 0.4762 0.3893 0.0000 ( 14898 PWs)   bands (ev):

   -34.8370 -34.8367 -34.8363 -34.8360 -34.8037 -34.8035 -34.7970 -34.7967
   -34.7868 -34.7866 -34.7336 -34.7303 -34.7162 -34.6916 -34.6903 -27.6202
   -27.6197 -27.6190 -27.6185 -27.6134 -27.6127 -27.6105 -27.6097 -27.6071
   -27.6062  -9.1793  -9.0602  -8.9807  -7.4563  -6.9567  -3.0480  -1.8393
    -1.7402  -1.4218  -0.8346  -0.4262   0.4989   0.7302   1.2453

     occupation numbers 
     1.0000   1.0000   1.0000   1.0000   1.0000   1.0000   1.0000   1.0000
     1.0000   1.0000   1.0000   1.0000   1.0000   1.0000   1.0000   1.0000
     1.0000   1.0000   1.0000   1.0000   1.0000   1.0000   1.0000   1.0000
     1.0000   1.0000   1.0000   1.0000   1.0000   1.0000   1.0000   1.0000
     1.0000   1.0000   1.0000   1.0000   1.0000   1.0000   1.0000

          k = 0.4762 0.4465 0.0000 ( 14882 PWs)   bands (ev):

   -34.8369 -34.8366 -34.8363 -34.8360 -34.8037 -34.8035 -34.7970 -34.7967
   -34.7868 -34.7865 -34.7336 -34.7303 -34.7162 -34.6916 -34.6902 -27.6198
   -27.6194 -27.6191 -27.6186 -27.6133 -27.6127 -27.6105 -27.6097 -27.6073
   -27.6064  -9.2341  -9.0456  -8.8730  -7.4205  -7.0189  -2.9564  -1.9993
    -1.8197  -1.4740  -0.8807  -0.6016   0.4856   0.8164   1.3552

     occupation numbers 
     1.0000   1.0000   1.0000   1.0000   1.0000   1.0000   1.0000   1.0000
     1.0000   1.0000   1.0000   1.0000   1.0000   1.0000   1.0000   1.0000
     1.0000   1.0000   1.0000   1.0000   1.0000   1.0000   1.0000   1.0000
     1.0000   1.0000   1.0000   1.0000   1.0000   1.0000   1.0000   1.0000
     1.0000   1.0000   1.0000   1.0000   1.0000   1.0000   1.0000

          k = 0.4762 0.5037 0.0000 ( 14895 PWs)   bands (ev):

   -34.8368 -34.8365 -34.8364 -34.8361 -34.8037 -34.8035 -34.7971 -34.7968
   -34.7867 -34.7865 -34.7336 -34.7302 -34.7163 -34.6916 -34.6901 -27.6196
   -27.6192 -27.6190 -27.6186 -27.6133 -27.6126 -27.6105 -27.6097 -27.6074
   -27.6067  -9.2703  -9.0341  -8.7848  -7.3649  -7.0918  -2.8303  -2.2368
    -1.8226  -1.5017  -1.0081  -0.6947   0.4981   0.9394   1.3099

     occupation numbers 
     1.0000   1.0000   1.0000   1.0000   1.0000   1.0000   1.0000   1.0000
     1.0000   1.0000   1.0000   1.0000   1.0000   1.0000   1.0000   1.0000
     1.0000   1.0000   1.0000   1.0000   1.0000   1.0000   1.0000   1.0000
     1.0000   1.0000   1.0000   1.0000   1.0000   1.0000   1.0000   1.0000
     1.0000   1.0000   1.0000   1.0000   1.0000   1.0000   1.0000

          k = 0.4762 0.5609 0.0000 ( 14896 PWs)   bands (ev):

   -34.8368 -34.8365 -34.8364 -34.8361 -34.8036 -34.8035 -34.7971 -34.7968
   -34.7867 -34.7865 -34.7336 -34.7302 -34.7163 -34.6917 -34.6900 -27.6198
   -27.6192 -27.6188 -27.6184 -27.6132 -27.6126 -27.6104 -27.6098 -27.6075
   -27.6069  -9.2853  -9.0234  -8.7297  -7.2988  -7.1659  -2.6718  -2.4723
    -1.7969  -1.4550  -1.2539  -0.6535   0.5127   1.0101   1.2172

     occupation numbers 
     1.0000   1.0000   1.0000   1.0000   1.0000   1.0000   1.0000   1.0000
     1.0000   1.0000   1.0000   1.0000   1.0000   1.0000   1.0000   1.0000
     1.0000   1.0000   1.0000   1.0000   1.0000   1.0000   1.0000   1.0000
     1.0000   1.0000   1.0000   1.0000   1.0000   1.0000   1.0000   1.0000
     1.0000   1.0000   1.0000   1.0000   1.0000   1.0000   1.0000

          k = 0.4762 0.6180 0.0000 ( 14900 PWs)   bands (ev):

   -34.8368 -34.8365 -34.8364 -34.8361 -34.8036 -34.8035 -34.7971 -34.7968
   -34.7867 -34.7864 -34.7337 -34.7302 -34.7163 -34.6918 -34.6899 -27.6200
   -27.6195 -27.6185 -27.6180 -27.6130 -27.6125 -27.6104 -27.6098 -27.6076
   -27.6071  -9.2780  -9.0126  -8.7177  -7.2801  -7.1821  -2.6748  -2.4770
    -1.8071  -1.4658  -1.2655  -0.6483   0.4908   0.9960   1.1986

     occupation numbers 
     1.0000   1.0000   1.0000   1.0000   1.0000   1.0000   1.0000   1.0000
     1.0000   1.0000   1.0000   1.0000   1.0000   1.0000   1.0000   1.0000
     1.0000   1.0000   1.0000   1.0000   1.0000   1.0000   1.0000   1.0000
     1.0000   1.0000   1.0000   1.0000   1.0000   1.0000   1.0000   1.0000
     1.0000   1.0000   1.0000   1.0000   1.0000   1.0000   1.0000

          k = 0.4762 0.6752 0.0000 ( 14919 PWs)   bands (ev):

   -34.8369 -34.8366 -34.8363 -34.8360 -34.8036 -34.8035 -34.7971 -34.7968
   -34.7867 -34.7864 -34.7337 -34.7302 -34.7163 -34.6919 -34.6897 -27.6203
   -27.6198 -27.6182 -27.6177 -27.6129 -27.6123 -27.6104 -27.6098 -27.6077
   -27.6072  -9.2486  -9.0027  -8.7511  -7.3391  -7.1092  -2.8373  -2.2471
    -1.8606  -1.5324  -1.0205  -0.7099   0.4460   0.9078   1.2370

     occupation numbers 
     1.0000   1.0000   1.0000   1.0000   1.0000   1.0000   1.0000   1.0000
     1.0000   1.0000   1.0000   1.0000   1.0000   1.0000   1.0000   1.0000
     1.0000   1.0000   1.0000   1.0000   1.0000   1.0000   1.0000   1.0000
     1.0000   1.0000   1.0000   1.0000   1.0000   1.0000   1.0000   1.0000
     1.0000   1.0000   1.0000   1.0000   1.0000   1.0000   1.0000

          k = 0.4762 0.7324 0.0000 ( 14944 PWs)   bands (ev):

   -34.8370 -34.8367 -34.8362 -34.8359 -34.8036 -34.8034 -34.7971 -34.7968
   -34.7866 -34.7864 -34.7337 -34.7302 -34.7164 -34.6920 -34.6896 -27.6206
   -27.6202 -27.6180 -27.6175 -27.6127 -27.6122 -27.6104 -27.6098 -27.6077
   -27.6071  -9.1989  -8.9963  -8.8240  -7.3933  -7.0305  -2.9638  -1.9963
    -1.8907  -1.5247  -0.8590  -0.6977   0.4244   0.7641   1.2261

     occupation numbers 
     1.0000   1.0000   1.0000   1.0000   1.0000   1.0000   1.0000   1.0000
     1.0000   1.0000   1.0000   1.0000   1.0000   1.0000   1.0000   1.0000
     1.0000   1.0000   1.0000   1.0000   1.0000   1.0000   1.0000   1.0000
     1.0000   1.0000   1.0000   1.0000   1.0000   1.0000   1.0000   1.0000
     1.0000   1.0000   1.0000   1.0000   1.0000   1.0000   1.0000

          k = 0.4762 0.7896 0.0000 ( 14930 PWs)   bands (ev):

   -34.8370 -34.8368 -34.8361 -34.8358 -34.8036 -34.8034 -34.7972 -34.7969
   -34.7866 -34.7864 -34.7337 -34.7302 -34.7164 -34.6921 -34.6895 -27.6209
   -27.6204 -27.6179 -27.6174 -27.6126 -27.6120 -27.6104 -27.6098 -27.6078
   -27.6071  -9.1323  -8.9969  -8.9244  -7.4279  -6.9614  -3.0546  -1.8607
    -1.7572  -1.5102  -0.9056  -0.4946   0.4435   0.6347   1.0919

     occupation numbers 
     1.0000   1.0000   1.0000   1.0000   1.0000   1.0000   1.0000   1.0000
     1.0000   1.0000   1.0000   1.0000   1.0000   1.0000   1.0000   1.0000
     1.0000   1.0000   1.0000   1.0000   1.0000   1.0000   1.0000   1.0000
     1.0000   1.0000   1.0000   1.0000   1.0000   1.0000   1.0000   1.0000
     1.0000   1.0000   1.0000   1.0000   1.0000   1.0000   1.0000

          k = 0.4762 0.8468 0.0000 ( 14934 PWs)   bands (ev):

   -34.8371 -34.8368 -34.8361 -34.8358 -34.8036 -34.8034 -34.7972 -34.7969
   -34.7866 -34.7864 -34.7337 -34.7302 -34.7164 -34.6921 -34.6894 -27.6210
   -27.6206 -27.6178 -27.6173 -27.6125 -27.6119 -27.6104 -27.6098 -27.6078
   -27.6071  -9.0542  -9.0405  -9.0057  -7.4375  -6.9080  -3.1046  -1.7749
    -1.6460  -1.4787  -0.8851  -0.4013   0.4718   0.5998   0.9252

     occupation numbers 
     1.0000   1.0000   1.0000   1.0000   1.0000   1.0000   1.0000   1.0000
     1.0000   1.0000   1.0000   1.0000   1.0000   1.0000   1.0000   1.0000
     1.0000   1.0000   1.0000   1.0000   1.0000   1.0000   1.0000   1.0000
     1.0000   1.0000   1.0000   1.0000   1.0000   1.0000   1.0000   1.0000
     1.0000   1.0000   1.0000   1.0000   1.0000   1.0000   1.0000

          k = 0.4762-0.2969 0.0000 ( 14926 PWs)   bands (ev):

   -34.8371 -34.8368 -34.8361 -34.8358 -34.8036 -34.8034 -34.7972 -34.7969
   -34.7866 -34.7864 -34.7337 -34.7302 -34.7164 -34.6921 -34.6894 -27.6211
   -27.6206 -27.6178 -27.6173 -27.6125 -27.6119 -27.6104 -27.6098 -27.6077
   -27.6070  -9.1568  -9.0285  -8.9689  -7.4198  -6.8741  -3.1085  -1.7653
    -1.5789  -1.4497  -0.8501  -0.3925   0.4736   0.6214   0.8664

     occupation numbers 
     1.0000   1.0000   1.0000   1.0000   1.0000   1.0000   1.0000   1.0000
     1.0000   1.0000   1.0000   1.0000   1.0000   1.0000   1.0000   1.0000
     1.0000   1.0000   1.0000   1.0000   1.0000   1.0000   1.0000   1.0000
     1.0000   1.0000   1.0000   1.0000   1.0000   1.0000   1.0000   1.0000
     1.0000   1.0000   1.0000   1.0000   1.0000   1.0000   1.0000

          k = 0.4762-0.2397 0.0000 ( 14934 PWs)   bands (ev):

   -34.8371 -34.8368 -34.8361 -34.8358 -34.8036 -34.8034 -34.7972 -34.7969
   -34.7866 -34.7864 -34.7337 -34.7302 -34.7164 -34.6921 -34.6895 -27.6210
   -27.6205 -27.6179 -27.6174 -27.6126 -27.6120 -27.6104 -27.6098 -27.6077
   -27.6070  -9.2652  -9.0584  -8.8873  -7.3761  -6.8619  -3.0658  -1.8102
    -1.5571  -1.4749  -0.8512  -0.4029   0.4468   0.6537   0.9416

     occupation numbers 
     1.0000   1.0000   1.0000   1.0000   1.0000   1.0000   1.0000   1.0000
     1.0000   1.0000   1.0000   1.0000   1.0000   1.0000   1.0000   1.0000
     1.0000   1.0000   1.0000   1.0000   1.0000   1.0000   1.0000   1.0000
     1.0000   1.0000   1.0000   1.0000   1.0000   1.0000   1.0000   1.0000
     1.0000   1.0000   1.0000   1.0000   1.0000   1.0000   1.0000

          k = 0.4762-0.1826 0.0000 ( 14949 PWs)   bands (ev):

   -34.8370 -34.8367 -34.8362 -34.8359 -34.8036 -34.8034 -34.7971 -34.7968
   -34.7867 -34.7864 -34.7337 -34.7302 -34.7163 -34.6921 -34.6896 -27.6208
   -27.6203 -27.6180 -27.6175 -27.6127 -27.6121 -27.6104 -27.6099 -27.6076
   -27.6070  -9.3579  -9.0921  -8.8162  -7.3114  -6.8725  -2.9803  -1.8230
    -1.7322  -1.4832  -0.8213  -0.4716   0.3936   0.7174   1.1411

     occupation numbers 
     1.0000   1.0000   1.0000   1.0000   1.0000   1.0000   1.0000   1.0000
     1.0000   1.0000   1.0000   1.0000   1.0000   1.0000   1.0000   1.0000
     1.0000   1.0000   1.0000   1.0000   1.0000   1.0000   1.0000   1.0000
     1.0000   1.0000   1.0000   1.0000   1.0000   1.0000   1.0000   1.0000
     1.0000   1.0000   1.0000   1.0000   1.0000   1.0000   1.0000

          k = 0.4762-0.1254 0.0000 ( 14940 PWs)   bands (ev):

   -34.8369 -34.8367 -34.8363 -34.8360 -34.8036 -34.8034 -34.7971 -34.7968
   -34.7867 -34.7865 -34.7337 -34.7302 -34.7163 -34.6920 -34.6897 -27.6205
   -27.6201 -27.6182 -27.6177 -27.6128 -27.6123 -27.6104 -27.6099 -27.6075
   -27.6070  -9.4296  -9.1239  -8.7633  -7.2346  -6.9049  -2.8565  -2.0150
    -1.7139  -1.5381  -0.8285  -0.5865   0.4340   0.8179   1.2875

     occupation numbers 
     1.0000   1.0000   1.0000   1.0000   1.0000   1.0000   1.0000   1.0000
     1.0000   1.0000   1.0000   1.0000   1.0000   1.0000   1.0000   1.0000
     1.0000   1.0000   1.0000   1.0000   1.0000   1.0000   1.0000   1.0000
     1.0000   1.0000   1.0000   1.0000   1.0000   1.0000   1.0000   1.0000
     1.0000   1.0000   1.0000   1.0000   1.0000   1.0000   1.0000

          k = 0.4762-0.0682 0.0000 ( 14912 PWs)   bands (ev):

   -34.8368 -34.8366 -34.8364 -34.8361 -34.8036 -34.8035 -34.7971 -34.7968
   -34.7867 -34.7865 -34.7337 -34.7302 -34.7163 -34.6919 -34.6898 -27.6202
   -27.6197 -27.6185 -27.6180 -27.6130 -27.6124 -27.6105 -27.6099 -27.6074
   -27.6069  -9.4768  -9.1491  -8.7339  -7.1617  -6.9506  -2.6953  -2.2680
    -1.6327  -1.5045  -1.0385  -0.5852   0.5566   0.9275   1.2670

     occupation numbers 
     1.0000   1.0000   1.0000   1.0000   1.0000   1.0000   1.0000   1.0000
     1.0000   1.0000   1.0000   1.0000   1.0000   1.0000   1.0000   1.0000
     1.0000   1.0000   1.0000   1.0000   1.0000   1.0000   1.0000   1.0000
     1.0000   1.0000   1.0000   1.0000   1.0000   1.0000   1.0000   1.0000
     1.0000   1.0000   1.0000   1.0000   1.0000   1.0000   1.0000

          k = 0.4762-0.0110 0.0000 ( 14896 PWs)   bands (ev):

   -34.8368 -34.8365 -34.8365 -34.8362 -34.8036 -34.8035 -34.7971 -34.7968
   -34.7868 -34.7865 -34.7337 -34.7302 -34.7163 -34.6918 -34.6900 -27.6199
   -27.6194 -27.6189 -27.6184 -27.6132 -27.6126 -27.6105 -27.6098 -27.6073
   -27.6068  -9.4974  -9.1642  -8.7309  -7.1347  -6.9728  -2.5362  -2.4556
    -1.6240  -1.3424  -1.2397  -0.5701   0.6349   1.0161   1.2009

     occupation numbers 
     1.0000   1.0000   1.0000   1.0000   1.0000   1.0000   1.0000   1.0000
     1.0000   1.0000   1.0000   1.0000   1.0000   1.0000   1.0000   1.0000
     1.0000   1.0000   1.0000   1.0000   1.0000   1.0000   1.0000   1.0000
     1.0000   1.0000   1.0000   1.0000   1.0000   1.0000   1.0000   1.0000
     1.0000   1.0000   1.0000   1.0000   1.0000   1.0000   1.0000

          k = 0.4762 0.0462 0.0000 ( 14898 PWs)   bands (ev):

   -34.8368 -34.8365 -34.8365 -34.8362 -34.8036 -34.8035 -34.7970 -34.7967
   -34.7868 -34.7865 -34.7337 -34.7302 -34.7162 -34.6917 -34.6901 -27.6196
   -27.6193 -27.6191 -27.6188 -27.6133 -27.6127 -27.6105 -27.6098 -27.6073
   -27.6066  -9.4906  -9.1678  -8.7541  -7.1875  -6.9390  -2.7023  -2.2473
    -1.5980  -1.5027  -1.0212  -0.5629   0.5841   0.9551   1.3213

     occupation numbers 
     1.0000   1.0000   1.0000   1.0000   1.0000   1.0000   1.0000   1.0000
     1.0000   1.0000   1.0000   1.0000   1.0000   1.0000   1.0000   1.0000
     1.0000   1.0000   1.0000   1.0000   1.0000   1.0000   1.0000   1.0000
     1.0000   1.0000   1.0000   1.0000   1.0000   1.0000   1.0000   1.0000
     1.0000   1.0000   1.0000   1.0000   1.0000   1.0000   1.0000

          k = 0.4762 0.1034 0.0000 ( 14894 PWs)   bands (ev):

   -34.8369 -34.8366 -34.8364 -34.8361 -34.8037 -34.8035 -34.7970 -34.7967
   -34.7868 -34.7866 -34.7337 -34.7302 -34.7162 -34.6917 -34.6902 -27.6198
   -27.6194 -27.6192 -27.6188 -27.6134 -27.6127 -27.6105 -27.6098 -27.6071
   -27.6064  -9.4568  -9.1603  -8.8007  -7.2683  -6.8973  -2.8584  -2.0051
    -1.6745  -1.4755  -0.8468  -0.4978   0.4915   0.8571   1.4027

     occupation numbers 
     1.0000   1.0000   1.0000   1.0000   1.0000   1.0000   1.0000   1.0000
     1.0000   1.0000   1.0000   1.0000   1.0000   1.0000   1.0000   1.0000
     1.0000   1.0000   1.0000   1.0000   1.0000   1.0000   1.0000   1.0000
     1.0000   1.0000   1.0000   1.0000   1.0000   1.0000   1.0000   1.0000
     1.0000   1.0000   1.0000   1.0000   1.0000   1.0000   1.0000

          k = 0.4762 0.1606 0.0000 ( 14897 PWs)   bands (ev):

   -34.8370 -34.8367 -34.8363 -34.8360 -34.8037 -34.8035 -34.7970 -34.7967
   -34.7868 -34.7866 -34.7337 -34.7303 -34.7162 -34.6916 -34.6903 -27.6201
   -27.6196 -27.6191 -27.6186 -27.6134 -27.6127 -27.6105 -27.6098 -27.6070
   -27.6062  -9.3973  -9.1438  -8.8662  -7.3468  -6.8713  -2.9793  -1.8562
    -1.6591  -1.3899  -0.7801  -0.3886   0.4668   0.7843   1.2903

     occupation numbers 
     1.0000   1.0000   1.0000   1.0000   1.0000   1.0000   1.0000   1.0000
     1.0000   1.0000   1.0000   1.0000   1.0000   1.0000   1.0000   1.0000
     1.0000   1.0000   1.0000   1.0000   1.0000   1.0000   1.0000   1.0000
     1.0000   1.0000   1.0000   1.0000   1.0000   1.0000   1.0000   1.0000
     1.0000   1.0000   1.0000   1.0000   1.0000   1.0000   1.0000

          k = 0.4762 0.2177 0.0000 ( 14916 PWs)   bands (ev):

   -34.8370 -34.8367 -34.8363 -34.8360 -34.8037 -34.8035 -34.7970 -34.7967
   -34.7868 -34.7866 -34.7336 -34.7303 -34.7162 -34.6916 -34.6903 -27.6203
   -27.6199 -27.6190 -27.6184 -27.6134 -27.6127 -27.6106 -27.6097 -27.6070
   -27.6060  -9.3153  -9.1219  -8.9438  -7.4105  -6.8650  -3.0626  -1.8191
    -1.5793  -1.3186  -0.6993  -0.3731   0.5010   0.7942   1.0804

     occupation numbers 
     1.0000   1.0000   1.0000   1.0000   1.0000   1.0000   1.0000   1.0000
     1.0000   1.0000   1.0000   1.0000   1.0000   1.0000   1.0000   1.0000
     1.0000   1.0000   1.0000   1.0000   1.0000   1.0000   1.0000   1.0000
     1.0000   1.0000   1.0000   1.0000   1.0000   1.0000   1.0000   1.0000
     1.0000   1.0000   1.0000   1.0000   1.0000   1.0000   1.0000

     highest occupied level (ev):     1.6016

!    total energy              =    -806.61337132 Ry
     estimated scf accuracy    <       0.00000002 Ry

     The total energy is the sum of the following terms:
     one-electron contribution =   -3374.90291866 Ry
     hartree contribution      =    1682.04199286 Ry
     xc contribution           =     -87.12460551 Ry
     ewald contribution        =     973.46807302 Ry
     Dispersion Correction     =      -0.09591303 Ry

     convergence has been achieved in  12 iterations

     Writing all to output data dir tmp/Sb2Te3-uatsx-c3-4.0.save/ :
     XML data file, charge density, pseudopotentials, collected wavefunctions

     init_run     :      8.81s CPU      5.08s WALL (       1 calls)
     electrons    :    431.67s CPU    221.47s WALL (       1 calls)

     Called by init_run:
     wfcinit      :      7.62s CPU      3.89s WALL (       1 calls)
     wfcinit:wfcr :      6.92s CPU      3.52s WALL (     221 calls)
     potinit      :      0.48s CPU      0.46s WALL (       1 calls)
     hinit0       :      0.60s CPU      0.61s WALL (       1 calls)

     Called by electrons:
     c_bands      :    389.47s CPU    199.74s WALL (      13 calls)
     sum_band     :     41.43s CPU     21.06s WALL (      13 calls)
     v_of_rho     :      0.59s CPU      0.42s WALL (      13 calls)
     v_h          :      0.05s CPU      0.05s WALL (      13 calls)
     v_xc         :      0.54s CPU      0.37s WALL (      13 calls)
     mix_rho      :      0.09s CPU      0.05s WALL (      13 calls)
     energy_londo :      0.02s CPU      0.01s WALL (       1 calls)

     Called by c_bands:
     init_us_2    :      4.13s CPU      2.43s WALL (    5967 calls)
     cegterg      :    376.04s CPU    192.24s WALL (    2873 calls)

     Called by sum_band:
     sum_band:wei :      0.00s CPU      0.00s WALL (      13 calls)
     sum_band:loo :     41.38s CPU     21.03s WALL (      13 calls)
     sum_band:buf :      0.43s CPU      0.23s WALL (    2873 calls)
     sum_band:ini :      2.22s CPU      1.12s WALL (    2873 calls)

     Called by *egterg:
     cdiaghg      :     67.96s CPU     37.21s WALL (   18127 calls)
     cegterg:over :     11.97s CPU      7.01s WALL (   15475 calls)
     cegterg:upda :     10.49s CPU      3.47s WALL (   15475 calls)
     cegterg:last :     10.46s CPU      4.60s WALL (    7916 calls)
     h_psi        :    273.33s CPU    137.33s WALL (   18569 calls)
     g_psi        :      0.97s CPU      0.89s WALL (   15475 calls)

     Called by h_psi:
     h_psi:calbec :     20.62s CPU      7.10s WALL (   18569 calls)
     vloc_psi     :    241.68s CPU    125.11s WALL (   18569 calls)
     add_vuspsi   :     10.20s CPU      4.56s WALL (   18569 calls)

     General routines
     calbec       :     20.54s CPU      7.06s WALL (   18569 calls)
     fft          :      1.09s CPU      0.99s WALL (     154 calls)
     ffts         :      0.44s CPU      0.43s WALL (      26 calls)
     fftw         :    231.52s CPU    120.94s WALL (  839099 calls)
     interpolate  :      0.48s CPU      0.46s WALL (      13 calls)

     Parallel routines

     PWSCF        :   7m24.32s CPU   4m 2.40s WALL


   This run was terminated on:  20:54: 3  14Aug2025            

=------------------------------------------------------------------------------=
   JOB DONE.
=------------------------------------------------------------------------------=
