
     Program PWSCF v.7.3.1 starts on 14May2025 at 17:40:23 

     This program is part of the open-source Quantum ESPRESSO suite
     for quantum simulation of materials; please cite
         "P. Giannozzi et al., J. Phys.:Condens. Matter 21 395502 (2009);
         "P. Giannozzi et al., J. Phys.:Condens. Matter 29 465901 (2017);
         "P. Giannozzi et al., J. Chem. Phys. 152 154105 (2020);
          URL http://www.quantum-espresso.org", 
     in publications or presentations arising from this work. More details at
     http://www.quantum-espresso.org/quote

     Parallel version (MPI & OpenMP), running on      72 processor cores
     Number of MPI processes:                72
     Threads/MPI process:                     1

     MPI processes distributed on     3 nodes
     106159 MiB available memory on the printing compute node when the environment starts

     Waiting for input...
     Reading input from standard input

     Current dimensions of program PWSCF are:
     Max number of different atomic species (ntypx) = 10
     Max number of k-points (npk) =  40000
     Max angular momentum in pseudopotentials (lmaxx) =  4

     IMPORTANT: XC functional enforced from input :
     Exchange-correlation= B3LYP-V1R
                           (   7  13   9   7   0   0   0)
     EXX-fraction              =        0.20
     Any further DFT definition will be discarded
     Please, verify this is what you really want

     EXX fraction changed:   0.20

     R & G space division:  proc/nbgrp/npool/nimage =      72
     Subspace diagonalization in iterative solution of the eigenvalue problem:
     a serial algorithm will be used

     EXX: q-point mesh:     1    1    1
     EXX: setup a grid of 85 q-points centered on each k-point
     (k+q)-points:
   0.0000000   0.0000000   0.0000000         1    1
   0.0000000   0.0897122   0.0000000         2    1
   0.0000000   0.1794244   0.0000000         3    1
   0.0000000   0.2691367   0.0000000         4    1
   0.0000000   0.3588489   0.0000000         5    1
   0.0000000   0.4485611   0.0000000         6    1
   0.0000000   0.5382733   0.0000000         7    1
   0.0769231   0.0444120   0.0000000         8    1
   0.0769231   0.1341242   0.0000000         9    1
   0.0769231   0.2238364   0.0000000        10    1
   0.0769231   0.3135486   0.0000000        11    1
   0.0769231   0.4032609   0.0000000        12    1
   0.0769231   0.4929731   0.0000000        13    1
   0.0769231   0.5826853   0.0000000        14    1
   0.0769231  -0.4938613   0.0000000        15    1
   0.0769231  -0.4041491   0.0000000        16    1
   0.0769231  -0.3144369   0.0000000        17    1
   0.0769231  -0.2247247   0.0000000        18    1
   0.0769231  -0.1350124   0.0000000        19    1
   0.0769231  -0.0453002   0.0000000        20    1
   0.1538462   0.0888240   0.0000000        21    1
   0.1538462   0.1785362   0.0000000        22    1
   0.1538462   0.2682484   0.0000000        23    1
   0.1538462   0.3579606   0.0000000        24    1
   0.1538462   0.4476728   0.0000000        25    1
   0.1538462   0.5373851   0.0000000        26    1
   0.1538462   0.6270973   0.0000000        27    1
   0.1538462  -0.4494493   0.0000000        28    1
   0.1538462  -0.3597371   0.0000000        29    1
   0.1538462  -0.2700249   0.0000000        30    1
   0.1538462  -0.1803127   0.0000000        31    1
   0.1538462  -0.0906005   0.0000000        32    1
   0.1538462  -0.0008882   0.0000000        33    1
   0.2307692   0.1332360   0.0000000        34    1
   0.2307692   0.2229482   0.0000000        35    1
   0.2307692   0.3126604   0.0000000        36    1
   0.2307692   0.4023726   0.0000000        37    1
   0.2307692   0.4920848   0.0000000        38    1
   0.2307692   0.5817971   0.0000000        39    1
   0.2307692   0.6715093   0.0000000        40    1
   0.2307692  -0.4050373   0.0000000        41    1
   0.2307692  -0.3153251   0.0000000        42    1
   0.2307692  -0.2256129   0.0000000        43    1
   0.2307692  -0.1359007   0.0000000        44    1
   0.2307692  -0.0461885   0.0000000        45    1
   0.2307692   0.0435237   0.0000000        46    1
   0.3076923   0.1776480   0.0000000        47    1
   0.3076923   0.2673602   0.0000000        48    1
   0.3076923   0.3570724   0.0000000        49    1
   0.3076923   0.4467846   0.0000000        50    1
   0.3076923   0.5364968   0.0000000        51    1
   0.3076923   0.6262090   0.0000000        52    1
   0.3076923   0.7159213   0.0000000        53    1
   0.3076923  -0.3606253   0.0000000        54    1
   0.3076923  -0.2709131   0.0000000        55    1
   0.3076923  -0.1812009   0.0000000        56    1
   0.3076923  -0.0914887   0.0000000        57    1
   0.3076923  -0.0017765   0.0000000        58    1
   0.3076923   0.0879357   0.0000000        59    1
   0.3846154   0.2220599   0.0000000        60    1
   0.3846154   0.3117722   0.0000000        61    1
   0.3846154   0.4014844   0.0000000        62    1
   0.3846154   0.4911966   0.0000000        63    1
   0.3846154   0.5809088   0.0000000        64    1
   0.3846154   0.6706210   0.0000000        65    1
   0.3846154   0.7603332   0.0000000        66    1
   0.3846154  -0.3162134   0.0000000        67    1
   0.3846154  -0.2265011   0.0000000        68    1
   0.3846154  -0.1367889   0.0000000        69    1
   0.3846154  -0.0470767   0.0000000        70    1
   0.3846154   0.0426355   0.0000000        71    1
   0.3846154   0.1323477   0.0000000        72    1
   0.4615385   0.2664719   0.0000000        73    1
   0.4615385   0.3561841   0.0000000        74    1
   0.4615385   0.4458964   0.0000000        75    1
   0.4615385   0.5356086   0.0000000        76    1
   0.4615385   0.6253208   0.0000000        77    1
   0.4615385   0.7150330   0.0000000        78    1
   0.4615385   0.8047452   0.0000000        79    1
   0.4615385  -0.2718014   0.0000000        80    1
   0.4615385  -0.1820892   0.0000000        81    1
   0.4615385  -0.0923769   0.0000000        82    1
   0.4615385  -0.0026647   0.0000000        83    1
   0.4615385   0.0870475   0.0000000        84    1
   0.4615385   0.1767597   0.0000000        85    1

     Parallelization info
     --------------------
     sticks:   dense  smooth     PW     G-vecs:    dense   smooth      PW
     Min          17      17      5                 2645     2645     419
     Max          18      18      6                 2684     2684     440
     Sum        1285    1285    379               192371   192371   30683

     Using Slab Decomposition



     bravais-lattice index     =            0
     lattice parameter (alat)  =       8.2271  a.u.
     unit-cell volume          =    2430.6623 (a.u.)^3
     number of atoms/cell      =            5
     number of atomic types    =            2
     number of electrons       =        78.00
     number of Kohn-Sham states=           60
     kinetic-energy cutoff     =      70.0000  Ry
     charge density cutoff     =     280.0000  Ry
     cutoff for Fock operator  =     280.0000  Ry
     scf convergence threshold =      1.0E-06
     mixing beta               =       0.7000
     number of iterations used =            8  plain     mixing
     Exchange-correlation= B3LYP-V1R
                           (   7  13   9   7   0   0   0)
     EXX-fraction              =        0.20

     celldm(1)=   8.227090  celldm(2)=   0.000000  celldm(3)=   0.000000
     celldm(4)=   0.000000  celldm(5)=   0.000000  celldm(6)=   0.000000

     crystal axes: (cart. coord. in units of alat)
               a(1) = (   1.000000   0.000000   0.000000 )  
               a(2) = (  -0.495050   0.857443   0.000000 )  
               a(3) = (   0.000000   0.000000   5.090739 )  

     reciprocal axes: (cart. coord. in units 2 pi/alat)
               b(1) = (  1.000000  0.577356 -0.000000 )  
               b(2) = (  0.000000  1.166259  0.000000 )  
               b(3) = (  0.000000 -0.000000  0.196435 )  


     PseudoPot. # 1 for Sb read from file:
     /zfs-home/202401017n/pseudos/Sb_ONCV_PBE-1.2.upf
     MD5 check sum: 0417cd6c0fe8ce4611e2b23135f1abd9
     Pseudo is Norm-conserving, Zval = 15.0
     Generated using ONCVPSP code by D. R. Hamann
     Using radial grid of  602 points,  6 beta functions with: 
                l(1) =   0
                l(2) =   0
                l(3) =   1
                l(4) =   1
                l(5) =   2
                l(6) =   2

     PseudoPot. # 2 for Te read from file:
     /zfs-home/202401017n/pseudos/Te_ONCV_PBE-1.2.upf
     MD5 check sum: dd4de4dac1e38587f63aaf3700bb29d3
     Pseudo is Norm-conserving, Zval = 16.0
     Generated using ONCVPSP code by D. R. Hamann
     Using radial grid of  602 points,  6 beta functions with: 
                l(1) =   0
                l(2) =   0
                l(3) =   1
                l(4) =   1
                l(5) =   2
                l(6) =   2

     atomic species   valence    mass     pseudopotential
     Sb               15.00   121.76000     Sb( 1.00)
     Te               16.00   127.60000     Te( 1.00)

     No symmetry found


                                    s                        frac. trans.

      isym =  1     identity                                     

 cryst.   s( 1) = (     1          0          0      )
                  (     0          1          0      )
                  (     0          0          1      )

 cart.    s( 1) = (  1.0000000  0.0000000  0.0000000 )
                  (  0.0000000  1.0000000  0.0000000 )
                  (  0.0000000  0.0000000  1.0000000 )


   Cartesian axes

     site n.     atom                  positions (alat units)
         1        Sb     tau(   1) = (   0.5788554   0.4207610   3.0040749  )
         2        Te     tau(   2) = (   0.5752577   0.4138624   1.6972962  )
         3        Sb     tau(   3) = (   0.0743102   0.1298379   2.0866212  )
         4        Te     tau(   4) = (   0.0782247   0.1361538   3.3933943  )
         5        Te     tau(   5) = (   0.0792404   0.7036244   2.5453648  )

     -------------------------------------------------
     Parameters for Dispersion (Grimme-D2) Correction:
     -------------------------------------------------
       atom      VdW radius       C_6     

        Sb         3.555       1333.532
        Te         3.575       1101.101

   Crystallographic axes

     site n.     atom                  positions (cryst. coord.)
         1        Sb     tau(   1) = (  0.8217842  0.4907162  0.5901058  )
         2        Te     tau(   2) = (  0.8142035  0.4826706  0.3334086  )
         3        Sb     tau(   3) = (  0.1492728  0.1514246  0.4098857  )
         4        Te     tau(   4) = (  0.1568340  0.1587906  0.6665818  )
         5        Te     tau(   5) = (  0.4854821  0.8206082  0.4999990  )

     number of k points=    85
                       cart. coord. in units 2pi/alat
        k(    1) = (   0.0000000   0.0000000   0.0000000), wk =   0.0118343
        k(    2) = (   0.0000000   0.0897122   0.0000000), wk =   0.0236686
        k(    3) = (   0.0000000   0.1794244   0.0000000), wk =   0.0236686
        k(    4) = (   0.0000000   0.2691367   0.0000000), wk =   0.0236686
        k(    5) = (   0.0000000   0.3588489   0.0000000), wk =   0.0236686
        k(    6) = (   0.0000000   0.4485611   0.0000000), wk =   0.0236686
        k(    7) = (   0.0000000   0.5382733   0.0000000), wk =   0.0236686
        k(    8) = (   0.0769231   0.0444120   0.0000000), wk =   0.0236686
        k(    9) = (   0.0769231   0.1341242   0.0000000), wk =   0.0236686
        k(   10) = (   0.0769231   0.2238364   0.0000000), wk =   0.0236686
        k(   11) = (   0.0769231   0.3135486   0.0000000), wk =   0.0236686
        k(   12) = (   0.0769231   0.4032609   0.0000000), wk =   0.0236686
        k(   13) = (   0.0769231   0.4929731   0.0000000), wk =   0.0236686
        k(   14) = (   0.0769231   0.5826853   0.0000000), wk =   0.0236686
        k(   15) = (   0.0769231  -0.4938613   0.0000000), wk =   0.0236686
        k(   16) = (   0.0769231  -0.4041491   0.0000000), wk =   0.0236686
        k(   17) = (   0.0769231  -0.3144369   0.0000000), wk =   0.0236686
        k(   18) = (   0.0769231  -0.2247247   0.0000000), wk =   0.0236686
        k(   19) = (   0.0769231  -0.1350124   0.0000000), wk =   0.0236686
        k(   20) = (   0.0769231  -0.0453002   0.0000000), wk =   0.0236686
        k(   21) = (   0.1538462   0.0888240   0.0000000), wk =   0.0236686
        k(   22) = (   0.1538462   0.1785362   0.0000000), wk =   0.0236686
        k(   23) = (   0.1538462   0.2682484   0.0000000), wk =   0.0236686
        k(   24) = (   0.1538462   0.3579606   0.0000000), wk =   0.0236686
        k(   25) = (   0.1538462   0.4476728   0.0000000), wk =   0.0236686
        k(   26) = (   0.1538462   0.5373851   0.0000000), wk =   0.0236686
        k(   27) = (   0.1538462   0.6270973   0.0000000), wk =   0.0236686
        k(   28) = (   0.1538462  -0.4494493   0.0000000), wk =   0.0236686
        k(   29) = (   0.1538462  -0.3597371   0.0000000), wk =   0.0236686
        k(   30) = (   0.1538462  -0.2700249   0.0000000), wk =   0.0236686
        k(   31) = (   0.1538462  -0.1803127   0.0000000), wk =   0.0236686
        k(   32) = (   0.1538462  -0.0906005   0.0000000), wk =   0.0236686
        k(   33) = (   0.1538462  -0.0008882   0.0000000), wk =   0.0236686
        k(   34) = (   0.2307692   0.1332360   0.0000000), wk =   0.0236686
        k(   35) = (   0.2307692   0.2229482   0.0000000), wk =   0.0236686
        k(   36) = (   0.2307692   0.3126604   0.0000000), wk =   0.0236686
        k(   37) = (   0.2307692   0.4023726   0.0000000), wk =   0.0236686
        k(   38) = (   0.2307692   0.4920848   0.0000000), wk =   0.0236686
        k(   39) = (   0.2307692   0.5817971   0.0000000), wk =   0.0236686
        k(   40) = (   0.2307692   0.6715093   0.0000000), wk =   0.0236686
        k(   41) = (   0.2307692  -0.4050373   0.0000000), wk =   0.0236686
        k(   42) = (   0.2307692  -0.3153251   0.0000000), wk =   0.0236686
        k(   43) = (   0.2307692  -0.2256129   0.0000000), wk =   0.0236686
        k(   44) = (   0.2307692  -0.1359007   0.0000000), wk =   0.0236686
        k(   45) = (   0.2307692  -0.0461885   0.0000000), wk =   0.0236686
        k(   46) = (   0.2307692   0.0435237   0.0000000), wk =   0.0236686
        k(   47) = (   0.3076923   0.1776480   0.0000000), wk =   0.0236686
        k(   48) = (   0.3076923   0.2673602   0.0000000), wk =   0.0236686
        k(   49) = (   0.3076923   0.3570724   0.0000000), wk =   0.0236686
        k(   50) = (   0.3076923   0.4467846   0.0000000), wk =   0.0236686
        k(   51) = (   0.3076923   0.5364968   0.0000000), wk =   0.0236686
        k(   52) = (   0.3076923   0.6262090   0.0000000), wk =   0.0236686
        k(   53) = (   0.3076923   0.7159213   0.0000000), wk =   0.0236686
        k(   54) = (   0.3076923  -0.3606253   0.0000000), wk =   0.0236686
        k(   55) = (   0.3076923  -0.2709131   0.0000000), wk =   0.0236686
        k(   56) = (   0.3076923  -0.1812009   0.0000000), wk =   0.0236686
        k(   57) = (   0.3076923  -0.0914887   0.0000000), wk =   0.0236686
        k(   58) = (   0.3076923  -0.0017765   0.0000000), wk =   0.0236686
        k(   59) = (   0.3076923   0.0879357   0.0000000), wk =   0.0236686
        k(   60) = (   0.3846154   0.2220599   0.0000000), wk =   0.0236686
        k(   61) = (   0.3846154   0.3117722   0.0000000), wk =   0.0236686
        k(   62) = (   0.3846154   0.4014844   0.0000000), wk =   0.0236686
        k(   63) = (   0.3846154   0.4911966   0.0000000), wk =   0.0236686
        k(   64) = (   0.3846154   0.5809088   0.0000000), wk =   0.0236686
        k(   65) = (   0.3846154   0.6706210   0.0000000), wk =   0.0236686
        k(   66) = (   0.3846154   0.7603332   0.0000000), wk =   0.0236686
        k(   67) = (   0.3846154  -0.3162134   0.0000000), wk =   0.0236686
        k(   68) = (   0.3846154  -0.2265011   0.0000000), wk =   0.0236686
        k(   69) = (   0.3846154  -0.1367889   0.0000000), wk =   0.0236686
        k(   70) = (   0.3846154  -0.0470767   0.0000000), wk =   0.0236686
        k(   71) = (   0.3846154   0.0426355   0.0000000), wk =   0.0236686
        k(   72) = (   0.3846154   0.1323477   0.0000000), wk =   0.0236686
        k(   73) = (   0.4615385   0.2664719   0.0000000), wk =   0.0236686
        k(   74) = (   0.4615385   0.3561841   0.0000000), wk =   0.0236686
        k(   75) = (   0.4615385   0.4458964   0.0000000), wk =   0.0236686
        k(   76) = (   0.4615385   0.5356086   0.0000000), wk =   0.0236686
        k(   77) = (   0.4615385   0.6253208   0.0000000), wk =   0.0236686
        k(   78) = (   0.4615385   0.7150330   0.0000000), wk =   0.0236686
        k(   79) = (   0.4615385   0.8047452   0.0000000), wk =   0.0236686
        k(   80) = (   0.4615385  -0.2718014   0.0000000), wk =   0.0236686
        k(   81) = (   0.4615385  -0.1820892   0.0000000), wk =   0.0236686
        k(   82) = (   0.4615385  -0.0923769   0.0000000), wk =   0.0236686
        k(   83) = (   0.4615385  -0.0026647   0.0000000), wk =   0.0236686
        k(   84) = (   0.4615385   0.0870475   0.0000000), wk =   0.0236686
        k(   85) = (   0.4615385   0.1767597   0.0000000), wk =   0.0236686

                       cryst. coord.
        k(    1) = (   0.0000000   0.0000000   0.0000000), wk =   0.0118343
        k(    2) = (   0.0000000   0.0769231   0.0000000), wk =   0.0236686
        k(    3) = (   0.0000000   0.1538462   0.0000000), wk =   0.0236686
        k(    4) = (   0.0000000   0.2307692   0.0000000), wk =   0.0236686
        k(    5) = (   0.0000000   0.3076923   0.0000000), wk =   0.0236686
        k(    6) = (   0.0000000   0.3846154   0.0000000), wk =   0.0236686
        k(    7) = (   0.0000000   0.4615385   0.0000000), wk =   0.0236686
        k(    8) = (   0.0769231  -0.0000000   0.0000000), wk =   0.0236686
        k(    9) = (   0.0769231   0.0769231   0.0000000), wk =   0.0236686
        k(   10) = (   0.0769231   0.1538462   0.0000000), wk =   0.0236686
        k(   11) = (   0.0769231   0.2307692   0.0000000), wk =   0.0236686
        k(   12) = (   0.0769231   0.3076923   0.0000000), wk =   0.0236686
        k(   13) = (   0.0769231   0.3846154   0.0000000), wk =   0.0236686
        k(   14) = (   0.0769231   0.4615385   0.0000000), wk =   0.0236686
        k(   15) = (   0.0769231  -0.4615385   0.0000000), wk =   0.0236686
        k(   16) = (   0.0769231  -0.3846154   0.0000000), wk =   0.0236686
        k(   17) = (   0.0769231  -0.3076923   0.0000000), wk =   0.0236686
        k(   18) = (   0.0769231  -0.2307692   0.0000000), wk =   0.0236686
        k(   19) = (   0.0769231  -0.1538462   0.0000000), wk =   0.0236686
        k(   20) = (   0.0769231  -0.0769231   0.0000000), wk =   0.0236686
        k(   21) = (   0.1538462  -0.0000000   0.0000000), wk =   0.0236686
        k(   22) = (   0.1538462   0.0769231   0.0000000), wk =   0.0236686
        k(   23) = (   0.1538462   0.1538462   0.0000000), wk =   0.0236686
        k(   24) = (   0.1538462   0.2307692   0.0000000), wk =   0.0236686
        k(   25) = (   0.1538462   0.3076923   0.0000000), wk =   0.0236686
        k(   26) = (   0.1538462   0.3846154   0.0000000), wk =   0.0236686
        k(   27) = (   0.1538462   0.4615385   0.0000000), wk =   0.0236686
        k(   28) = (   0.1538462  -0.4615385   0.0000000), wk =   0.0236686
        k(   29) = (   0.1538462  -0.3846154   0.0000000), wk =   0.0236686
        k(   30) = (   0.1538462  -0.3076923   0.0000000), wk =   0.0236686
        k(   31) = (   0.1538462  -0.2307692   0.0000000), wk =   0.0236686
        k(   32) = (   0.1538462  -0.1538462   0.0000000), wk =   0.0236686
        k(   33) = (   0.1538462  -0.0769231   0.0000000), wk =   0.0236686
        k(   34) = (   0.2307692  -0.0000000   0.0000000), wk =   0.0236686
        k(   35) = (   0.2307692   0.0769231   0.0000000), wk =   0.0236686
        k(   36) = (   0.2307692   0.1538462   0.0000000), wk =   0.0236686
        k(   37) = (   0.2307692   0.2307692   0.0000000), wk =   0.0236686
        k(   38) = (   0.2307692   0.3076923   0.0000000), wk =   0.0236686
        k(   39) = (   0.2307692   0.3846154   0.0000000), wk =   0.0236686
        k(   40) = (   0.2307692   0.4615385   0.0000000), wk =   0.0236686
        k(   41) = (   0.2307692  -0.4615385   0.0000000), wk =   0.0236686
        k(   42) = (   0.2307692  -0.3846154   0.0000000), wk =   0.0236686
        k(   43) = (   0.2307692  -0.3076923   0.0000000), wk =   0.0236686
        k(   44) = (   0.2307692  -0.2307692   0.0000000), wk =   0.0236686
        k(   45) = (   0.2307692  -0.1538462   0.0000000), wk =   0.0236686
        k(   46) = (   0.2307692  -0.0769231   0.0000000), wk =   0.0236686
        k(   47) = (   0.3076923  -0.0000000   0.0000000), wk =   0.0236686
        k(   48) = (   0.3076923   0.0769231   0.0000000), wk =   0.0236686
        k(   49) = (   0.3076923   0.1538462   0.0000000), wk =   0.0236686
        k(   50) = (   0.3076923   0.2307692   0.0000000), wk =   0.0236686
        k(   51) = (   0.3076923   0.3076923   0.0000000), wk =   0.0236686
        k(   52) = (   0.3076923   0.3846154   0.0000000), wk =   0.0236686
        k(   53) = (   0.3076923   0.4615385   0.0000000), wk =   0.0236686
        k(   54) = (   0.3076923  -0.4615385   0.0000000), wk =   0.0236686
        k(   55) = (   0.3076923  -0.3846154   0.0000000), wk =   0.0236686
        k(   56) = (   0.3076923  -0.3076923   0.0000000), wk =   0.0236686
        k(   57) = (   0.3076923  -0.2307692   0.0000000), wk =   0.0236686
        k(   58) = (   0.3076923  -0.1538462   0.0000000), wk =   0.0236686
        k(   59) = (   0.3076923  -0.0769231   0.0000000), wk =   0.0236686
        k(   60) = (   0.3846154   0.0000000   0.0000000), wk =   0.0236686
        k(   61) = (   0.3846154   0.0769231   0.0000000), wk =   0.0236686
        k(   62) = (   0.3846154   0.1538462   0.0000000), wk =   0.0236686
        k(   63) = (   0.3846154   0.2307692   0.0000000), wk =   0.0236686
        k(   64) = (   0.3846154   0.3076923   0.0000000), wk =   0.0236686
        k(   65) = (   0.3846154   0.3846154   0.0000000), wk =   0.0236686
        k(   66) = (   0.3846154   0.4615385   0.0000000), wk =   0.0236686
        k(   67) = (   0.3846154  -0.4615385   0.0000000), wk =   0.0236686
        k(   68) = (   0.3846154  -0.3846154   0.0000000), wk =   0.0236686
        k(   69) = (   0.3846154  -0.3076923   0.0000000), wk =   0.0236686
        k(   70) = (   0.3846154  -0.2307692   0.0000000), wk =   0.0236686
        k(   71) = (   0.3846154  -0.1538462   0.0000000), wk =   0.0236686
        k(   72) = (   0.3846154  -0.0769231   0.0000000), wk =   0.0236686
        k(   73) = (   0.4615385  -0.0000000   0.0000000), wk =   0.0236686
        k(   74) = (   0.4615385   0.0769231   0.0000000), wk =   0.0236686
        k(   75) = (   0.4615385   0.1538462   0.0000000), wk =   0.0236686
        k(   76) = (   0.4615385   0.2307692   0.0000000), wk =   0.0236686
        k(   77) = (   0.4615385   0.3076923   0.0000000), wk =   0.0236686
        k(   78) = (   0.4615385   0.3846154   0.0000000), wk =   0.0236686
        k(   79) = (   0.4615385   0.4615385   0.0000000), wk =   0.0236686
        k(   80) = (   0.4615385  -0.4615385   0.0000000), wk =   0.0236686
        k(   81) = (   0.4615385  -0.3846154   0.0000000), wk =   0.0236686
        k(   82) = (   0.4615385  -0.3076923   0.0000000), wk =   0.0236686
        k(   83) = (   0.4615385  -0.2307692   0.0000000), wk =   0.0236686
        k(   84) = (   0.4615385  -0.1538462   0.0000000), wk =   0.0236686
        k(   85) = (   0.4615385  -0.0769231   0.0000000), wk =   0.0236686

     Dense  grid:   192371 G-vectors     FFT dimensions: (  45,  45, 225)

     Dynamical RAM for                 wfc:       0.30 MB

     Dynamical RAM for     wfc (w. buffer):      26.22 MB

     Dynamical RAM for                 EXX:     453.53 MB

     Dynamical RAM for           str. fact:       0.08 MB

     Dynamical RAM for           local pot:       0.00 MB

     Dynamical RAM for          nlocal pot:       0.46 MB

     Dynamical RAM for                qrad:       2.85 MB

     Dynamical RAM for          rho,v,vnew:       0.31 MB

     Dynamical RAM for               rhoin:       0.10 MB

     Dynamical RAM for            rho*nmix:       0.65 MB

     Dynamical RAM for           G-vectors:       0.17 MB

     Dynamical RAM for          h,s,v(r/c):       0.66 MB

     Dynamical RAM for          <psi|beta>:       0.08 MB

     Dynamical RAM for                 psi:       0.61 MB

     Dynamical RAM for                hpsi:       0.61 MB

     Dynamical RAM for      wfcinit/wfcrot:       0.69 MB

     Estimated static dynamical RAM per process >     484.15 MB

     Estimated max dynamical RAM per process >     486.76 MB

     Estimated total dynamical RAM >      34.22 GB
     EXX: ACE will be initialized later

     Initial potential from superposition of free atoms

     starting charge      77.7638, renormalised to      78.0000

     negative rho (up, down):  6.495E-04 0.000E+00
     Starting wfcs are random

     total cpu time spent up to now is        4.0 secs

     Self-consistent Calculation

     iteration #  1     ecut=    70.00 Ry     beta= 0.70
     Davidson diagonalization with overlap

---- Real-time Memory Report at c_bands before calling an iterative solver
           223 MiB given to the printing process from OS
             0 MiB allocation reported by mallinfo(arena+hblkhd)
        105297 MiB available memory on the node where the printing process lives
------------------
     ethr =  1.00E-02,  avg # of iterations = 10.1

     Threshold (ethr) on eigenvalues was too large:
     Diagonalizing with lowered threshold

     Davidson diagonalization with overlap

---- Real-time Memory Report at c_bands before calling an iterative solver
           226 MiB given to the printing process from OS
             0 MiB allocation reported by mallinfo(arena+hblkhd)
        105253 MiB available memory on the node where the printing process lives
------------------
     ethr =  1.47E-04,  avg # of iterations =  9.8

     negative rho (up, down):  4.717E-05 0.000E+00

     total cpu time spent up to now is       56.9 secs

     total energy              =    -807.02986297 Ry
     estimated scf accuracy    <       0.10223124 Ry

     iteration #  2     ecut=    70.00 Ry     beta= 0.70
     Davidson diagonalization with overlap

---- Real-time Memory Report at c_bands before calling an iterative solver
           227 MiB given to the printing process from OS
             0 MiB allocation reported by mallinfo(arena+hblkhd)
        105253 MiB available memory on the node where the printing process lives
------------------
     ethr =  1.31E-04,  avg # of iterations = 11.5

     negative rho (up, down):  3.964E-05 0.000E+00

     total cpu time spent up to now is       76.6 secs

     total energy              =    -806.93037742 Ry
     estimated scf accuracy    <       0.98308425 Ry

     iteration #  3     ecut=    70.00 Ry     beta= 0.70
     Davidson diagonalization with overlap

---- Real-time Memory Report at c_bands before calling an iterative solver
           238 MiB given to the printing process from OS
             0 MiB allocation reported by mallinfo(arena+hblkhd)
        105007 MiB available memory on the node where the printing process lives
------------------
     ethr =  1.31E-04,  avg # of iterations = 12.4

     negative rho (up, down):  2.524E-05 0.000E+00

     total cpu time spent up to now is       95.5 secs

     total energy              =    -807.04927394 Ry
     estimated scf accuracy    <       0.29407595 Ry

     iteration #  4     ecut=    70.00 Ry     beta= 0.70
     Davidson diagonalization with overlap

---- Real-time Memory Report at c_bands before calling an iterative solver
           241 MiB given to the printing process from OS
             0 MiB allocation reported by mallinfo(arena+hblkhd)
        104998 MiB available memory on the node where the printing process lives
------------------
     ethr =  1.31E-04,  avg # of iterations =  6.1

     negative rho (up, down):  1.673E-06 0.000E+00

     total cpu time spent up to now is      108.9 secs

     total energy              =    -807.08002825 Ry
     estimated scf accuracy    <       0.00184495 Ry

     iteration #  5     ecut=    70.00 Ry     beta= 0.70
     Davidson diagonalization with overlap

---- Real-time Memory Report at c_bands before calling an iterative solver
           242 MiB given to the printing process from OS
             0 MiB allocation reported by mallinfo(arena+hblkhd)
        104855 MiB available memory on the node where the printing process lives
------------------
     c_bands:  1 eigenvalues not converged
     c_bands:  1 eigenvalues not converged
     c_bands:  1 eigenvalues not converged
     ethr =  2.37E-06,  avg # of iterations = 11.4

     negative rho (up, down):  7.350E-07 0.000E+00

     total cpu time spent up to now is      127.5 secs

     total energy              =    -807.08001607 Ry
     estimated scf accuracy    <       0.00093722 Ry

     iteration #  6     ecut=    70.00 Ry     beta= 0.70
     Davidson diagonalization with overlap

---- Real-time Memory Report at c_bands before calling an iterative solver
           252 MiB given to the printing process from OS
             0 MiB allocation reported by mallinfo(arena+hblkhd)
        104744 MiB available memory on the node where the printing process lives
------------------
     ethr =  1.20E-06,  avg # of iterations =  9.5

     total cpu time spent up to now is      144.3 secs

     total energy              =    -807.07983605 Ry
     estimated scf accuracy    <       0.00924280 Ry

     iteration #  7     ecut=    70.00 Ry     beta= 0.70
     Davidson diagonalization with overlap

---- Real-time Memory Report at c_bands before calling an iterative solver
           252 MiB given to the printing process from OS
             0 MiB allocation reported by mallinfo(arena+hblkhd)
        104742 MiB available memory on the node where the printing process lives
------------------
     ethr =  1.20E-06,  avg # of iterations =  9.4

     total cpu time spent up to now is      160.2 secs

     total energy              =    -807.08033139 Ry
     estimated scf accuracy    <       0.00000667 Ry

     iteration #  8     ecut=    70.00 Ry     beta= 0.70
     Davidson diagonalization with overlap

---- Real-time Memory Report at c_bands before calling an iterative solver
           253 MiB given to the printing process from OS
             0 MiB allocation reported by mallinfo(arena+hblkhd)
        104740 MiB available memory on the node where the printing process lives
------------------
     ethr =  8.55E-09,  avg # of iterations = 10.4

     total cpu time spent up to now is      178.2 secs

     End of self-consistent calculation

          k = 0.0000 0.0000 0.0000 ( 23927 PWs)   bands (ev):

   -34.5841 -34.5838 -34.5834 -34.5830 -34.5562 -34.5554 -34.5539 -34.5536
   -34.5425 -34.5418 -34.4481 -34.4396 -34.4361 -34.3982 -34.3980 -27.3835
   -27.3827 -27.3821 -27.3814 -27.3718 -27.3716 -27.3706 -27.3705 -27.3682
   -27.3670 -10.5240 -10.0043  -8.9340  -6.2038  -4.8296  -0.0522   0.3340
     0.4185   0.5669   0.6296   0.9346   1.1922   1.2416   1.4963   2.5771
     2.9662   3.0015   3.9715   4.0080   4.0552   6.4835   6.6801   7.2997
     7.8496   8.0174   8.1586   8.7032   9.0636   9.1131   9.2692   9.4156
     9.9297   9.9828  10.4139  10.4749

     occupation numbers 
     1.0000   1.0000   1.0000   1.0000   1.0000   1.0000   1.0000   1.0000
     1.0000   1.0000   1.0000   1.0000   1.0000   1.0000   1.0000   1.0000
     1.0000   1.0000   1.0000   1.0000   1.0000   1.0000   1.0000   1.0000
     1.0000   1.0000   1.0000   1.0000   1.0000   1.0000   1.0000   1.0000
     1.0000   1.0000   1.0000   1.0000   1.0000   1.0000   1.0000   0.0000
     0.0000   0.0000   0.0000   0.0000   0.0000   0.0000   0.0000   0.0000
     0.0000   0.0000   0.0000   0.0000   0.0000   0.0000   0.0000   0.0000
     0.0000   0.0000   0.0000   0.0000

          k = 0.0000 0.0897 0.0000 ( 23925 PWs)   bands (ev):

   -34.5841 -34.5838 -34.5834 -34.5829 -34.5563 -34.5554 -34.5540 -34.5536
   -34.5425 -34.5418 -34.4480 -34.4396 -34.4362 -34.3981 -34.3980 -27.3833
   -27.3828 -27.3820 -27.3815 -27.3720 -27.3716 -27.3707 -27.3705 -27.3681
   -27.3669 -10.4727  -9.9571  -8.9051  -6.2104  -4.9123  -0.2355   0.0491
     0.1572   0.2768   0.4986   0.7269   1.2444   1.3503   1.8279   2.6757
     3.0557   3.1554   3.8847   4.0955   4.3983   6.5686   6.7085   7.3269
     7.7841   7.9013   8.1376   8.7968   8.9095   9.0947   9.2625   9.5553
    10.0425  10.1396  10.6342  10.7557

     occupation numbers 
     1.0000   1.0000   1.0000   1.0000   1.0000   1.0000   1.0000   1.0000
     1.0000   1.0000   1.0000   1.0000   1.0000   1.0000   1.0000   1.0000
     1.0000   1.0000   1.0000   1.0000   1.0000   1.0000   1.0000   1.0000
     1.0000   1.0000   1.0000   1.0000   1.0000   1.0000   1.0000   1.0000
     1.0000   1.0000   1.0000   1.0000   1.0000   1.0000   1.0000   0.0000
     0.0000   0.0000   0.0000   0.0000   0.0000   0.0000   0.0000   0.0000
     0.0000   0.0000   0.0000   0.0000   0.0000   0.0000   0.0000   0.0000
     0.0000   0.0000   0.0000   0.0000

          k = 0.0000 0.1794 0.0000 ( 23955 PWs)   bands (ev):

   -34.5841 -34.5835 -34.5834 -34.5827 -34.5563 -34.5555 -34.5540 -34.5537
   -34.5424 -34.5417 -34.4479 -34.4396 -34.4362 -34.3980 -34.3979 -27.3832
   -27.3826 -27.3819 -27.3813 -27.3723 -27.3717 -27.3710 -27.3705 -27.3677
   -27.3665 -10.3207  -9.8184  -8.8238  -6.2436  -5.1582  -0.9534  -0.3172
    -0.1848  -0.1538   0.2787   0.3312   1.2767   1.4816   1.7649   2.9446
     3.2668   3.5201   4.1596   4.3389   4.8305   6.7029   6.7941   7.1863
     7.7806   7.8906   8.4412   8.6961   8.9298   9.0900   9.4531   9.8316
    10.0071  10.3417  10.9459  11.1234

     occupation numbers 
     1.0000   1.0000   1.0000   1.0000   1.0000   1.0000   1.0000   1.0000
     1.0000   1.0000   1.0000   1.0000   1.0000   1.0000   1.0000   1.0000
     1.0000   1.0000   1.0000   1.0000   1.0000   1.0000   1.0000   1.0000
     1.0000   1.0000   1.0000   1.0000   1.0000   1.0000   1.0000   1.0000
     1.0000   1.0000   1.0000   1.0000   1.0000   1.0000   1.0000   0.0000
     0.0000   0.0000   0.0000   0.0000   0.0000   0.0000   0.0000   0.0000
     0.0000   0.0000   0.0000   0.0000   0.0000   0.0000   0.0000   0.0000
     0.0000   0.0000   0.0000   0.0000

          k = 0.0000 0.2691 0.0000 ( 23986 PWs)   bands (ev):

   -34.5841 -34.5834 -34.5832 -34.5824 -34.5563 -34.5555 -34.5541 -34.5537
   -34.5422 -34.5415 -34.4478 -34.4396 -34.4363 -34.3979 -34.3975 -27.3835
   -27.3822 -27.3818 -27.3805 -27.3728 -27.3717 -27.3715 -27.3705 -27.3672
   -27.3661 -10.0734  -9.5973  -8.7084  -6.3416  -5.5419  -1.6621  -0.8166
    -0.5673  -0.5311   0.0105   0.3418   0.8880   1.2241   1.8648   2.9880
     3.4688   3.8918   4.5199   4.6519   5.2956   6.4038   7.0518   7.3389
     7.9524   8.2321   8.6163   8.9424   9.0248   9.2450   9.9381  10.0559
    10.2691  10.4935  10.8239  11.6583

     occupation numbers 
     1.0000   1.0000   1.0000   1.0000   1.0000   1.0000   1.0000   1.0000
     1.0000   1.0000   1.0000   1.0000   1.0000   1.0000   1.0000   1.0000
     1.0000   1.0000   1.0000   1.0000   1.0000   1.0000   1.0000   1.0000
     1.0000   1.0000   1.0000   1.0000   1.0000   1.0000   1.0000   1.0000
     1.0000   1.0000   1.0000   1.0000   1.0000   1.0000   1.0000   0.0000
     0.0000   0.0000   0.0000   0.0000   0.0000   0.0000   0.0000   0.0000
     0.0000   0.0000   0.0000   0.0000   0.0000   0.0000   0.0000   0.0000
     0.0000   0.0000   0.0000   0.0000

          k = 0.0000 0.3588 0.0000 ( 24054 PWs)   bands (ev):

   -34.5840 -34.5834 -34.5829 -34.5821 -34.5563 -34.5555 -34.5542 -34.5538
   -34.5420 -34.5413 -34.4477 -34.4397 -34.4364 -34.3979 -34.3972 -27.3839
   -27.3826 -27.3811 -27.3798 -27.3733 -27.3719 -27.3717 -27.3704 -27.3667
   -27.3655  -9.7431  -9.3146  -8.5956  -6.5523  -5.9857  -2.2113  -1.2990
    -0.8199  -0.7592  -0.2327   0.1813   0.6295   1.1268   1.6103   3.0620
     3.5904   3.9570   4.7180   4.9467   5.7479   6.0597   7.3424   7.6181
     8.1452   8.6790   8.8637   9.3818   9.6633   9.6871  10.1623  10.4782
    10.4912  10.9707  11.0349  11.3810

     occupation numbers 
     1.0000   1.0000   1.0000   1.0000   1.0000   1.0000   1.0000   1.0000
     1.0000   1.0000   1.0000   1.0000   1.0000   1.0000   1.0000   1.0000
     1.0000   1.0000   1.0000   1.0000   1.0000   1.0000   1.0000   1.0000
     1.0000   1.0000   1.0000   1.0000   1.0000   1.0000   1.0000   1.0000
     1.0000   1.0000   1.0000   1.0000   1.0000   1.0000   1.0000   0.0000
     0.0000   0.0000   0.0000   0.0000   0.0000   0.0000   0.0000   0.0000
     0.0000   0.0000   0.0000   0.0000   0.0000   0.0000   0.0000   0.0000
     0.0000   0.0000   0.0000   0.0000

          k = 0.0000 0.4486 0.0000 ( 24060 PWs)   bands (ev):

   -34.5840 -34.5834 -34.5826 -34.5818 -34.5563 -34.5555 -34.5542 -34.5539
   -34.5419 -34.5412 -34.4475 -34.4397 -34.4365 -34.3979 -34.3969 -27.3842
   -27.3830 -27.3804 -27.3791 -27.3736 -27.3723 -27.3716 -27.3704 -27.3663
   -27.3651  -9.3546  -9.0148  -8.5503  -6.8686  -6.3725  -2.5834  -1.5404
    -1.0234  -0.9726  -0.4111  -0.0728   0.6820   1.0353   1.3021   3.0931
     3.6372   3.8392   4.8688   5.1557   5.7397   6.0441   7.3577   8.1085
     8.4680   9.1155   9.4607   9.6518   9.8859  10.3460  10.6252  10.6672
    10.9983  11.1562  11.3098  11.6032

     occupation numbers 
     1.0000   1.0000   1.0000   1.0000   1.0000   1.0000   1.0000   1.0000
     1.0000   1.0000   1.0000   1.0000   1.0000   1.0000   1.0000   1.0000
     1.0000   1.0000   1.0000   1.0000   1.0000   1.0000   1.0000   1.0000
     1.0000   1.0000   1.0000   1.0000   1.0000   1.0000   1.0000   1.0000
     1.0000   1.0000   1.0000   1.0000   1.0000   1.0000   1.0000   0.0000
     0.0000   0.0000   0.0000   0.0000   0.0000   0.0000   0.0000   0.0000
     0.0000   0.0000   0.0000   0.0000   0.0000   0.0000   0.0000   0.0000
     0.0000   0.0000   0.0000   0.0000

          k = 0.0000 0.5383 0.0000 ( 24063 PWs)   bands (ev):

   -34.5840 -34.5833 -34.5825 -34.5816 -34.5563 -34.5556 -34.5543 -34.5539
   -34.5418 -34.5411 -34.4475 -34.4397 -34.4365 -34.3979 -34.3968 -27.3844
   -27.3832 -27.3801 -27.3788 -27.3738 -27.3725 -27.3716 -27.3703 -27.3660
   -27.3648  -8.9611  -8.7948  -8.6620  -7.1308  -6.6062  -2.7786  -1.5318
    -1.2438  -1.1272  -0.5044  -0.1302   0.6906   0.9818   1.1462   3.0418
     3.6479   3.8112   4.8976   5.2572   5.6577   6.0356   7.4157   8.6270
     8.8543   9.2033   9.4121   9.7715   9.9637  10.4530  10.8184  11.1942
    11.3224  11.4669  11.7894  11.8470

     occupation numbers 
     1.0000   1.0000   1.0000   1.0000   1.0000   1.0000   1.0000   1.0000
     1.0000   1.0000   1.0000   1.0000   1.0000   1.0000   1.0000   1.0000
     1.0000   1.0000   1.0000   1.0000   1.0000   1.0000   1.0000   1.0000
     1.0000   1.0000   1.0000   1.0000   1.0000   1.0000   1.0000   1.0000
     1.0000   1.0000   1.0000   1.0000   1.0000   1.0000   1.0000   0.0000
     0.0000   0.0000   0.0000   0.0000   0.0000   0.0000   0.0000   0.0000
     0.0000   0.0000   0.0000   0.0000   0.0000   0.0000   0.0000   0.0000
     0.0000   0.0000   0.0000   0.0000

          k = 0.0769 0.0444 0.0000 ( 23957 PWs)   bands (ev):

   -34.5840 -34.5838 -34.5834 -34.5830 -34.5563 -34.5555 -34.5539 -34.5536
   -34.5425 -34.5418 -34.4480 -34.4396 -34.4361 -34.3982 -34.3979 -27.3835
   -27.3826 -27.3822 -27.3813 -27.3719 -27.3717 -27.3706 -27.3706 -27.3681
   -27.3669 -10.4737  -9.9582  -8.9060  -6.2117  -4.9153  -0.2556  -0.0281
     0.2275   0.2699   0.5577   0.7060   1.2900   1.3437   1.8168   2.7180
     3.0684   3.1017   3.9207   4.0976   4.3608   6.5675   6.7053   7.3269
     7.7315   7.8734   8.2553   8.7706   8.8963   9.0590   9.3784   9.4875
    10.0486  10.1849  10.5716  10.7383

     occupation numbers 
     1.0000   1.0000   1.0000   1.0000   1.0000   1.0000   1.0000   1.0000
     1.0000   1.0000   1.0000   1.0000   1.0000   1.0000   1.0000   1.0000
     1.0000   1.0000   1.0000   1.0000   1.0000   1.0000   1.0000   1.0000
     1.0000   1.0000   1.0000   1.0000   1.0000   1.0000   1.0000   1.0000
     1.0000   1.0000   1.0000   1.0000   1.0000   1.0000   1.0000   0.0000
     0.0000   0.0000   0.0000   0.0000   0.0000   0.0000   0.0000   0.0000
     0.0000   0.0000   0.0000   0.0000   0.0000   0.0000   0.0000   0.0000
     0.0000   0.0000   0.0000   0.0000

          k = 0.0769 0.1341 0.0000 ( 23979 PWs)   bands (ev):

   -34.5840 -34.5837 -34.5834 -34.5828 -34.5563 -34.5555 -34.5540 -34.5536
   -34.5424 -34.5417 -34.4480 -34.4396 -34.4362 -34.3981 -34.3979 -27.3835
   -27.3824 -27.3821 -27.3811 -27.3721 -27.3717 -27.3709 -27.3705 -27.3679
   -27.3667 -10.3725  -9.8657  -8.8513  -6.2321  -5.0812  -0.7047  -0.3535
    -0.1183   0.0058   0.3144   0.6520   1.0269   1.7171   1.7938   2.8845
     3.1737   3.3971   4.0943   4.2711   4.6815   6.7161   6.7547   7.2837
     7.5633   7.8341   8.5218   8.7804   8.8398   9.0258   9.3037   9.8172
    10.1485  10.3623  10.7565  11.0339

     occupation numbers 
     1.0000   1.0000   1.0000   1.0000   1.0000   1.0000   1.0000   1.0000
     1.0000   1.0000   1.0000   1.0000   1.0000   1.0000   1.0000   1.0000
     1.0000   1.0000   1.0000   1.0000   1.0000   1.0000   1.0000   1.0000
     1.0000   1.0000   1.0000   1.0000   1.0000   1.0000   1.0000   1.0000
     1.0000   1.0000   1.0000   1.0000   1.0000   1.0000   1.0000   0.0000
     0.0000   0.0000   0.0000   0.0000   0.0000   0.0000   0.0000   0.0000
     0.0000   0.0000   0.0000   0.0000   0.0000   0.0000   0.0000   0.0000
     0.0000   0.0000   0.0000   0.0000

          k = 0.0769 0.2238 0.0000 ( 23983 PWs)   bands (ev):

   -34.5840 -34.5834 -34.5834 -34.5826 -34.5563 -34.5555 -34.5540 -34.5537
   -34.5423 -34.5416 -34.4479 -34.4396 -34.4363 -34.3980 -34.3977 -27.3835
   -27.3823 -27.3819 -27.3807 -27.3725 -27.3717 -27.3712 -27.3705 -27.3674
   -27.3663 -10.1732  -9.6859  -8.7524  -6.2963  -5.3996  -1.3269  -0.8687
    -0.4975  -0.2491   0.0385   0.3859   0.9470   1.4967   1.8851   3.0502
     3.3125   3.8114   4.2669   4.7430   5.0687   6.6949   6.9459   7.1951
     7.6191   8.0404   8.6211   8.7277   9.0433   9.2092   9.7024  10.0528
    10.2510  10.4762  11.0885  11.2112

     occupation numbers 
     1.0000   1.0000   1.0000   1.0000   1.0000   1.0000   1.0000   1.0000
     1.0000   1.0000   1.0000   1.0000   1.0000   1.0000   1.0000   1.0000
     1.0000   1.0000   1.0000   1.0000   1.0000   1.0000   1.0000   1.0000
     1.0000   1.0000   1.0000   1.0000   1.0000   1.0000   1.0000   1.0000
     1.0000   1.0000   1.0000   1.0000   1.0000   1.0000   1.0000   0.0000
     0.0000   0.0000   0.0000   0.0000   0.0000   0.0000   0.0000   0.0000
     0.0000   0.0000   0.0000   0.0000   0.0000   0.0000   0.0000   0.0000
     0.0000   0.0000   0.0000   0.0000

          k = 0.0769 0.3135 0.0000 ( 24030 PWs)   bands (ev):

   -34.5840 -34.5833 -34.5831 -34.5822 -34.5563 -34.5555 -34.5541 -34.5537
   -34.5421 -34.5414 -34.4477 -34.4397 -34.4364 -34.3979 -34.3974 -27.3837
   -27.3824 -27.3813 -27.3801 -27.3730 -27.3718 -27.3716 -27.3705 -27.3669
   -27.3658  -9.8840  -9.4328  -8.6350  -6.4463  -5.8233  -1.9294  -1.2712
    -0.7819  -0.5808  -0.3313   0.2824   0.8665   1.1140   1.8106   3.2378
     3.3881   3.9513   4.6298   4.9846   5.5437   6.3557   7.2286   7.4890
     7.9552   8.2731   8.4995   9.0334   9.4680   9.7999  10.0640  10.2936
    10.4533  10.6879  11.3533  11.4856

     occupation numbers 
     1.0000   1.0000   1.0000   1.0000   1.0000   1.0000   1.0000   1.0000
     1.0000   1.0000   1.0000   1.0000   1.0000   1.0000   1.0000   1.0000
     1.0000   1.0000   1.0000   1.0000   1.0000   1.0000   1.0000   1.0000
     1.0000   1.0000   1.0000   1.0000   1.0000   1.0000   1.0000   1.0000
     1.0000   1.0000   1.0000   1.0000   1.0000   1.0000   1.0000   0.0000
     0.0000   0.0000   0.0000   0.0000   0.0000   0.0000   0.0000   0.0000
     0.0000   0.0000   0.0000   0.0000   0.0000   0.0000   0.0000   0.0000
     0.0000   0.0000   0.0000   0.0000

          k = 0.0769 0.4033 0.0000 ( 24058 PWs)   bands (ev):

   -34.5840 -34.5833 -34.5828 -34.5819 -34.5563 -34.5556 -34.5542 -34.5538
   -34.5420 -34.5413 -34.4476 -34.4397 -34.4364 -34.3979 -34.3971 -27.3840
   -27.3827 -27.3808 -27.3795 -27.3734 -27.3721 -27.3717 -27.3705 -27.3665
   -27.3653  -9.5226  -9.1362  -8.5464  -6.7133  -6.2519  -2.3886  -1.4920
    -1.1171  -0.8868  -0.4518   0.0894   0.6827   1.0065   1.5955   3.2872
     3.4428   3.9571   4.8690   5.1511   5.8465   6.0945   7.4180   7.8660
     8.3002   8.6738   8.9800   9.4636   9.8065   9.9212  10.5647  10.6432
    10.9076  11.0797  11.4961  11.6094

     occupation numbers 
     1.0000   1.0000   1.0000   1.0000   1.0000   1.0000   1.0000   1.0000
     1.0000   1.0000   1.0000   1.0000   1.0000   1.0000   1.0000   1.0000
     1.0000   1.0000   1.0000   1.0000   1.0000   1.0000   1.0000   1.0000
     1.0000   1.0000   1.0000   1.0000   1.0000   1.0000   1.0000   1.0000
     1.0000   1.0000   1.0000   1.0000   1.0000   1.0000   1.0000   0.0000
     0.0000   0.0000   0.0000   0.0000   0.0000   0.0000   0.0000   0.0000
     0.0000   0.0000   0.0000   0.0000   0.0000   0.0000   0.0000   0.0000
     0.0000   0.0000   0.0000   0.0000

          k = 0.0769 0.4930 0.0000 ( 24038 PWs)   bands (ev):

   -34.5840 -34.5833 -34.5825 -34.5817 -34.5564 -34.5556 -34.5542 -34.5539
   -34.5418 -34.5411 -34.4475 -34.4397 -34.4365 -34.3978 -34.3969 -27.3842
   -27.3830 -27.3803 -27.3790 -27.3737 -27.3724 -27.3717 -27.3704 -27.3661
   -27.3649  -9.1254  -8.8617  -8.5643  -7.0285  -6.5715  -2.6722  -1.5457
    -1.3606  -1.0942  -0.5314  -0.1184   0.6501   0.9631   1.3880   3.3616
     3.3912   3.8757   5.0614   5.1940   5.8142   6.0805   7.4264   8.4098
     8.6615   9.2614   9.4486   9.5081  10.0126  10.2014  10.6242  10.8916
    11.1274  11.2482  11.7300  11.7989

     occupation numbers 
     1.0000   1.0000   1.0000   1.0000   1.0000   1.0000   1.0000   1.0000
     1.0000   1.0000   1.0000   1.0000   1.0000   1.0000   1.0000   1.0000
     1.0000   1.0000   1.0000   1.0000   1.0000   1.0000   1.0000   1.0000
     1.0000   1.0000   1.0000   1.0000   1.0000   1.0000   1.0000   1.0000
     1.0000   1.0000   1.0000   1.0000   1.0000   1.0000   1.0000   0.0000
     0.0000   0.0000   0.0000   0.0000   0.0000   0.0000   0.0000   0.0000
     0.0000   0.0000   0.0000   0.0000   0.0000   0.0000   0.0000   0.0000
     0.0000   0.0000   0.0000   0.0000

          k = 0.0769 0.5827 0.0000 ( 24046 PWs)   bands (ev):

   -34.5840 -34.5833 -34.5825 -34.5816 -34.5564 -34.5556 -34.5543 -34.5539
   -34.5418 -34.5411 -34.4474 -34.4397 -34.4365 -34.3978 -34.3968 -27.3843
   -27.3831 -27.3802 -27.3789 -27.3738 -27.3725 -27.3717 -27.3704 -27.3660
   -27.3648  -8.7700  -8.7655  -8.7371  -7.1785  -6.6954  -2.7696  -1.5374
    -1.4274  -1.1887  -0.5981  -0.1705   0.6884   0.9023   1.3171   3.3381
     3.4325   3.8098   5.1500   5.1802   5.8106   6.0238   7.4731   8.7506
     9.0522   9.0885   9.2662   9.9187  10.0989  10.1351  10.7720  11.0871
    11.1940  11.4450  11.5810  11.8797

     occupation numbers 
     1.0000   1.0000   1.0000   1.0000   1.0000   1.0000   1.0000   1.0000
     1.0000   1.0000   1.0000   1.0000   1.0000   1.0000   1.0000   1.0000
     1.0000   1.0000   1.0000   1.0000   1.0000   1.0000   1.0000   1.0000
     1.0000   1.0000   1.0000   1.0000   1.0000   1.0000   1.0000   1.0000
     1.0000   1.0000   1.0000   1.0000   1.0000   1.0000   1.0000   0.0000
     0.0000   0.0000   0.0000   0.0000   0.0000   0.0000   0.0000   0.0000
     0.0000   0.0000   0.0000   0.0000   0.0000   0.0000   0.0000   0.0000
     0.0000   0.0000   0.0000   0.0000

          k = 0.0769-0.4939 0.0000 ( 24062 PWs)   bands (ev):

   -34.5840 -34.5833 -34.5825 -34.5817 -34.5563 -34.5556 -34.5542 -34.5539
   -34.5418 -34.5411 -34.4475 -34.4397 -34.4365 -34.3978 -34.3969 -27.3842
   -27.3829 -27.3804 -27.3791 -27.3737 -27.3724 -27.3717 -27.3704 -27.3661
   -27.3649  -9.1219  -8.8593  -8.5648  -7.0297  -6.5708  -2.6740  -1.5452
    -1.3698  -1.0824  -0.5405  -0.1099   0.6530   0.9524   1.3895   3.3649
     3.3832   3.8676   5.0611   5.1847   5.8107   6.0717   7.4217   8.4128
     8.6689   9.2393   9.4075   9.5043  10.0133  10.1457  10.6175  10.8588
    11.1013  11.2534  11.7783  11.8301

     occupation numbers 
     1.0000   1.0000   1.0000   1.0000   1.0000   1.0000   1.0000   1.0000
     1.0000   1.0000   1.0000   1.0000   1.0000   1.0000   1.0000   1.0000
     1.0000   1.0000   1.0000   1.0000   1.0000   1.0000   1.0000   1.0000
     1.0000   1.0000   1.0000   1.0000   1.0000   1.0000   1.0000   1.0000
     1.0000   1.0000   1.0000   1.0000   1.0000   1.0000   1.0000   0.0000
     0.0000   0.0000   0.0000   0.0000   0.0000   0.0000   0.0000   0.0000
     0.0000   0.0000   0.0000   0.0000   0.0000   0.0000   0.0000   0.0000
     0.0000   0.0000   0.0000   0.0000

          k = 0.0769-0.4041 0.0000 ( 24067 PWs)   bands (ev):

   -34.5840 -34.5833 -34.5827 -34.5819 -34.5563 -34.5555 -34.5542 -34.5538
   -34.5419 -34.5412 -34.4476 -34.4397 -34.4365 -34.3979 -34.3971 -27.3839
   -27.3827 -27.3808 -27.3795 -27.3734 -27.3722 -27.3717 -27.3704 -27.3664
   -27.3652  -9.5190  -9.1330  -8.5451  -6.7140  -6.2499  -2.3920  -1.4965
    -1.1208  -0.8732  -0.4626   0.1019   0.6827   0.9923   1.5913   3.2926
     3.4292   3.9380   4.8572   5.1509   5.8355   6.0832   7.4103   7.8677
     8.3014   8.6129   8.9718   9.4364   9.8065   9.9125  10.5697  10.6983
    10.9034  11.1233  11.5198  11.5985

     occupation numbers 
     1.0000   1.0000   1.0000   1.0000   1.0000   1.0000   1.0000   1.0000
     1.0000   1.0000   1.0000   1.0000   1.0000   1.0000   1.0000   1.0000
     1.0000   1.0000   1.0000   1.0000   1.0000   1.0000   1.0000   1.0000
     1.0000   1.0000   1.0000   1.0000   1.0000   1.0000   1.0000   1.0000
     1.0000   1.0000   1.0000   1.0000   1.0000   1.0000   1.0000   0.0000
     0.0000   0.0000   0.0000   0.0000   0.0000   0.0000   0.0000   0.0000
     0.0000   0.0000   0.0000   0.0000   0.0000   0.0000   0.0000   0.0000
     0.0000   0.0000   0.0000   0.0000

          k = 0.0769-0.3144 0.0000 ( 24040 PWs)   bands (ev):

   -34.5840 -34.5834 -34.5830 -34.5822 -34.5563 -34.5555 -34.5541 -34.5538
   -34.5421 -34.5414 -34.4477 -34.4396 -34.4364 -34.3979 -34.3973 -27.3836
   -27.3823 -27.3815 -27.3802 -27.3730 -27.3719 -27.3716 -27.3705 -27.3669
   -27.3657  -9.8809  -9.4297  -8.6330  -6.4452  -5.8200  -1.9341  -1.2711
    -0.7875  -0.5703  -0.3348   0.2953   0.8502   1.1056   1.7996   3.2265
     3.3772   3.9381   4.6017   4.9981   5.5362   6.3439   7.2237   7.4830
     7.9364   8.2542   8.4978   9.0162   9.4797   9.8584  10.0847  10.2960
    10.4608  10.6947  11.3842  11.4935

     occupation numbers 
     1.0000   1.0000   1.0000   1.0000   1.0000   1.0000   1.0000   1.0000
     1.0000   1.0000   1.0000   1.0000   1.0000   1.0000   1.0000   1.0000
     1.0000   1.0000   1.0000   1.0000   1.0000   1.0000   1.0000   1.0000
     1.0000   1.0000   1.0000   1.0000   1.0000   1.0000   1.0000   1.0000
     1.0000   1.0000   1.0000   1.0000   1.0000   1.0000   1.0000   0.0000
     0.0000   0.0000   0.0000   0.0000   0.0000   0.0000   0.0000   0.0000
     0.0000   0.0000   0.0000   0.0000   0.0000   0.0000   0.0000   0.0000
     0.0000   0.0000   0.0000   0.0000

          k = 0.0769-0.2247 0.0000 ( 23987 PWs)   bands (ev):

   -34.5841 -34.5834 -34.5833 -34.5825 -34.5563 -34.5555 -34.5541 -34.5537
   -34.5423 -34.5416 -34.4479 -34.4396 -34.4363 -34.3980 -34.3976 -27.3832
   -27.3823 -27.3819 -27.3809 -27.3726 -27.3718 -27.3713 -27.3705 -27.3674
   -27.3662 -10.1708  -9.6835  -8.7505  -6.2941  -5.3953  -1.3296  -0.8621
    -0.5023  -0.2346   0.0287   0.3862   0.9341   1.4765   1.8791   3.0103
     3.3089   3.8219   4.2342   4.7700   5.0653   6.6858   6.9479   7.1828
     7.6149   8.0400   8.6183   8.7267   9.0743   9.2157   9.7107  10.0645
    10.2314  10.4846  11.0749  11.2277

     occupation numbers 
     1.0000   1.0000   1.0000   1.0000   1.0000   1.0000   1.0000   1.0000
     1.0000   1.0000   1.0000   1.0000   1.0000   1.0000   1.0000   1.0000
     1.0000   1.0000   1.0000   1.0000   1.0000   1.0000   1.0000   1.0000
     1.0000   1.0000   1.0000   1.0000   1.0000   1.0000   1.0000   1.0000
     1.0000   1.0000   1.0000   1.0000   1.0000   1.0000   1.0000   0.0000
     0.0000   0.0000   0.0000   0.0000   0.0000   0.0000   0.0000   0.0000
     0.0000   0.0000   0.0000   0.0000   0.0000   0.0000   0.0000   0.0000
     0.0000   0.0000   0.0000   0.0000

          k = 0.0769-0.1350 0.0000 ( 23933 PWs)   bands (ev):

   -34.5841 -34.5836 -34.5834 -34.5828 -34.5563 -34.5554 -34.5540 -34.5536
   -34.5424 -34.5417 -34.4480 -34.4396 -34.4362 -34.3980 -34.3979 -27.3831
   -27.3827 -27.3818 -27.3814 -27.3722 -27.3717 -27.3709 -27.3705 -27.3678
   -27.3666 -10.3711  -9.8642  -8.8499  -6.2302  -5.0773  -0.6940  -0.3476
    -0.1045   0.0108   0.2840   0.6440   1.0074   1.7226   1.7718   2.8428
     3.1969   3.3826   4.0805   4.3010   4.6858   6.7177   6.7562   7.2753
     7.5757   7.8390   8.5131   8.7636   8.8483   9.0437   9.2894   9.8324
    10.1199  10.3630  10.7405  11.0376

     occupation numbers 
     1.0000   1.0000   1.0000   1.0000   1.0000   1.0000   1.0000   1.0000
     1.0000   1.0000   1.0000   1.0000   1.0000   1.0000   1.0000   1.0000
     1.0000   1.0000   1.0000   1.0000   1.0000   1.0000   1.0000   1.0000
     1.0000   1.0000   1.0000   1.0000   1.0000   1.0000   1.0000   1.0000
     1.0000   1.0000   1.0000   1.0000   1.0000   1.0000   1.0000   0.0000
     0.0000   0.0000   0.0000   0.0000   0.0000   0.0000   0.0000   0.0000
     0.0000   0.0000   0.0000   0.0000   0.0000   0.0000   0.0000   0.0000
     0.0000   0.0000   0.0000   0.0000

          k = 0.0769-0.0453 0.0000 ( 23931 PWs)   bands (ev):

   -34.5841 -34.5838 -34.5834 -34.5830 -34.5563 -34.5554 -34.5539 -34.5536
   -34.5425 -34.5418 -34.4480 -34.4396 -34.4362 -34.3981 -34.3979 -27.3834
   -27.3827 -27.3821 -27.3814 -27.3719 -27.3717 -27.3707 -27.3705 -27.3681
   -27.3669 -10.4732  -9.9577  -8.9055  -6.2110  -4.9138  -0.2454   0.0106
     0.1849   0.2790   0.5284   0.7178   1.2641   1.3494   1.8227   2.6953
     3.0595   3.1324   3.9041   4.0937   4.3811   6.5680   6.7069   7.3264
     7.7583   7.8839   8.1998   8.7848   8.9001   9.0786   9.3154   9.5250
    10.0476  10.1601  10.6039  10.7466

     occupation numbers 
     1.0000   1.0000   1.0000   1.0000   1.0000   1.0000   1.0000   1.0000
     1.0000   1.0000   1.0000   1.0000   1.0000   1.0000   1.0000   1.0000
     1.0000   1.0000   1.0000   1.0000   1.0000   1.0000   1.0000   1.0000
     1.0000   1.0000   1.0000   1.0000   1.0000   1.0000   1.0000   1.0000
     1.0000   1.0000   1.0000   1.0000   1.0000   1.0000   1.0000   0.0000
     0.0000   0.0000   0.0000   0.0000   0.0000   0.0000   0.0000   0.0000
     0.0000   0.0000   0.0000   0.0000   0.0000   0.0000   0.0000   0.0000
     0.0000   0.0000   0.0000   0.0000

          k = 0.1538 0.0888 0.0000 ( 23991 PWs)   bands (ev):

   -34.5839 -34.5837 -34.5832 -34.5829 -34.5563 -34.5555 -34.5540 -34.5536
   -34.5424 -34.5417 -34.4479 -34.4396 -34.4362 -34.3981 -34.3977 -27.3837
   -27.3824 -27.3820 -27.3807 -27.3721 -27.3718 -27.3709 -27.3706 -27.3678
   -27.3666 -10.3246  -9.8226  -8.8275  -6.2489  -5.1684  -0.9930  -0.3785
    -0.1681  -0.1044   0.3313   0.3524   1.3304   1.5032   1.7599   3.0051
     3.2977   3.4831   4.1800   4.3382   4.7815   6.6912   6.7835   7.1732
     7.7595   7.8824   8.5478   8.6641   8.8826   9.0879   9.5593   9.8000
     9.9907  10.3905  10.8937  11.0535

     occupation numbers 
     1.0000   1.0000   1.0000   1.0000   1.0000   1.0000   1.0000   1.0000
     1.0000   1.0000   1.0000   1.0000   1.0000   1.0000   1.0000   1.0000
     1.0000   1.0000   1.0000   1.0000   1.0000   1.0000   1.0000   1.0000
     1.0000   1.0000   1.0000   1.0000   1.0000   1.0000   1.0000   1.0000
     1.0000   1.0000   1.0000   1.0000   1.0000   1.0000   1.0000   0.0000
     0.0000   0.0000   0.0000   0.0000   0.0000   0.0000   0.0000   0.0000
     0.0000   0.0000   0.0000   0.0000   0.0000   0.0000   0.0000   0.0000
     0.0000   0.0000   0.0000   0.0000

          k = 0.1538 0.1785 0.0000 ( 24012 PWs)   bands (ev):

   -34.5839 -34.5835 -34.5832 -34.5827 -34.5563 -34.5555 -34.5540 -34.5536
   -34.5423 -34.5416 -34.4479 -34.4397 -34.4362 -34.3981 -34.3976 -27.3838
   -27.3825 -27.3817 -27.3805 -27.3724 -27.3718 -27.3711 -27.3706 -27.3675
   -27.3663 -10.1761  -9.6891  -8.7554  -6.3008  -5.4063  -1.3599  -0.8404
    -0.5344  -0.2001   0.0444   0.4053   0.9746   1.5041   1.8995   3.0407
     3.3820   3.7905   4.2355   4.8184   5.0039   6.6753   6.9429   7.1839
     7.6261   8.0295   8.5871   8.7180   9.1086   9.2371   9.6977  10.0457
    10.2886  10.4426  11.0757  11.2261

     occupation numbers 
     1.0000   1.0000   1.0000   1.0000   1.0000   1.0000   1.0000   1.0000
     1.0000   1.0000   1.0000   1.0000   1.0000   1.0000   1.0000   1.0000
     1.0000   1.0000   1.0000   1.0000   1.0000   1.0000   1.0000   1.0000
     1.0000   1.0000   1.0000   1.0000   1.0000   1.0000   1.0000   1.0000
     1.0000   1.0000   1.0000   1.0000   1.0000   1.0000   1.0000   0.0000
     0.0000   0.0000   0.0000   0.0000   0.0000   0.0000   0.0000   0.0000
     0.0000   0.0000   0.0000   0.0000   0.0000   0.0000   0.0000   0.0000
     0.0000   0.0000   0.0000   0.0000

          k = 0.1538 0.2682 0.0000 ( 24045 PWs)   bands (ev):

   -34.5839 -34.5832 -34.5832 -34.5824 -34.5564 -34.5556 -34.5541 -34.5537
   -34.5422 -34.5414 -34.4477 -34.4397 -34.4363 -34.3979 -34.3974 -27.3837
   -27.3825 -27.3813 -27.3801 -27.3728 -27.3719 -27.3714 -27.3706 -27.3671
   -27.3659  -9.9343  -9.4763  -8.6524  -6.4136  -5.7725  -1.6451  -1.5130
    -0.6562  -0.5950  -0.2915   0.1758   0.8944   1.5873   1.6558   3.1429
     3.7086   3.8331   4.3783   5.2611   5.3418   6.8458   6.9185   7.3135
     7.6795   8.2794   8.3368   8.6999   9.5250   9.8844  10.1508  10.2281
    10.4247  10.8894  11.2214  11.2702

     occupation numbers 
     1.0000   1.0000   1.0000   1.0000   1.0000   1.0000   1.0000   1.0000
     1.0000   1.0000   1.0000   1.0000   1.0000   1.0000   1.0000   1.0000
     1.0000   1.0000   1.0000   1.0000   1.0000   1.0000   1.0000   1.0000
     1.0000   1.0000   1.0000   1.0000   1.0000   1.0000   1.0000   1.0000
     1.0000   1.0000   1.0000   1.0000   1.0000   1.0000   1.0000   0.0000
     0.0000   0.0000   0.0000   0.0000   0.0000   0.0000   0.0000   0.0000
     0.0000   0.0000   0.0000   0.0000   0.0000   0.0000   0.0000   0.0000
     0.0000   0.0000   0.0000   0.0000

          k = 0.1538 0.3580 0.0000 ( 24054 PWs)   bands (ev):

   -34.5839 -34.5832 -34.5830 -34.5821 -34.5564 -34.5556 -34.5541 -34.5538
   -34.5420 -34.5413 -34.4476 -34.4397 -34.4364 -34.3978 -34.3972 -27.3837
   -27.3825 -27.3810 -27.3798 -27.3731 -27.3720 -27.3717 -27.3706 -27.3666
   -27.3654  -9.6119  -9.2043  -8.5494  -6.6140  -6.2058  -2.0952  -1.7487
    -1.0519  -0.8235  -0.5850  -0.0447   0.9318   1.1898   1.6515   3.2830
     3.8147   3.8352   4.7117   5.4258   5.6806   6.5962   7.3122   7.7434
     7.8430   8.2528   8.7787   8.9292   9.7005   9.8491  10.5611  10.6807
    10.9783  11.2620  11.3406  12.0094

     occupation numbers 
     1.0000   1.0000   1.0000   1.0000   1.0000   1.0000   1.0000   1.0000
     1.0000   1.0000   1.0000   1.0000   1.0000   1.0000   1.0000   1.0000
     1.0000   1.0000   1.0000   1.0000   1.0000   1.0000   1.0000   1.0000
     1.0000   1.0000   1.0000   1.0000   1.0000   1.0000   1.0000   1.0000
     1.0000   1.0000   1.0000   1.0000   1.0000   1.0000   1.0000   0.0000
     0.0000   0.0000   0.0000   0.0000   0.0000   0.0000   0.0000   0.0000
     0.0000   0.0000   0.0000   0.0000   0.0000   0.0000   0.0000   0.0000
     0.0000   0.0000   0.0000   0.0000

          k = 0.1538 0.4477 0.0000 ( 24036 PWs)   bands (ev):

   -34.5838 -34.5832 -34.5827 -34.5819 -34.5564 -34.5556 -34.5542 -34.5538
   -34.5419 -34.5412 -34.4475 -34.4398 -34.4365 -34.3977 -34.3970 -27.3838
   -27.3826 -27.3807 -27.3795 -27.3734 -27.3721 -27.3718 -27.3706 -27.3662
   -27.3651  -9.2347  -8.9162  -8.4996  -6.9043  -6.5937  -2.4653  -1.7793
    -1.3358  -1.1839  -0.6360  -0.2064   0.7271   1.0694   1.6036   3.2384
     3.8256   3.9795   4.8589   5.5126   5.9247   6.3871   7.5841   8.1404
     8.4717   8.5244   9.1736   9.3027   9.8752   9.9938  10.4048  10.8505
    11.1393  11.3639  11.6021  11.8727

     occupation numbers 
     1.0000   1.0000   1.0000   1.0000   1.0000   1.0000   1.0000   1.0000
     1.0000   1.0000   1.0000   1.0000   1.0000   1.0000   1.0000   1.0000
     1.0000   1.0000   1.0000   1.0000   1.0000   1.0000   1.0000   1.0000
     1.0000   1.0000   1.0000   1.0000   1.0000   1.0000   1.0000   1.0000
     1.0000   1.0000   1.0000   1.0000   1.0000   1.0000   1.0000   0.0000
     0.0000   0.0000   0.0000   0.0000   0.0000   0.0000   0.0000   0.0000
     0.0000   0.0000   0.0000   0.0000   0.0000   0.0000   0.0000   0.0000
     0.0000   0.0000   0.0000   0.0000

          k = 0.1538 0.5374 0.0000 ( 24075 PWs)   bands (ev):

   -34.5838 -34.5831 -34.5826 -34.5818 -34.5564 -34.5556 -34.5542 -34.5539
   -34.5418 -34.5411 -34.4474 -34.4398 -34.4365 -34.3977 -34.3969 -27.3838
   -27.3826 -27.3806 -27.3793 -27.3736 -27.3723 -27.3718 -27.3706 -27.3660
   -27.3648  -8.8590  -8.7040  -8.5834  -7.1623  -6.8236  -2.6481  -1.7551
    -1.6077  -1.2164  -0.6401  -0.4327   0.6681   1.0322   1.5109   3.3125
     3.7858   3.9008   5.0230   5.5294   6.0135   6.2667   7.6132   8.6651
     8.9661   9.1089   9.2572   9.7335   9.9662  10.0585  10.6013  10.6618
    10.8092  10.9761  11.3068  11.8038

     occupation numbers 
     1.0000   1.0000   1.0000   1.0000   1.0000   1.0000   1.0000   1.0000
     1.0000   1.0000   1.0000   1.0000   1.0000   1.0000   1.0000   1.0000
     1.0000   1.0000   1.0000   1.0000   1.0000   1.0000   1.0000   1.0000
     1.0000   1.0000   1.0000   1.0000   1.0000   1.0000   1.0000   1.0000
     1.0000   1.0000   1.0000   1.0000   1.0000   1.0000   1.0000   0.0000
     0.0000   0.0000   0.0000   0.0000   0.0000   0.0000   0.0000   0.0000
     0.0000   0.0000   0.0000   0.0000   0.0000   0.0000   0.0000   0.0000
     0.0000   0.0000   0.0000   0.0000

          k = 0.1538 0.6271 0.0000 ( 24067 PWs)   bands (ev):

   -34.5838 -34.5832 -34.5826 -34.5817 -34.5564 -34.5556 -34.5542 -34.5539
   -34.5418 -34.5411 -34.4474 -34.4397 -34.4365 -34.3977 -34.3969 -27.3838
   -27.3825 -27.3807 -27.3794 -27.3736 -27.3723 -27.3718 -27.3706 -27.3660
   -27.3648  -8.8529  -8.7013  -8.5862  -7.1638  -6.8231  -2.6497  -1.7641
    -1.6008  -1.2122  -0.6568  -0.4175   0.6701   1.0233   1.5119   3.3146
     3.7790   3.8935   5.0202   5.5237   6.0069   6.2604   7.6076   8.6723
     8.9790   9.0882   9.1935   9.7085   9.9803  10.0386  10.6051  10.6426
    10.7902  11.0532  11.3275  11.8033

     occupation numbers 
     1.0000   1.0000   1.0000   1.0000   1.0000   1.0000   1.0000   1.0000
     1.0000   1.0000   1.0000   1.0000   1.0000   1.0000   1.0000   1.0000
     1.0000   1.0000   1.0000   1.0000   1.0000   1.0000   1.0000   1.0000
     1.0000   1.0000   1.0000   1.0000   1.0000   1.0000   1.0000   1.0000
     1.0000   1.0000   1.0000   1.0000   1.0000   1.0000   1.0000   0.0000
     0.0000   0.0000   0.0000   0.0000   0.0000   0.0000   0.0000   0.0000
     0.0000   0.0000   0.0000   0.0000   0.0000   0.0000   0.0000   0.0000
     0.0000   0.0000   0.0000   0.0000

          k = 0.1538-0.4494 0.0000 ( 24080 PWs)   bands (ev):

   -34.5839 -34.5832 -34.5827 -34.5818 -34.5564 -34.5556 -34.5542 -34.5539
   -34.5419 -34.5411 -34.4475 -34.4397 -34.4365 -34.3978 -34.3970 -27.3837
   -27.3824 -27.3809 -27.3796 -27.3735 -27.3723 -27.3718 -27.3706 -27.3662
   -27.3650  -9.2275  -8.9102  -8.4984  -6.9066  -6.5913  -2.4703  -1.7853
    -1.3406  -1.1722  -0.6516  -0.1874   0.7236   1.0537   1.6009   3.2381
     3.8142   3.9533   4.8496   5.5007   5.9047   6.3717   7.5695   8.1144
     8.4268   8.5329   9.1429   9.3111   9.8455   9.9999  10.3982  10.8520
    11.1514  11.3543  11.6062  11.8701

     occupation numbers 
     1.0000   1.0000   1.0000   1.0000   1.0000   1.0000   1.0000   1.0000
     1.0000   1.0000   1.0000   1.0000   1.0000   1.0000   1.0000   1.0000
     1.0000   1.0000   1.0000   1.0000   1.0000   1.0000   1.0000   1.0000
     1.0000   1.0000   1.0000   1.0000   1.0000   1.0000   1.0000   1.0000
     1.0000   1.0000   1.0000   1.0000   1.0000   1.0000   1.0000   0.0000
     0.0000   0.0000   0.0000   0.0000   0.0000   0.0000   0.0000   0.0000
     0.0000   0.0000   0.0000   0.0000   0.0000   0.0000   0.0000   0.0000
     0.0000   0.0000   0.0000   0.0000

          k = 0.1538-0.3597 0.0000 ( 24055 PWs)   bands (ev):

   -34.5839 -34.5833 -34.5829 -34.5821 -34.5563 -34.5555 -34.5542 -34.5538
   -34.5420 -34.5413 -34.4476 -34.4397 -34.4364 -34.3979 -34.3971 -27.3835
   -27.3823 -27.3812 -27.3800 -27.3732 -27.3721 -27.3717 -27.3706 -27.3665
   -27.3653  -9.6052  -9.1978  -8.5458  -6.6131  -6.2013  -2.1035  -1.7495
    -1.0576  -0.8184  -0.5953  -0.0253   0.9168   1.1729   1.6408   3.2703
     3.7932   3.8125   4.6862   5.4209   5.6588   6.5754   7.2757   7.7443
     7.8236   8.2502   8.7819   8.9123   9.6974   9.8602  10.5754  10.6932
    10.9994  11.2646  11.4155  12.0245

     occupation numbers 
     1.0000   1.0000   1.0000   1.0000   1.0000   1.0000   1.0000   1.0000
     1.0000   1.0000   1.0000   1.0000   1.0000   1.0000   1.0000   1.0000
     1.0000   1.0000   1.0000   1.0000   1.0000   1.0000   1.0000   1.0000
     1.0000   1.0000   1.0000   1.0000   1.0000   1.0000   1.0000   1.0000
     1.0000   1.0000   1.0000   1.0000   1.0000   1.0000   1.0000   0.0000
     0.0000   0.0000   0.0000   0.0000   0.0000   0.0000   0.0000   0.0000
     0.0000   0.0000   0.0000   0.0000   0.0000   0.0000   0.0000   0.0000
     0.0000   0.0000   0.0000   0.0000

          k = 0.1538-0.2700 0.0000 ( 24002 PWs)   bands (ev):

   -34.5840 -34.5833 -34.5831 -34.5823 -34.5563 -34.5555 -34.5541 -34.5538
   -34.5421 -34.5414 -34.4477 -34.4397 -34.4364 -34.3979 -34.3974 -27.3834
   -27.3823 -27.3816 -27.3804 -27.3729 -27.3720 -27.3715 -27.3706 -27.3670
   -27.3658  -9.9289  -9.4706  -8.6482  -6.4097  -5.7657  -1.6430  -1.5189
    -0.6506  -0.6084  -0.2888   0.1807   0.8719   1.5669   1.6372   3.1042
     3.6876   3.8307   4.3458   5.2619   5.3396   6.8254   6.8992   7.3102
     7.6829   8.2790   8.3389   8.6876   9.5377   9.9178  10.1826  10.2357
    10.4537  10.8781  11.2082  11.2764

     occupation numbers 
     1.0000   1.0000   1.0000   1.0000   1.0000   1.0000   1.0000   1.0000
     1.0000   1.0000   1.0000   1.0000   1.0000   1.0000   1.0000   1.0000
     1.0000   1.0000   1.0000   1.0000   1.0000   1.0000   1.0000   1.0000
     1.0000   1.0000   1.0000   1.0000   1.0000   1.0000   1.0000   1.0000
     1.0000   1.0000   1.0000   1.0000   1.0000   1.0000   1.0000   0.0000
     0.0000   0.0000   0.0000   0.0000   0.0000   0.0000   0.0000   0.0000
     0.0000   0.0000   0.0000   0.0000   0.0000   0.0000   0.0000   0.0000
     0.0000   0.0000   0.0000   0.0000

          k = 0.1538-0.1803 0.0000 ( 23988 PWs)   bands (ev):

   -34.5840 -34.5834 -34.5833 -34.5826 -34.5563 -34.5555 -34.5540 -34.5537
   -34.5423 -34.5416 -34.4479 -34.4396 -34.4363 -34.3980 -34.3976 -27.3834
   -27.3822 -27.3820 -27.3808 -27.3725 -27.3718 -27.3712 -27.3705 -27.3674
   -27.3662 -10.1722  -9.6850  -8.7519  -6.2963  -5.3986  -1.3461  -0.8474
    -0.5201  -0.2106   0.0311   0.3957   0.9478   1.4808   1.8856   3.0048
     3.3430   3.8110   4.2195   4.8063   5.0340   6.6755   6.9464   7.1778
     7.6193   8.0345   8.5999   8.7237   9.1090   9.2275   9.7090  10.0605
    10.2498  10.4666  11.0709  11.2335

     occupation numbers 
     1.0000   1.0000   1.0000   1.0000   1.0000   1.0000   1.0000   1.0000
     1.0000   1.0000   1.0000   1.0000   1.0000   1.0000   1.0000   1.0000
     1.0000   1.0000   1.0000   1.0000   1.0000   1.0000   1.0000   1.0000
     1.0000   1.0000   1.0000   1.0000   1.0000   1.0000   1.0000   1.0000
     1.0000   1.0000   1.0000   1.0000   1.0000   1.0000   1.0000   0.0000
     0.0000   0.0000   0.0000   0.0000   0.0000   0.0000   0.0000   0.0000
     0.0000   0.0000   0.0000   0.0000   0.0000   0.0000   0.0000   0.0000
     0.0000   0.0000   0.0000   0.0000

          k = 0.1538-0.0906 0.0000 ( 23971 PWs)   bands (ev):

   -34.5840 -34.5836 -34.5833 -34.5828 -34.5563 -34.5555 -34.5540 -34.5536
   -34.5424 -34.5417 -34.4479 -34.4396 -34.4362 -34.3981 -34.3977 -27.3835
   -27.3823 -27.3822 -27.3810 -27.3722 -27.3718 -27.3710 -27.3705 -27.3677
   -27.3666 -10.3226  -9.8204  -8.8256  -6.2461  -5.1631  -0.9731  -0.3474
    -0.1614  -0.1456   0.3043   0.3430   1.3022   1.4940   1.7617   2.9712
     3.2838   3.5030   4.1643   4.3438   4.8060   6.6972   6.7886   7.1793
     7.7712   7.8867   8.4938   8.6806   8.9077   9.0881   9.5045   9.8166
    10.0011  10.3648  10.9197  11.0845

     occupation numbers 
     1.0000   1.0000   1.0000   1.0000   1.0000   1.0000   1.0000   1.0000
     1.0000   1.0000   1.0000   1.0000   1.0000   1.0000   1.0000   1.0000
     1.0000   1.0000   1.0000   1.0000   1.0000   1.0000   1.0000   1.0000
     1.0000   1.0000   1.0000   1.0000   1.0000   1.0000   1.0000   1.0000
     1.0000   1.0000   1.0000   1.0000   1.0000   1.0000   1.0000   0.0000
     0.0000   0.0000   0.0000   0.0000   0.0000   0.0000   0.0000   0.0000
     0.0000   0.0000   0.0000   0.0000   0.0000   0.0000   0.0000   0.0000
     0.0000   0.0000   0.0000   0.0000

          k = 0.1538-0.0009 0.0000 ( 23978 PWs)   bands (ev):

   -34.5839 -34.5838 -34.5832 -34.5830 -34.5563 -34.5555 -34.5539 -34.5536
   -34.5424 -34.5417 -34.4480 -34.4396 -34.4362 -34.3981 -34.3978 -27.3836
   -27.3824 -27.3822 -27.3809 -27.3719 -27.3719 -27.3708 -27.3706 -27.3679
   -27.3667 -10.3740  -9.8672  -8.8525  -6.2337  -5.0848  -0.7129  -0.3569
    -0.1237  -0.0117   0.3431   0.6603   1.0453   1.7165   1.8108   2.9247
     3.1625   3.3986   4.1066   4.2481   4.6731   6.7149   6.7529   7.2920
     7.5522   7.8285   8.5318   8.8087   8.8304   9.0024   9.3169   9.7963
    10.1870  10.3560  10.7758  11.0254

     occupation numbers 
     1.0000   1.0000   1.0000   1.0000   1.0000   1.0000   1.0000   1.0000
     1.0000   1.0000   1.0000   1.0000   1.0000   1.0000   1.0000   1.0000
     1.0000   1.0000   1.0000   1.0000   1.0000   1.0000   1.0000   1.0000
     1.0000   1.0000   1.0000   1.0000   1.0000   1.0000   1.0000   1.0000
     1.0000   1.0000   1.0000   1.0000   1.0000   1.0000   1.0000   0.0000
     0.0000   0.0000   0.0000   0.0000   0.0000   0.0000   0.0000   0.0000
     0.0000   0.0000   0.0000   0.0000   0.0000   0.0000   0.0000   0.0000
     0.0000   0.0000   0.0000   0.0000

          k = 0.2308 0.1332 0.0000 ( 24049 PWs)   bands (ev):

   -34.5838 -34.5835 -34.5831 -34.5827 -34.5564 -34.5556 -34.5540 -34.5536
   -34.5423 -34.5415 -34.4478 -34.4397 -34.4362 -34.3981 -34.3975 -27.3841
   -27.3828 -27.3813 -27.3800 -27.3725 -27.3719 -27.3712 -27.3706 -27.3673
   -27.3662 -10.0820  -9.6067  -8.7167  -6.3535  -5.5581  -1.6922  -0.8279
    -0.6244  -0.4435   0.0880   0.3521   0.9148   1.2876   1.8870   3.0660
     3.5062   3.8657   4.5807   4.6529   5.2393   6.3856   7.0394   7.3259
     7.9344   8.2213   8.5911   8.9911   9.0316   9.2497  10.0221  10.0347
    10.2061  10.5345  10.7918  11.5982

     occupation numbers 
     1.0000   1.0000   1.0000   1.0000   1.0000   1.0000   1.0000   1.0000
     1.0000   1.0000   1.0000   1.0000   1.0000   1.0000   1.0000   1.0000
     1.0000   1.0000   1.0000   1.0000   1.0000   1.0000   1.0000   1.0000
     1.0000   1.0000   1.0000   1.0000   1.0000   1.0000   1.0000   1.0000
     1.0000   1.0000   1.0000   1.0000   1.0000   1.0000   1.0000   0.0000
     0.0000   0.0000   0.0000   0.0000   0.0000   0.0000   0.0000   0.0000
     0.0000   0.0000   0.0000   0.0000   0.0000   0.0000   0.0000   0.0000
     0.0000   0.0000   0.0000   0.0000

          k = 0.2308 0.2229 0.0000 ( 24045 PWs)   bands (ev):

   -34.5838 -34.5833 -34.5831 -34.5825 -34.5564 -34.5556 -34.5540 -34.5537
   -34.5422 -34.5414 -34.4477 -34.4398 -34.4362 -34.3980 -34.3973 -27.3841
   -27.3828 -27.3810 -27.3797 -27.3727 -27.3720 -27.3714 -27.3707 -27.3670
   -27.3659  -9.8916  -9.4414  -8.6431  -6.4588  -5.8340  -1.9552  -1.2599
    -0.7895  -0.5493  -0.2968   0.3213   0.8838   1.1484   1.8448   3.2853
     3.4393   3.9306   4.6082   5.0539   5.4997   6.3402   7.2113   7.4720
     7.9427   8.2368   8.4852   9.0068   9.4734   9.9019  10.0604  10.2641
    10.4589  10.6904  11.4169  11.4791

     occupation numbers 
     1.0000   1.0000   1.0000   1.0000   1.0000   1.0000   1.0000   1.0000
     1.0000   1.0000   1.0000   1.0000   1.0000   1.0000   1.0000   1.0000
     1.0000   1.0000   1.0000   1.0000   1.0000   1.0000   1.0000   1.0000
     1.0000   1.0000   1.0000   1.0000   1.0000   1.0000   1.0000   1.0000
     1.0000   1.0000   1.0000   1.0000   1.0000   1.0000   1.0000   0.0000
     0.0000   0.0000   0.0000   0.0000   0.0000   0.0000   0.0000   0.0000
     0.0000   0.0000   0.0000   0.0000   0.0000   0.0000   0.0000   0.0000
     0.0000   0.0000   0.0000   0.0000

          k = 0.2308 0.3127 0.0000 ( 24027 PWs)   bands (ev):

   -34.5838 -34.5831 -34.5831 -34.5823 -34.5564 -34.5556 -34.5541 -34.5537
   -34.5420 -34.5413 -34.4476 -34.4398 -34.4363 -34.3979 -34.3972 -27.3840
   -27.3827 -27.3808 -27.3796 -27.3730 -27.3721 -27.3716 -27.3708 -27.3667
   -27.3655  -9.6165  -9.2098  -8.5550  -6.6228  -6.2083  -2.1132  -1.7295
    -1.0487  -0.7982  -0.6034  -0.0082   0.9351   1.1986   1.6815   3.3307
     3.7926   3.8644   4.7069   5.4688   5.6489   6.6068   7.2824   7.7345
     7.8217   8.2436   8.7721   8.9093   9.6763   9.8634  10.5558  10.6588
    10.9918  11.2637  11.4087  11.9916

     occupation numbers 
     1.0000   1.0000   1.0000   1.0000   1.0000   1.0000   1.0000   1.0000
     1.0000   1.0000   1.0000   1.0000   1.0000   1.0000   1.0000   1.0000
     1.0000   1.0000   1.0000   1.0000   1.0000   1.0000   1.0000   1.0000
     1.0000   1.0000   1.0000   1.0000   1.0000   1.0000   1.0000   1.0000
     1.0000   1.0000   1.0000   1.0000   1.0000   1.0000   1.0000   0.0000
     0.0000   0.0000   0.0000   0.0000   0.0000   0.0000   0.0000   0.0000
     0.0000   0.0000   0.0000   0.0000   0.0000   0.0000   0.0000   0.0000
     0.0000   0.0000   0.0000   0.0000

          k = 0.2308 0.4024 0.0000 ( 24046 PWs)   bands (ev):

   -34.5837 -34.5830 -34.5829 -34.5821 -34.5564 -34.5556 -34.5541 -34.5538
   -34.5419 -34.5412 -34.4475 -34.4398 -34.4364 -34.3977 -34.3971 -27.3837
   -27.3825 -27.3808 -27.3796 -27.3732 -27.3722 -27.3718 -27.3708 -27.3663
   -27.3652  -9.2761  -8.9411  -8.4820  -6.8392  -6.6255  -2.2138  -2.1030
    -1.2408  -1.0545  -0.9233  -0.2352   0.8841   1.2165   1.4876   3.6196
     3.6688   3.9647   5.0557   5.5602   5.8155   7.1106   7.2328   7.8176
     8.2164   8.5473   8.7706   9.2472   9.7306   9.9168  10.5953  10.8831
    10.9584  11.3393  11.8150  11.9571

     occupation numbers 
     1.0000   1.0000   1.0000   1.0000   1.0000   1.0000   1.0000   1.0000
     1.0000   1.0000   1.0000   1.0000   1.0000   1.0000   1.0000   1.0000
     1.0000   1.0000   1.0000   1.0000   1.0000   1.0000   1.0000   1.0000
     1.0000   1.0000   1.0000   1.0000   1.0000   1.0000   1.0000   1.0000
     1.0000   1.0000   1.0000   1.0000   1.0000   1.0000   1.0000   0.0000
     0.0000   0.0000   0.0000   0.0000   0.0000   0.0000   0.0000   0.0000
     0.0000   0.0000   0.0000   0.0000   0.0000   0.0000   0.0000   0.0000
     0.0000   0.0000   0.0000   0.0000

          k = 0.2308 0.4921 0.0000 ( 24064 PWs)   bands (ev):

   -34.5836 -34.5830 -34.5828 -34.5819 -34.5564 -34.5556 -34.5542 -34.5538
   -34.5418 -34.5411 -34.4474 -34.4398 -34.4365 -34.3976 -34.3971 -27.3833
   -27.3821 -27.3810 -27.3798 -27.3733 -27.3722 -27.3719 -27.3709 -27.3661
   -27.3649  -8.9123  -8.6951  -8.4715  -7.0935  -6.9590  -2.4361  -2.1306
    -1.5299  -1.2251  -0.9659  -0.3894   0.6723   1.2017   1.4743   3.5594
     3.7990   4.0295   5.2409   5.6510   5.9261   6.9843   7.9471   8.0862
     8.6987   8.8196   9.0019   9.6443   9.9150  10.0430  10.1273  10.6113
    10.8972  10.9757  11.3669  11.6062

     occupation numbers 
     1.0000   1.0000   1.0000   1.0000   1.0000   1.0000   1.0000   1.0000
     1.0000   1.0000   1.0000   1.0000   1.0000   1.0000   1.0000   1.0000
     1.0000   1.0000   1.0000   1.0000   1.0000   1.0000   1.0000   1.0000
     1.0000   1.0000   1.0000   1.0000   1.0000   1.0000   1.0000   1.0000
     1.0000   1.0000   1.0000   1.0000   1.0000   1.0000   1.0000   0.0000
     0.0000   0.0000   0.0000   0.0000   0.0000   0.0000   0.0000   0.0000
     0.0000   0.0000   0.0000   0.0000   0.0000   0.0000   0.0000   0.0000
     0.0000   0.0000   0.0000   0.0000

          k = 0.2308 0.5818 0.0000 ( 24061 PWs)   bands (ev):

   -34.5836 -34.5830 -34.5827 -34.5819 -34.5564 -34.5556 -34.5542 -34.5539
   -34.5418 -34.5411 -34.4474 -34.4398 -34.4365 -34.3975 -34.3970 -27.3831
   -27.3819 -27.3812 -27.3799 -27.3734 -27.3722 -27.3720 -27.3709 -27.3660
   -27.3648  -8.6318  -8.6008  -8.5640  -7.2437  -7.0755  -2.5349  -2.0295
    -1.7939  -1.2610  -0.7849  -0.5949   0.5784   1.2619   1.4179   3.6356
     3.6850   4.0847   5.3994   5.5188   6.0244   6.9241   7.9838   8.8404
     8.9143   9.1128   9.2300   9.4846   9.7531   9.9285  10.1294  10.4103
    10.6750  10.8853  10.9161  11.5218

     occupation numbers 
     1.0000   1.0000   1.0000   1.0000   1.0000   1.0000   1.0000   1.0000
     1.0000   1.0000   1.0000   1.0000   1.0000   1.0000   1.0000   1.0000
     1.0000   1.0000   1.0000   1.0000   1.0000   1.0000   1.0000   1.0000
     1.0000   1.0000   1.0000   1.0000   1.0000   1.0000   1.0000   1.0000
     1.0000   1.0000   1.0000   1.0000   1.0000   1.0000   1.0000   0.0000
     0.0000   0.0000   0.0000   0.0000   0.0000   0.0000   0.0000   0.0000
     0.0000   0.0000   0.0000   0.0000   0.0000   0.0000   0.0000   0.0000
     0.0000   0.0000   0.0000   0.0000

          k = 0.2308 0.6715 0.0000 ( 24041 PWs)   bands (ev):

   -34.5837 -34.5830 -34.5827 -34.5819 -34.5564 -34.5556 -34.5542 -34.5539
   -34.5418 -34.5411 -34.4474 -34.4398 -34.4365 -34.3976 -34.3970 -27.3832
   -27.3820 -27.3811 -27.3799 -27.3734 -27.3723 -27.3719 -27.3708 -27.3660
   -27.3648  -8.9026  -8.6882  -8.4713  -7.0971  -6.9574  -2.4405  -2.1382
    -1.5240  -1.2267  -0.9754  -0.3791   0.6673   1.1866   1.4750   3.5671
     3.7823   4.0016   5.2378   5.6372   5.9010   6.9711   7.9306   8.0100
     8.7090   8.8209   8.9855   9.6426   9.9151  10.0438  10.1339  10.6896
    10.9224  10.9678  11.3599  11.6142

     occupation numbers 
     1.0000   1.0000   1.0000   1.0000   1.0000   1.0000   1.0000   1.0000
     1.0000   1.0000   1.0000   1.0000   1.0000   1.0000   1.0000   1.0000
     1.0000   1.0000   1.0000   1.0000   1.0000   1.0000   1.0000   1.0000
     1.0000   1.0000   1.0000   1.0000   1.0000   1.0000   1.0000   1.0000
     1.0000   1.0000   1.0000   1.0000   1.0000   1.0000   1.0000   0.0000
     0.0000   0.0000   0.0000   0.0000   0.0000   0.0000   0.0000   0.0000
     0.0000   0.0000   0.0000   0.0000   0.0000   0.0000   0.0000   0.0000
     0.0000   0.0000   0.0000   0.0000

          k = 0.2308-0.4050 0.0000 ( 24039 PWs)   bands (ev):

   -34.5838 -34.5831 -34.5828 -34.5820 -34.5564 -34.5556 -34.5542 -34.5539
[...]

   -35.5247 -35.5239 -35.5118 -35.5109 -35.4906 -35.4897 -35.4844 -35.4837
   -35.4659 -35.4650 -35.0857 -35.0748 -35.0592 -35.0248 -35.0157 -28.4633
   -28.4619 -28.4532 -28.4524 -28.4457 -28.4450 -28.4321 -28.4316 -28.4135
   -28.4130 -10.4512 -10.3366 -10.0655  -8.6153  -8.0274  -3.9787  -2.5792
    -2.2720  -2.2560  -1.5491  -1.0499   0.3052   0.5061   0.8189   3.1128
     3.7806   3.8153   5.5115   5.7121   6.3262   6.5207   7.9844   8.8553
     9.1633   9.4735   9.7480   9.9264  10.4960  10.5542  11.1070  11.7375
    11.8460  12.3081  12.3525  12.6370

     occupation numbers 
     1.0000   1.0000   1.0000   1.0000   1.0000   1.0000   1.0000   1.0000
     1.0000   1.0000   1.0000   1.0000   1.0000   1.0000   1.0000   1.0000
     1.0000   1.0000   1.0000   1.0000   1.0000   1.0000   1.0000   1.0000
     1.0000   1.0000   1.0000   1.0000   1.0000   1.0000   1.0000   1.0000
     1.0000   1.0000   1.0000   1.0000   1.0000   1.0000   1.0000   0.0000
     0.0000   0.0000   0.0000   0.0000   0.0000   0.0000   0.0000   0.0000
     0.0000   0.0000   0.0000   0.0000   0.0000   0.0000   0.0000   0.0000
     0.0000   0.0000   0.0000   0.0000

          k = 0.4615 0.3562 0.0000 ( 24070 PWs)   bands (ev):

   -35.5225 -35.5217 -35.5104 -35.5095 -35.4886 -35.4876 -35.4850 -35.4844
   -35.4662 -35.4653 -35.0825 -35.0752 -35.0628 -35.0201 -35.0136 -28.4629
   -28.4615 -28.4516 -28.4508 -28.4434 -28.4428 -28.4336 -28.4330 -28.4162
   -28.4156 -10.3124 -10.2739 -10.1049  -8.6637  -8.1209  -3.9673  -2.6149
    -2.4999  -2.2714  -1.6244  -1.1053   0.3038   0.4330   0.9929   3.4122
     3.5584   3.8260   5.6234   5.7604   6.4908   6.5091   8.0710   9.0697
     9.2917   9.3757   9.5722  10.1583  10.3120  10.5064  11.0969  11.6560
    11.7011  11.9985  12.3727  12.5103

     occupation numbers 
     1.0000   1.0000   1.0000   1.0000   1.0000   1.0000   1.0000   1.0000
     1.0000   1.0000   1.0000   1.0000   1.0000   1.0000   1.0000   1.0000
     1.0000   1.0000   1.0000   1.0000   1.0000   1.0000   1.0000   1.0000
     1.0000   1.0000   1.0000   1.0000   1.0000   1.0000   1.0000   1.0000
     1.0000   1.0000   1.0000   1.0000   1.0000   1.0000   1.0000   0.0000
     0.0000   0.0000   0.0000   0.0000   0.0000   0.0000   0.0000   0.0000
     0.0000   0.0000   0.0000   0.0000   0.0000   0.0000   0.0000   0.0000
     0.0000   0.0000   0.0000   0.0000

          k = 0.4615 0.4459 0.0000 ( 24068 PWs)   bands (ev):

   -35.5209 -35.5201 -35.5126 -35.5117 -35.4894 -35.4886 -35.4818 -35.4809
   -35.4634 -35.4625 -35.0804 -35.0778 -35.0697 -35.0192 -35.0159 -28.4578
   -28.4565 -28.4487 -28.4478 -28.4360 -28.4354 -28.4326 -28.4321 -28.4180
   -28.4174 -10.3275 -10.2234  -9.9707  -8.6456  -8.2564  -3.8385  -2.9000
    -2.7277  -2.2597  -1.6390  -1.4229   0.2691   0.5926   1.1742   3.4089
     3.8439   3.9311   5.5314   6.0526   6.4791   7.0123   8.2505   8.9661
     9.2576   9.5301   9.7146   9.9755  10.3353  10.5465  10.9092  11.0356
    11.3340  11.6308  11.7560  12.2866

     occupation numbers 
     1.0000   1.0000   1.0000   1.0000   1.0000   1.0000   1.0000   1.0000
     1.0000   1.0000   1.0000   1.0000   1.0000   1.0000   1.0000   1.0000
     1.0000   1.0000   1.0000   1.0000   1.0000   1.0000   1.0000   1.0000
     1.0000   1.0000   1.0000   1.0000   1.0000   1.0000   1.0000   1.0000
     1.0000   1.0000   1.0000   1.0000   1.0000   1.0000   1.0000   0.0000
     0.0000   0.0000   0.0000   0.0000   0.0000   0.0000   0.0000   0.0000
     0.0000   0.0000   0.0000   0.0000   0.0000   0.0000   0.0000   0.0000
     0.0000   0.0000   0.0000   0.0000

          k = 0.4615 0.5356 0.0000 ( 24077 PWs)   bands (ev):

   -35.5174 -35.5167 -35.5060 -35.5051 -35.4883 -35.4874 -35.4816 -35.4807
   -35.4638 -35.4629 -35.0767 -35.0734 -35.0680 -35.0170 -35.0150 -28.4554
   -28.4543 -28.4497 -28.4490 -28.4318 -28.4313 -28.4312 -28.4307 -28.4223
   -28.4218 -10.3600 -10.1929  -9.8342  -8.5747  -8.4033  -3.6218  -3.3093
    -2.6713  -2.2781  -1.9919  -1.3858   0.2414   0.8280   1.0745   3.6118
     3.8344   4.0357   5.7542   6.1527   6.3805   7.8084   8.5727   8.7155
     9.0385   9.2567   9.5494   9.8988  10.3102  10.4788  10.7204  11.0642
    11.2631  11.3512  11.5926  11.8918

     occupation numbers 
     1.0000   1.0000   1.0000   1.0000   1.0000   1.0000   1.0000   1.0000
     1.0000   1.0000   1.0000   1.0000   1.0000   1.0000   1.0000   1.0000
     1.0000   1.0000   1.0000   1.0000   1.0000   1.0000   1.0000   1.0000
     1.0000   1.0000   1.0000   1.0000   1.0000   1.0000   1.0000   1.0000
     1.0000   1.0000   1.0000   1.0000   1.0000   1.0000   1.0000   0.0000
     0.0000   0.0000   0.0000   0.0000   0.0000   0.0000   0.0000   0.0000
     0.0000   0.0000   0.0000   0.0000   0.0000   0.0000   0.0000   0.0000
     0.0000   0.0000   0.0000   0.0000

          k = 0.4615 0.6253 0.0000 ( 24079 PWs)   bands (ev):

   -35.5170 -35.5165 -35.5062 -35.5053 -35.4890 -35.4883 -35.4808 -35.4796
   -35.4637 -35.4627 -35.0770 -35.0734 -35.0676 -35.0171 -35.0150 -28.4557
   -28.4546 -28.4495 -28.4488 -28.4324 -28.4318 -28.4308 -28.4303 -28.4223
   -28.4218 -10.3565 -10.1883  -9.8293  -8.5697  -8.4084  -3.6250  -3.3097
    -2.6749  -2.2842  -1.9947  -1.3826   0.2326   0.8244   1.0646   3.5806
     3.8318   4.0460   5.7325   6.1364   6.3916   7.7649   8.5674   8.7503
     9.0663   9.2501   9.5829   9.9025  10.3413  10.4784  10.7073  11.0886
    11.2584  11.3687  11.5908  11.8644

     occupation numbers 
     1.0000   1.0000   1.0000   1.0000   1.0000   1.0000   1.0000   1.0000
     1.0000   1.0000   1.0000   1.0000   1.0000   1.0000   1.0000   1.0000
     1.0000   1.0000   1.0000   1.0000   1.0000   1.0000   1.0000   1.0000
     1.0000   1.0000   1.0000   1.0000   1.0000   1.0000   1.0000   1.0000
     1.0000   1.0000   1.0000   1.0000   1.0000   1.0000   1.0000   0.0000
     0.0000   0.0000   0.0000   0.0000   0.0000   0.0000   0.0000   0.0000
     0.0000   0.0000   0.0000   0.0000   0.0000   0.0000   0.0000   0.0000
     0.0000   0.0000   0.0000   0.0000

          k = 0.4615 0.7150 0.0000 ( 24045 PWs)   bands (ev):

   -35.5197 -35.5193 -35.5126 -35.5118 -35.4902 -35.4897 -35.4809 -35.4796
   -35.4631 -35.4621 -35.0813 -35.0775 -35.0682 -35.0189 -35.0156 -28.4585
   -28.4572 -28.4485 -28.4476 -28.4360 -28.4354 -28.4332 -28.4327 -28.4183
   -28.4176 -10.3168 -10.2104  -9.9588  -8.6398  -8.2608  -3.8422  -2.9014
    -2.7445  -2.2710  -1.6284  -1.4439   0.2549   0.5800   1.1410   3.3724
     3.8395   3.8977   5.5142   6.0192   6.4764   6.9864   8.2530   8.9740
     9.2663   9.5592   9.7573   9.9882  10.3774  10.5611  10.9433  11.0464
    11.3577  11.6244  11.7550  12.2856

     occupation numbers 
     1.0000   1.0000   1.0000   1.0000   1.0000   1.0000   1.0000   1.0000
     1.0000   1.0000   1.0000   1.0000   1.0000   1.0000   1.0000   1.0000
     1.0000   1.0000   1.0000   1.0000   1.0000   1.0000   1.0000   1.0000
     1.0000   1.0000   1.0000   1.0000   1.0000   1.0000   1.0000   1.0000
     1.0000   1.0000   1.0000   1.0000   1.0000   1.0000   1.0000   0.0000
     0.0000   0.0000   0.0000   0.0000   0.0000   0.0000   0.0000   0.0000
     0.0000   0.0000   0.0000   0.0000   0.0000   0.0000   0.0000   0.0000
     0.0000   0.0000   0.0000   0.0000

          k = 0.4615 0.8047 0.0000 ( 24077 PWs)   bands (ev):

   -35.5208 -35.5205 -35.5098 -35.5091 -35.4896 -35.4888 -35.4841 -35.4829
   -35.4660 -35.4652 -35.0834 -35.0753 -35.0608 -35.0195 -35.0128 -28.4635
   -28.4622 -28.4515 -28.4507 -28.4430 -28.4424 -28.4344 -28.4338 -28.4163
   -28.4158 -10.2938 -10.2558 -10.0936  -8.6569  -8.1220  -3.9701  -2.6364
    -2.4853  -2.2982  -1.6473  -1.1167   0.2946   0.4020   0.9500   3.3647
     3.5257   3.8117   5.6119   5.7132   6.4837   6.4960   8.0835   9.0920
     9.3104   9.3912   9.5923  10.1801  10.3312  10.5070  11.1160  11.6642
    11.7220  12.0264  12.3552  12.5242

     occupation numbers 
     1.0000   1.0000   1.0000   1.0000   1.0000   1.0000   1.0000   1.0000
     1.0000   1.0000   1.0000   1.0000   1.0000   1.0000   1.0000   1.0000
     1.0000   1.0000   1.0000   1.0000   1.0000   1.0000   1.0000   1.0000
     1.0000   1.0000   1.0000   1.0000   1.0000   1.0000   1.0000   1.0000
     1.0000   1.0000   1.0000   1.0000   1.0000   1.0000   1.0000   0.0000
     0.0000   0.0000   0.0000   0.0000   0.0000   0.0000   0.0000   0.0000
     0.0000   0.0000   0.0000   0.0000   0.0000   0.0000   0.0000   0.0000
     0.0000   0.0000   0.0000   0.0000

          k = 0.4615-0.2718 0.0000 ( 24071 PWs)   bands (ev):

   -35.5229 -35.5227 -35.5113 -35.5107 -35.4917 -35.4910 -35.4833 -35.4821
   -35.4655 -35.4647 -35.0865 -35.0751 -35.0573 -35.0240 -35.0147 -28.4639
   -28.4624 -28.4531 -28.4524 -28.4450 -28.4444 -28.4329 -28.4323 -28.4137
   -28.4131 -10.4344 -10.3185 -10.0519  -8.6068  -8.0263  -3.9806  -2.5793
    -2.3140  -2.2424  -1.5987  -1.0502   0.2970   0.4636   0.7812   3.0639
     3.7464   3.8058   5.4609   5.7009   6.3186   6.5145   8.0009   8.8743
     9.1791   9.4967   9.7691   9.9405  10.4990  10.5811  11.1254  11.7579
    11.8567  12.2918  12.3243  12.6409

     occupation numbers 
     1.0000   1.0000   1.0000   1.0000   1.0000   1.0000   1.0000   1.0000
     1.0000   1.0000   1.0000   1.0000   1.0000   1.0000   1.0000   1.0000
     1.0000   1.0000   1.0000   1.0000   1.0000   1.0000   1.0000   1.0000
     1.0000   1.0000   1.0000   1.0000   1.0000   1.0000   1.0000   1.0000
     1.0000   1.0000   1.0000   1.0000   1.0000   1.0000   1.0000   0.0000
     0.0000   0.0000   0.0000   0.0000   0.0000   0.0000   0.0000   0.0000
     0.0000   0.0000   0.0000   0.0000   0.0000   0.0000   0.0000   0.0000
     0.0000   0.0000   0.0000   0.0000

          k = 0.4615-0.1821 0.0000 ( 24035 PWs)   bands (ev):

   -35.5223 -35.5220 -35.5118 -35.5111 -35.4895 -35.4889 -35.4858 -35.4844
   -35.4658 -35.4649 -35.0833 -35.0746 -35.0617 -35.0215 -35.0153 -28.4642
   -28.4629 -28.4523 -28.4515 -28.4433 -28.4427 -28.4353 -28.4347 -28.4172
   -28.4166 -10.5934 -10.3840  -9.9468  -8.5035  -7.9978  -3.8718  -2.6084
    -2.4787  -2.1908  -1.5643  -1.0741   0.2320   0.4805   1.0178   3.4202
     3.4564   3.8851   5.5307   5.7191   6.3985   6.6467   7.9970   8.6125
     9.0019   9.5679   9.8625   9.9429  10.4807  10.7441  11.0711  11.1566
    11.6580  11.8275  12.2266  12.5220

     occupation numbers 
     1.0000   1.0000   1.0000   1.0000   1.0000   1.0000   1.0000   1.0000
     1.0000   1.0000   1.0000   1.0000   1.0000   1.0000   1.0000   1.0000
     1.0000   1.0000   1.0000   1.0000   1.0000   1.0000   1.0000   1.0000
     1.0000   1.0000   1.0000   1.0000   1.0000   1.0000   1.0000   1.0000
     1.0000   1.0000   1.0000   1.0000   1.0000   1.0000   1.0000   0.0000
     0.0000   0.0000   0.0000   0.0000   0.0000   0.0000   0.0000   0.0000
     0.0000   0.0000   0.0000   0.0000   0.0000   0.0000   0.0000   0.0000
     0.0000   0.0000   0.0000   0.0000

          k = 0.4615-0.0924 0.0000 ( 24040 PWs)   bands (ev):

   -35.5219 -35.5215 -35.5150 -35.5142 -35.4931 -35.4926 -35.4832 -35.4818
   -35.4649 -35.4639 -35.0848 -35.0794 -35.0705 -35.0219 -35.0196 -28.4593
   -28.4581 -28.4497 -28.4488 -28.4360 -28.4354 -28.4330 -28.4324 -28.4190
   -28.4184 -10.7011 -10.4299  -9.8769  -8.3723  -8.0243  -3.6565  -2.9264
    -2.4133  -2.3126  -1.6256  -1.2026   0.2999   0.6254   1.2091   3.2864
     3.8945   3.9964   5.3500   5.9993   6.3938   7.1151   8.1485   8.4195
     8.9101   9.1286   9.5259   9.8258  10.3559  10.5599  10.9405  11.2023
    11.5793  11.6590  12.1420  12.1621

     occupation numbers 
     1.0000   1.0000   1.0000   1.0000   1.0000   1.0000   1.0000   1.0000
     1.0000   1.0000   1.0000   1.0000   1.0000   1.0000   1.0000   1.0000
     1.0000   1.0000   1.0000   1.0000   1.0000   1.0000   1.0000   1.0000
     1.0000   1.0000   1.0000   1.0000   1.0000   1.0000   1.0000   1.0000
     1.0000   1.0000   1.0000   1.0000   1.0000   1.0000   1.0000   0.0000
     0.0000   0.0000   0.0000   0.0000   0.0000   0.0000   0.0000   0.0000
     0.0000   0.0000   0.0000   0.0000   0.0000   0.0000   0.0000   0.0000
     0.0000   0.0000   0.0000   0.0000

          k = 0.4615-0.0027 0.0000 ( 24052 PWs)   bands (ev):

   -35.5221 -35.5215 -35.5089 -35.5079 -35.4907 -35.4901 -35.4839 -35.4826
   -35.4637 -35.4626 -35.0834 -35.0776 -35.0701 -35.0189 -35.0172 -28.4589
   -28.4582 -28.4512 -28.4506 -28.4343 -28.4337 -28.4325 -28.4320 -28.4239
   -28.4233 -10.7368 -10.4447  -9.8461  -8.3030  -8.0605  -3.3907  -3.2879
    -2.3811  -2.0862  -1.9881  -1.2096   0.4384   0.8489   1.0317   3.6102
     3.7133   4.0349   5.5344   6.0431   6.2990   7.8343   7.9899   8.3731
     8.4472   9.0134   9.4231   9.4925  10.3370  10.4406  11.1353  11.2305
    11.4684  11.7648  12.0627  12.2076

     occupation numbers 
     1.0000   1.0000   1.0000   1.0000   1.0000   1.0000   1.0000   1.0000
     1.0000   1.0000   1.0000   1.0000   1.0000   1.0000   1.0000   1.0000
     1.0000   1.0000   1.0000   1.0000   1.0000   1.0000   1.0000   1.0000
     1.0000   1.0000   1.0000   1.0000   1.0000   1.0000   1.0000   1.0000
     1.0000   1.0000   1.0000   1.0000   1.0000   1.0000   1.0000   0.0000
     0.0000   0.0000   0.0000   0.0000   0.0000   0.0000   0.0000   0.0000
     0.0000   0.0000   0.0000   0.0000   0.0000   0.0000   0.0000   0.0000
     0.0000   0.0000   0.0000   0.0000

          k = 0.4615 0.0870 0.0000 ( 24029 PWs)   bands (ev):

   -35.5229 -35.5222 -35.5149 -35.5140 -35.4925 -35.4917 -35.4840 -35.4830
   -35.4652 -35.4642 -35.0847 -35.0798 -35.0713 -35.0221 -35.0198 -28.4587
   -28.4576 -28.4500 -28.4491 -28.4363 -28.4357 -28.4323 -28.4317 -28.4188
   -28.4182 -10.7071 -10.4374  -9.8849  -8.3804  -8.0225  -3.6573  -2.9206
    -2.4090  -2.2971  -1.6300  -1.1878   0.3112   0.6339   1.2355   3.3204
     3.9205   3.9885   5.3619   6.0263   6.3849   7.1336   8.1424   8.4111
     8.9075   9.0855   9.5135   9.7916  10.3362  10.5547  10.9218  11.1856
    11.5546  11.6528  12.1296  12.1524

     occupation numbers 
     1.0000   1.0000   1.0000   1.0000   1.0000   1.0000   1.0000   1.0000
     1.0000   1.0000   1.0000   1.0000   1.0000   1.0000   1.0000   1.0000
     1.0000   1.0000   1.0000   1.0000   1.0000   1.0000   1.0000   1.0000
     1.0000   1.0000   1.0000   1.0000   1.0000   1.0000   1.0000   1.0000
     1.0000   1.0000   1.0000   1.0000   1.0000   1.0000   1.0000   0.0000
     0.0000   0.0000   0.0000   0.0000   0.0000   0.0000   0.0000   0.0000
     0.0000   0.0000   0.0000   0.0000   0.0000   0.0000   0.0000   0.0000
     0.0000   0.0000   0.0000   0.0000

          k = 0.4615 0.1768 0.0000 ( 24075 PWs)   bands (ev):

   -35.5240 -35.5232 -35.5124 -35.5115 -35.4889 -35.4885 -35.4863 -35.4851
   -35.4660 -35.4651 -35.0827 -35.0747 -35.0636 -35.0221 -35.0161 -28.4636
   -28.4622 -28.4525 -28.4516 -28.4439 -28.4432 -28.4343 -28.4337 -28.4169
   -28.4164 -10.6054 -10.3982  -9.9602  -8.5128  -7.9982  -3.8709  -2.6154
    -2.4573  -2.1684  -1.5507  -1.0591   0.2505   0.4994   1.0591   3.4580
     3.4978   3.8899   5.5414   5.7583   6.4030   6.6522   7.9831   8.5993
     8.9932   9.5493   9.8362   9.9090  10.4700  10.7035  11.0505  11.1239
    11.6190  11.8234  12.2118  12.5707

     occupation numbers 
     1.0000   1.0000   1.0000   1.0000   1.0000   1.0000   1.0000   1.0000
     1.0000   1.0000   1.0000   1.0000   1.0000   1.0000   1.0000   1.0000
     1.0000   1.0000   1.0000   1.0000   1.0000   1.0000   1.0000   1.0000
     1.0000   1.0000   1.0000   1.0000   1.0000   1.0000   1.0000   1.0000
     1.0000   1.0000   1.0000   1.0000   1.0000   1.0000   1.0000   0.0000
     0.0000   0.0000   0.0000   0.0000   0.0000   0.0000   0.0000   0.0000
     0.0000   0.0000   0.0000   0.0000   0.0000   0.0000   0.0000   0.0000
     0.0000   0.0000   0.0000   0.0000

     highest occupied, lowest unoccupied level (ev):     1.4539    2.6995

!    total energy              =    -804.24490579 Ry
     estimated scf accuracy    <       0.00000019 Ry

     convergence has been achieved in   1 iterations

     Using ACE for calculation of exact exchange
     ACE projected onto    60 (nbndproj) and applied to    60 (nbnd) bands
     BEWARE: negative dexx:  -0.237E-06

!!   total energy              =    -804.24490555 Ry
     Harris-Foulkes estimate   =    -804.24490576 Ry
     est. exchange err (dexx)  =       0.00000024 Ry
     - averaged Fock potential =      27.30936386 Ry
     + Fock energy (ACE)       =     -13.65471717 Ry

     EXX self-consistency reached

     Writing all to output data dir tmp/Sb2Te3-uatsx-c1-1.0.save/ :
     XML data file, charge density, pseudopotentials, collected wavefunctions

     init_run     :      3.74s CPU      3.92s WALL (       1 calls)
     electrons    :    596.28s CPU    605.31s WALL (       6 calls)

     Called by init_run:
     aceinit0     :      0.00s CPU      0.00s WALL (       1 calls)
     wfcinit      :      3.29s CPU      3.35s WALL (       1 calls)
     wfcinit:wfcr :      3.17s CPU      3.23s WALL (      85 calls)
     potinit      :      0.04s CPU      0.04s WALL (       1 calls)
     hinit0       :      0.38s CPU      0.48s WALL (       1 calls)

     Called by electrons:
     c_bands      :    550.76s CPU    558.59s WALL (      33 calls)
     sum_band     :     44.68s CPU     45.54s WALL (      33 calls)
     v_of_rho     :      0.56s CPU      0.58s WALL (      34 calls)
     v_h          :      0.05s CPU      0.05s WALL (      34 calls)
     v_xc         :      0.51s CPU      0.52s WALL (      34 calls)
     mix_rho      :      0.07s CPU      0.07s WALL (      33 calls)
     energy_londo :      0.06s CPU      0.06s WALL (       6 calls)

     Called by c_bands:
     init_us_2    :      1.81s CPU      1.88s WALL (    5695 calls)
     cegterg      :    544.93s CPU    552.57s WALL (    2805 calls)

     Called by sum_band:
     sum_band:wei :      0.00s CPU      0.00s WALL (      33 calls)
     sum_band:loo :     44.58s CPU     45.43s WALL (      33 calls)
     sum_band:buf :      0.58s CPU      0.60s WALL (    2805 calls)
     sum_band:ini :      0.94s CPU      0.97s WALL (    2805 calls)

     Called by *egterg:
     cdiaghg      :    144.55s CPU    145.47s WALL (   28728 calls)
     cegterg:over :     32.16s CPU     32.49s WALL (   26433 calls)
     cegterg:upda :      9.33s CPU      9.45s WALL (   26433 calls)
     cegterg:last :      9.88s CPU      9.97s WALL (    7832 calls)
     h_psi        :    334.25s CPU    340.40s WALL (   29323 calls)
     g_psi        :      1.60s CPU      1.62s WALL (   26433 calls)

     Called by h_psi:
     h_psi:calbec :     22.43s CPU     22.72s WALL (   29323 calls)
     vloc_psi     :    291.45s CPU    297.07s WALL (   29323 calls)
     add_vuspsi   :      6.37s CPU      6.47s WALL (   29323 calls)

     General routines
     calbec       :     34.54s CPU     35.02s WALL (   52462 calls)
     fft          :      0.92s CPU      1.04s WALL (     333 calls)
     ffts         :      0.05s CPU      0.05s WALL (      33 calls)
     fftw         :    317.80s CPU    323.87s WALL ( 1304996 calls)
     fftc         :   5882.51s CPU   5925.06s WALL ( 3672000 calls)
     fftcw        :     23.92s CPU     24.32s WALL (   91800 calls)

     Parallel routines

     EXX routines
     exx_grid     :      0.00s CPU      0.00s WALL (       1 calls)
     exxinit      :    131.83s CPU    133.14s WALL (       6 calls)
     vexx         :   6194.91s CPU   6240.42s WALL (     510 calls)
     matcalc      :     12.30s CPU     12.46s WALL (   23139 calls)
     aceupdate    :      0.18s CPU      0.18s WALL (     510 calls)
     vexxace      :     15.34s CPU     15.54s WALL (   21694 calls)
     aceinit      :   6195.78s CPU   6241.31s WALL (     510 calls)

     PWSCF        :      1h55m CPU      1h57m WALL


   This run was terminated on:  19:37:52  14May2025            

=------------------------------------------------------------------------------=
   JOB DONE.
=------------------------------------------------------------------------------=
