
     Program PWSCF v.7.3.1 starts on 15May2025 at  2:11:23 

     This program is part of the open-source Quantum ESPRESSO suite
     for quantum simulation of materials; please cite
         "P. Giannozzi et al., J. Phys.:Condens. Matter 21 395502 (2009);
         "P. Giannozzi et al., J. Phys.:Condens. Matter 29 465901 (2017);
         "P. Giannozzi et al., J. Chem. Phys. 152 154105 (2020);
          URL http://www.quantum-espresso.org", 
     in publications or presentations arising from this work. More details at
     http://www.quantum-espresso.org/quote

     Parallel version (MPI & OpenMP), running on      72 processor cores
     Number of MPI processes:                72
     Threads/MPI process:                     1

     MPI processes distributed on     3 nodes
     88010 MiB available memory on the printing compute node when the environment starts

     Waiting for input...
     Reading input from standard input

     Current dimensions of program PWSCF are:
     Max number of different atomic species (ntypx) = 10
     Max number of k-points (npk) =  40000
     Max angular momentum in pseudopotentials (lmaxx) =  4

     IMPORTANT: XC functional enforced from input :
     Exchange-correlation= B3LYP-V1R
                           (   7  13   9   7   0   0   0)
     EXX-fraction              =        0.20
     Any further DFT definition will be discarded
     Please, verify this is what you really want

     EXX fraction changed:   0.20

     R & G space division:  proc/nbgrp/npool/nimage =      72
     Subspace diagonalization in iterative solution of the eigenvalue problem:
     a serial algorithm will be used

     EXX: q-point mesh:     1    1    1
     EXX: setup a grid of 85 q-points centered on each k-point
     (k+q)-points:
   0.0000000   0.0000000   0.0000000         1    1
   0.0000000   0.0932652   0.0000000         2    1
   0.0000000   0.1865304   0.0000000         3    1
   0.0000000   0.2797955   0.0000000         4    1
   0.0000000   0.3730607   0.0000000         5    1
   0.0000000   0.4663259   0.0000000         6    1
   0.0000000   0.5595911   0.0000000         7    1
   0.0769231   0.0444120   0.0000000         8    1
   0.0769231   0.1376772   0.0000000         9    1
   0.0769231   0.2309423   0.0000000        10    1
   0.0769231   0.3242075   0.0000000        11    1
   0.0769231   0.4174727   0.0000000        12    1
   0.0769231   0.5107379   0.0000000        13    1
   0.0769231   0.6040030   0.0000000        14    1
   0.0769231  -0.5151791   0.0000000        15    1
   0.0769231  -0.4219139   0.0000000        16    1
   0.0769231  -0.3286487   0.0000000        17    1
   0.0769231  -0.2353835   0.0000000        18    1
   0.0769231  -0.1421184   0.0000000        19    1
   0.0769231  -0.0488532   0.0000000        20    1
   0.1538462   0.0888240   0.0000000        21    1
   0.1538462   0.1820892   0.0000000        22    1
   0.1538462   0.2753543   0.0000000        23    1
   0.1538462   0.3686195   0.0000000        24    1
   0.1538462   0.4618847   0.0000000        25    1
   0.1538462   0.5551499   0.0000000        26    1
   0.1538462   0.6484150   0.0000000        27    1
   0.1538462  -0.4707671   0.0000000        28    1
   0.1538462  -0.3775019   0.0000000        29    1
   0.1538462  -0.2842367   0.0000000        30    1
   0.1538462  -0.1909716   0.0000000        31    1
   0.1538462  -0.0977064   0.0000000        32    1
   0.1538462  -0.0044412   0.0000000        33    1
   0.2307692   0.1332360   0.0000000        34    1
   0.2307692   0.2265011   0.0000000        35    1
   0.2307692   0.3197663   0.0000000        36    1
   0.2307692   0.4130315   0.0000000        37    1
   0.2307692   0.5062967   0.0000000        38    1
   0.2307692   0.5995618   0.0000000        39    1
   0.2307692   0.6928270   0.0000000        40    1
   0.2307692  -0.4263551   0.0000000        41    1
   0.2307692  -0.3330899   0.0000000        42    1
   0.2307692  -0.2398247   0.0000000        43    1
   0.2307692  -0.1465596   0.0000000        44    1
   0.2307692  -0.0532944   0.0000000        45    1
   0.2307692   0.0399708   0.0000000        46    1
   0.3076923   0.1776480   0.0000000        47    1
   0.3076923   0.2709131   0.0000000        48    1
   0.3076923   0.3641783   0.0000000        49    1
   0.3076923   0.4574435   0.0000000        50    1
   0.3076923   0.5507087   0.0000000        51    1
   0.3076923   0.6439738   0.0000000        52    1
   0.3076923   0.7372390   0.0000000        53    1
   0.3076923  -0.3819431   0.0000000        54    1
   0.3076923  -0.2886779   0.0000000        55    1
   0.3076923  -0.1954128   0.0000000        56    1
   0.3076923  -0.1021476   0.0000000        57    1
   0.3076923  -0.0088824   0.0000000        58    1
   0.3076923   0.0843828   0.0000000        59    1
   0.3846154   0.2220599   0.0000000        60    1
   0.3846154   0.3153251   0.0000000        61    1
   0.3846154   0.4085903   0.0000000        62    1
   0.3846154   0.5018555   0.0000000        63    1
   0.3846154   0.5951206   0.0000000        64    1
   0.3846154   0.6883858   0.0000000        65    1
   0.3846154   0.7816510   0.0000000        66    1
   0.3846154  -0.3375311   0.0000000        67    1
   0.3846154  -0.2442659   0.0000000        68    1
   0.3846154  -0.1510008   0.0000000        69    1
   0.3846154  -0.0577356   0.0000000        70    1
   0.3846154   0.0355296   0.0000000        71    1
   0.3846154   0.1287948   0.0000000        72    1
   0.4615385   0.2664719   0.0000000        73    1
   0.4615385   0.3597371   0.0000000        74    1
   0.4615385   0.4530023   0.0000000        75    1
   0.4615385   0.5462675   0.0000000        76    1
   0.4615385   0.6395326   0.0000000        77    1
   0.4615385   0.7327978   0.0000000        78    1
   0.4615385   0.8260630   0.0000000        79    1
   0.4615385  -0.2931191   0.0000000        80    1
   0.4615385  -0.1998539   0.0000000        81    1
   0.4615385  -0.1065888   0.0000000        82    1
   0.4615385  -0.0133236   0.0000000        83    1
   0.4615385   0.0799416   0.0000000        84    1
   0.4615385   0.1732068   0.0000000        85    1

     Parallelization info
     --------------------
     sticks:   dense  smooth     PW     G-vecs:    dense   smooth      PW
     Min          18      18      5                 2760     2760     431
     Max          19      19      6                 2791     2791     456
     Sum        1343    1343    395               200001   200001   31739

     Using Slab Decomposition



     bravais-lattice index     =            0
     lattice parameter (alat)  =       8.5529  a.u.
     unit-cell volume          =    2526.9262 (a.u.)^3
     number of atoms/cell      =            5
     number of atomic types    =            2
     number of electrons       =        78.00
     number of Kohn-Sham states=           60
     kinetic-energy cutoff     =      70.0000  Ry
     charge density cutoff     =     280.0000  Ry
     cutoff for Fock operator  =     280.0000  Ry
     scf convergence threshold =      1.0E-06
     mixing beta               =       0.7000
     number of iterations used =            8  plain     mixing
     Exchange-correlation= B3LYP-V1R
                           (   7  13   9   7   0   0   0)
     EXX-fraction              =        0.20

     celldm(1)=   8.552915  celldm(2)=   0.000000  celldm(3)=   0.000000
     celldm(4)=   0.000000  celldm(5)=   0.000000  celldm(6)=   0.000000

     crystal axes: (cart. coord. in units of alat)
               a(1) = (   1.000000   0.000000   0.000000 )  
               a(2) = (  -0.476190   0.824778   0.000000 )  
               a(3) = (   0.000000   0.000000   4.896807 )  

     reciprocal axes: (cart. coord. in units 2 pi/alat)
               b(1) = (  1.000000  0.577356 -0.000000 )  
               b(2) = (  0.000000  1.212447  0.000000 )  
               b(3) = (  0.000000 -0.000000  0.204215 )  


     PseudoPot. # 1 for Sb read from file:
     /zfs-home/202401017n/pseudos/Sb_ONCV_PBE-1.2.upf
     MD5 check sum: 0417cd6c0fe8ce4611e2b23135f1abd9
     Pseudo is Norm-conserving, Zval = 15.0
     Generated using ONCVPSP code by D. R. Hamann
     Using radial grid of  602 points,  6 beta functions with: 
                l(1) =   0
                l(2) =   0
                l(3) =   1
                l(4) =   1
                l(5) =   2
                l(6) =   2

     PseudoPot. # 2 for Te read from file:
     /zfs-home/202401017n/pseudos/Te_ONCV_PBE-1.2.upf
     MD5 check sum: dd4de4dac1e38587f63aaf3700bb29d3
     Pseudo is Norm-conserving, Zval = 16.0
     Generated using ONCVPSP code by D. R. Hamann
     Using radial grid of  602 points,  6 beta functions with: 
                l(1) =   0
                l(2) =   0
                l(3) =   1
                l(4) =   1
                l(5) =   2
                l(6) =   2

     atomic species   valence    mass     pseudopotential
     Sb               15.00   121.76000     Sb( 1.00)
     Te               16.00   127.60000     Te( 1.00)

     No symmetry found


                                    s                        frac. trans.

      isym =  1     identity                                     

 cryst.   s( 1) = (     1          0          0      )
                  (     0          1          0      )
                  (     0          0          1      )

 cart.    s( 1) = (  1.0000000  0.0000000  0.0000000 )
                  (  0.0000000  1.0000000  0.0000000 )
                  (  0.0000000  0.0000000  1.0000000 )


   Cartesian axes

     site n.     atom                  positions (alat units)
         1        Sb     tau(   1) = (   0.5941563   0.4140600   2.8819763  )
         2        Te     tau(   2) = (   0.5757813   0.3831770   1.6487259  )
         3        Sb     tau(   3) = (   0.0713597   0.1150985   2.0147862  )
         4        Te     tau(   4) = (   0.0896521   0.1461334   3.2480478  )
         5        Te     tau(   5) = (   0.0946223   0.6770376   2.4483865  )

     -------------------------------------------------
     Parameters for Dispersion (Grimme-D2) Correction:
     -------------------------------------------------
       atom      VdW radius       C_6     

        Sb         3.555       1333.532
        Te         3.575       1101.101

   Crystallographic axes

     site n.     atom                  positions (cryst. coord.)
         1        Sb     tau(   1) = (  0.8332162  0.5020259  0.5885420  )
         2        Te     tau(   2) = (  0.7970108  0.4645820  0.3366941  )
         3        Sb     tau(   3) = (  0.1378125  0.1395508  0.4114490  )
         4        Te     tau(   4) = (  0.1740231  0.1771791  0.6632992  )
         5        Te     tau(   5) = (  0.4855140  0.8208724  0.4999966  )

     number of k points=    85
                       cart. coord. in units 2pi/alat
        k(    1) = (   0.0000000   0.0000000   0.0000000), wk =   0.0118343
        k(    2) = (   0.0000000   0.0932652   0.0000000), wk =   0.0236686
        k(    3) = (   0.0000000   0.1865304   0.0000000), wk =   0.0236686
        k(    4) = (   0.0000000   0.2797955   0.0000000), wk =   0.0236686
        k(    5) = (   0.0000000   0.3730607   0.0000000), wk =   0.0236686
        k(    6) = (   0.0000000   0.4663259   0.0000000), wk =   0.0236686
        k(    7) = (   0.0000000   0.5595911   0.0000000), wk =   0.0236686
        k(    8) = (   0.0769231   0.0444120   0.0000000), wk =   0.0236686
        k(    9) = (   0.0769231   0.1376772   0.0000000), wk =   0.0236686
        k(   10) = (   0.0769231   0.2309423   0.0000000), wk =   0.0236686
        k(   11) = (   0.0769231   0.3242075   0.0000000), wk =   0.0236686
        k(   12) = (   0.0769231   0.4174727   0.0000000), wk =   0.0236686
        k(   13) = (   0.0769231   0.5107379   0.0000000), wk =   0.0236686
        k(   14) = (   0.0769231   0.6040030   0.0000000), wk =   0.0236686
        k(   15) = (   0.0769231  -0.5151791   0.0000000), wk =   0.0236686
        k(   16) = (   0.0769231  -0.4219139   0.0000000), wk =   0.0236686
        k(   17) = (   0.0769231  -0.3286487   0.0000000), wk =   0.0236686
        k(   18) = (   0.0769231  -0.2353835   0.0000000), wk =   0.0236686
        k(   19) = (   0.0769231  -0.1421184   0.0000000), wk =   0.0236686
        k(   20) = (   0.0769231  -0.0488532   0.0000000), wk =   0.0236686
        k(   21) = (   0.1538462   0.0888240   0.0000000), wk =   0.0236686
        k(   22) = (   0.1538462   0.1820892   0.0000000), wk =   0.0236686
        k(   23) = (   0.1538462   0.2753543   0.0000000), wk =   0.0236686
        k(   24) = (   0.1538462   0.3686195   0.0000000), wk =   0.0236686
        k(   25) = (   0.1538462   0.4618847   0.0000000), wk =   0.0236686
        k(   26) = (   0.1538462   0.5551499   0.0000000), wk =   0.0236686
        k(   27) = (   0.1538462   0.6484150   0.0000000), wk =   0.0236686
        k(   28) = (   0.1538462  -0.4707671   0.0000000), wk =   0.0236686
        k(   29) = (   0.1538462  -0.3775019   0.0000000), wk =   0.0236686
        k(   30) = (   0.1538462  -0.2842367   0.0000000), wk =   0.0236686
        k(   31) = (   0.1538462  -0.1909716   0.0000000), wk =   0.0236686
        k(   32) = (   0.1538462  -0.0977064   0.0000000), wk =   0.0236686
        k(   33) = (   0.1538462  -0.0044412   0.0000000), wk =   0.0236686
        k(   34) = (   0.2307692   0.1332360   0.0000000), wk =   0.0236686
        k(   35) = (   0.2307692   0.2265011   0.0000000), wk =   0.0236686
        k(   36) = (   0.2307692   0.3197663   0.0000000), wk =   0.0236686
        k(   37) = (   0.2307692   0.4130315   0.0000000), wk =   0.0236686
        k(   38) = (   0.2307692   0.5062967   0.0000000), wk =   0.0236686
        k(   39) = (   0.2307692   0.5995618   0.0000000), wk =   0.0236686
        k(   40) = (   0.2307692   0.6928270   0.0000000), wk =   0.0236686
        k(   41) = (   0.2307692  -0.4263551   0.0000000), wk =   0.0236686
        k(   42) = (   0.2307692  -0.3330899   0.0000000), wk =   0.0236686
        k(   43) = (   0.2307692  -0.2398247   0.0000000), wk =   0.0236686
        k(   44) = (   0.2307692  -0.1465596   0.0000000), wk =   0.0236686
        k(   45) = (   0.2307692  -0.0532944   0.0000000), wk =   0.0236686
        k(   46) = (   0.2307692   0.0399708   0.0000000), wk =   0.0236686
        k(   47) = (   0.3076923   0.1776480   0.0000000), wk =   0.0236686
        k(   48) = (   0.3076923   0.2709131   0.0000000), wk =   0.0236686
        k(   49) = (   0.3076923   0.3641783   0.0000000), wk =   0.0236686
        k(   50) = (   0.3076923   0.4574435   0.0000000), wk =   0.0236686
        k(   51) = (   0.3076923   0.5507087   0.0000000), wk =   0.0236686
        k(   52) = (   0.3076923   0.6439738   0.0000000), wk =   0.0236686
        k(   53) = (   0.3076923   0.7372390   0.0000000), wk =   0.0236686
        k(   54) = (   0.3076923  -0.3819431   0.0000000), wk =   0.0236686
        k(   55) = (   0.3076923  -0.2886779   0.0000000), wk =   0.0236686
        k(   56) = (   0.3076923  -0.1954128   0.0000000), wk =   0.0236686
        k(   57) = (   0.3076923  -0.1021476   0.0000000), wk =   0.0236686
        k(   58) = (   0.3076923  -0.0088824   0.0000000), wk =   0.0236686
        k(   59) = (   0.3076923   0.0843828   0.0000000), wk =   0.0236686
        k(   60) = (   0.3846154   0.2220599   0.0000000), wk =   0.0236686
        k(   61) = (   0.3846154   0.3153251   0.0000000), wk =   0.0236686
        k(   62) = (   0.3846154   0.4085903   0.0000000), wk =   0.0236686
        k(   63) = (   0.3846154   0.5018555   0.0000000), wk =   0.0236686
        k(   64) = (   0.3846154   0.5951206   0.0000000), wk =   0.0236686
        k(   65) = (   0.3846154   0.6883858   0.0000000), wk =   0.0236686
        k(   66) = (   0.3846154   0.7816510   0.0000000), wk =   0.0236686
        k(   67) = (   0.3846154  -0.3375311   0.0000000), wk =   0.0236686
        k(   68) = (   0.3846154  -0.2442659   0.0000000), wk =   0.0236686
        k(   69) = (   0.3846154  -0.1510008   0.0000000), wk =   0.0236686
        k(   70) = (   0.3846154  -0.0577356   0.0000000), wk =   0.0236686
        k(   71) = (   0.3846154   0.0355296   0.0000000), wk =   0.0236686
        k(   72) = (   0.3846154   0.1287948   0.0000000), wk =   0.0236686
        k(   73) = (   0.4615385   0.2664719   0.0000000), wk =   0.0236686
        k(   74) = (   0.4615385   0.3597371   0.0000000), wk =   0.0236686
        k(   75) = (   0.4615385   0.4530023   0.0000000), wk =   0.0236686
        k(   76) = (   0.4615385   0.5462675   0.0000000), wk =   0.0236686
        k(   77) = (   0.4615385   0.6395326   0.0000000), wk =   0.0236686
        k(   78) = (   0.4615385   0.7327978   0.0000000), wk =   0.0236686
        k(   79) = (   0.4615385   0.8260630   0.0000000), wk =   0.0236686
        k(   80) = (   0.4615385  -0.2931191   0.0000000), wk =   0.0236686
        k(   81) = (   0.4615385  -0.1998539   0.0000000), wk =   0.0236686
        k(   82) = (   0.4615385  -0.1065888   0.0000000), wk =   0.0236686
        k(   83) = (   0.4615385  -0.0133236   0.0000000), wk =   0.0236686
        k(   84) = (   0.4615385   0.0799416   0.0000000), wk =   0.0236686
        k(   85) = (   0.4615385   0.1732068   0.0000000), wk =   0.0236686

                       cryst. coord.
        k(    1) = (   0.0000000   0.0000000   0.0000000), wk =   0.0118343
        k(    2) = (   0.0000000   0.0769231   0.0000000), wk =   0.0236686
        k(    3) = (   0.0000000   0.1538462   0.0000000), wk =   0.0236686
        k(    4) = (   0.0000000   0.2307692   0.0000000), wk =   0.0236686
        k(    5) = (   0.0000000   0.3076923   0.0000000), wk =   0.0236686
        k(    6) = (   0.0000000   0.3846154   0.0000000), wk =   0.0236686
        k(    7) = (   0.0000000   0.4615385   0.0000000), wk =   0.0236686
        k(    8) = (   0.0769231   0.0000000   0.0000000), wk =   0.0236686
        k(    9) = (   0.0769231   0.0769231   0.0000000), wk =   0.0236686
        k(   10) = (   0.0769231   0.1538462   0.0000000), wk =   0.0236686
        k(   11) = (   0.0769231   0.2307692   0.0000000), wk =   0.0236686
        k(   12) = (   0.0769231   0.3076923   0.0000000), wk =   0.0236686
        k(   13) = (   0.0769231   0.3846154   0.0000000), wk =   0.0236686
        k(   14) = (   0.0769231   0.4615385   0.0000000), wk =   0.0236686
        k(   15) = (   0.0769231  -0.4615385   0.0000000), wk =   0.0236686
        k(   16) = (   0.0769231  -0.3846154   0.0000000), wk =   0.0236686
        k(   17) = (   0.0769231  -0.3076923   0.0000000), wk =   0.0236686
        k(   18) = (   0.0769231  -0.2307692   0.0000000), wk =   0.0236686
        k(   19) = (   0.0769231  -0.1538462   0.0000000), wk =   0.0236686
        k(   20) = (   0.0769231  -0.0769231   0.0000000), wk =   0.0236686
        k(   21) = (   0.1538462   0.0000000   0.0000000), wk =   0.0236686
        k(   22) = (   0.1538462   0.0769231   0.0000000), wk =   0.0236686
        k(   23) = (   0.1538462   0.1538462   0.0000000), wk =   0.0236686
        k(   24) = (   0.1538462   0.2307692   0.0000000), wk =   0.0236686
        k(   25) = (   0.1538462   0.3076923   0.0000000), wk =   0.0236686
        k(   26) = (   0.1538462   0.3846154   0.0000000), wk =   0.0236686
        k(   27) = (   0.1538462   0.4615385   0.0000000), wk =   0.0236686
        k(   28) = (   0.1538462  -0.4615385   0.0000000), wk =   0.0236686
        k(   29) = (   0.1538462  -0.3846154   0.0000000), wk =   0.0236686
        k(   30) = (   0.1538462  -0.3076923   0.0000000), wk =   0.0236686
        k(   31) = (   0.1538462  -0.2307692   0.0000000), wk =   0.0236686
        k(   32) = (   0.1538462  -0.1538462   0.0000000), wk =   0.0236686
        k(   33) = (   0.1538462  -0.0769231   0.0000000), wk =   0.0236686
        k(   34) = (   0.2307692  -0.0000000   0.0000000), wk =   0.0236686
        k(   35) = (   0.2307692   0.0769231   0.0000000), wk =   0.0236686
        k(   36) = (   0.2307692   0.1538462   0.0000000), wk =   0.0236686
        k(   37) = (   0.2307692   0.2307692   0.0000000), wk =   0.0236686
        k(   38) = (   0.2307692   0.3076923   0.0000000), wk =   0.0236686
        k(   39) = (   0.2307692   0.3846154   0.0000000), wk =   0.0236686
        k(   40) = (   0.2307692   0.4615385   0.0000000), wk =   0.0236686
        k(   41) = (   0.2307692  -0.4615385   0.0000000), wk =   0.0236686
        k(   42) = (   0.2307692  -0.3846154   0.0000000), wk =   0.0236686
        k(   43) = (   0.2307692  -0.3076923   0.0000000), wk =   0.0236686
        k(   44) = (   0.2307692  -0.2307692   0.0000000), wk =   0.0236686
        k(   45) = (   0.2307692  -0.1538462   0.0000000), wk =   0.0236686
        k(   46) = (   0.2307692  -0.0769231   0.0000000), wk =   0.0236686
        k(   47) = (   0.3076923   0.0000000   0.0000000), wk =   0.0236686
        k(   48) = (   0.3076923   0.0769231   0.0000000), wk =   0.0236686
        k(   49) = (   0.3076923   0.1538462   0.0000000), wk =   0.0236686
        k(   50) = (   0.3076923   0.2307692   0.0000000), wk =   0.0236686
        k(   51) = (   0.3076923   0.3076923   0.0000000), wk =   0.0236686
        k(   52) = (   0.3076923   0.3846154   0.0000000), wk =   0.0236686
        k(   53) = (   0.3076923   0.4615385   0.0000000), wk =   0.0236686
        k(   54) = (   0.3076923  -0.4615385   0.0000000), wk =   0.0236686
        k(   55) = (   0.3076923  -0.3846154   0.0000000), wk =   0.0236686
        k(   56) = (   0.3076923  -0.3076923   0.0000000), wk =   0.0236686
        k(   57) = (   0.3076923  -0.2307692   0.0000000), wk =   0.0236686
        k(   58) = (   0.3076923  -0.1538462   0.0000000), wk =   0.0236686
        k(   59) = (   0.3076923  -0.0769231   0.0000000), wk =   0.0236686
        k(   60) = (   0.3846154   0.0000000   0.0000000), wk =   0.0236686
        k(   61) = (   0.3846154   0.0769231   0.0000000), wk =   0.0236686
        k(   62) = (   0.3846154   0.1538462   0.0000000), wk =   0.0236686
        k(   63) = (   0.3846154   0.2307692   0.0000000), wk =   0.0236686
        k(   64) = (   0.3846154   0.3076923   0.0000000), wk =   0.0236686
        k(   65) = (   0.3846154   0.3846154   0.0000000), wk =   0.0236686
        k(   66) = (   0.3846154   0.4615385   0.0000000), wk =   0.0236686
        k(   67) = (   0.3846154  -0.4615385   0.0000000), wk =   0.0236686
        k(   68) = (   0.3846154  -0.3846154   0.0000000), wk =   0.0236686
        k(   69) = (   0.3846154  -0.3076923   0.0000000), wk =   0.0236686
        k(   70) = (   0.3846154  -0.2307692   0.0000000), wk =   0.0236686
        k(   71) = (   0.3846154  -0.1538462   0.0000000), wk =   0.0236686
        k(   72) = (   0.3846154  -0.0769231   0.0000000), wk =   0.0236686
        k(   73) = (   0.4615385  -0.0000000   0.0000000), wk =   0.0236686
        k(   74) = (   0.4615385   0.0769231   0.0000000), wk =   0.0236686
        k(   75) = (   0.4615385   0.1538462   0.0000000), wk =   0.0236686
        k(   76) = (   0.4615385   0.2307692   0.0000000), wk =   0.0236686
        k(   77) = (   0.4615385   0.3076923   0.0000000), wk =   0.0236686
        k(   78) = (   0.4615385   0.3846154   0.0000000), wk =   0.0236686
        k(   79) = (   0.4615385   0.4615385   0.0000000), wk =   0.0236686
        k(   80) = (   0.4615385  -0.4615385   0.0000000), wk =   0.0236686
        k(   81) = (   0.4615385  -0.3846154   0.0000000), wk =   0.0236686
        k(   82) = (   0.4615385  -0.3076923   0.0000000), wk =   0.0236686
        k(   83) = (   0.4615385  -0.2307692   0.0000000), wk =   0.0236686
        k(   84) = (   0.4615385  -0.1538462   0.0000000), wk =   0.0236686
        k(   85) = (   0.4615385  -0.0769231   0.0000000), wk =   0.0236686

     Dense  grid:   200001 G-vectors     FFT dimensions: (  45,  45, 225)

     Dynamical RAM for                 wfc:       0.32 MB

     Dynamical RAM for     wfc (w. buffer):      27.32 MB

     Dynamical RAM for                 EXX:     471.51 MB

     Dynamical RAM for           str. fact:       0.09 MB

     Dynamical RAM for           local pot:       0.00 MB

     Dynamical RAM for          nlocal pot:       0.48 MB

     Dynamical RAM for                qrad:       2.85 MB

     Dynamical RAM for          rho,v,vnew:       0.31 MB

     Dynamical RAM for               rhoin:       0.10 MB

     Dynamical RAM for            rho*nmix:       0.68 MB

     Dynamical RAM for           G-vectors:       0.18 MB

     Dynamical RAM for          h,s,v(r/c):       0.66 MB

     Dynamical RAM for          <psi|beta>:       0.08 MB

     Dynamical RAM for                 psi:       0.64 MB

     Dynamical RAM for                hpsi:       0.64 MB

     Dynamical RAM for      wfcinit/wfcrot:       0.72 MB

     Estimated static dynamical RAM per process >     503.28 MB

     Estimated max dynamical RAM per process >     505.97 MB

     Estimated total dynamical RAM >      35.58 GB
     EXX: ACE will be initialized later

     Initial potential from superposition of free atoms

     starting charge      77.7638, renormalised to      78.0000

     negative rho (up, down):  6.675E-04 0.000E+00
     Starting wfcs are random

     total cpu time spent up to now is        3.9 secs

     Self-consistent Calculation

     iteration #  1     ecut=    70.00 Ry     beta= 0.70
     Davidson diagonalization with overlap

---- Real-time Memory Report at c_bands before calling an iterative solver
           224 MiB given to the printing process from OS
             0 MiB allocation reported by mallinfo(arena+hblkhd)
         87105 MiB available memory on the node where the printing process lives
------------------
     ethr =  1.00E-02,  avg # of iterations = 10.2

     Threshold (ethr) on eigenvalues was too large:
     Diagonalizing with lowered threshold

     Davidson diagonalization with overlap

---- Real-time Memory Report at c_bands before calling an iterative solver
           226 MiB given to the printing process from OS
             0 MiB allocation reported by mallinfo(arena+hblkhd)
         87056 MiB available memory on the node where the printing process lives
------------------
     ethr =  1.60E-04,  avg # of iterations =  9.6

     negative rho (up, down):  4.871E-05 0.000E+00

     total cpu time spent up to now is       57.0 secs

     total energy              =    -807.01974176 Ry
     estimated scf accuracy    <       0.11174439 Ry

     iteration #  2     ecut=    70.00 Ry     beta= 0.70
     Davidson diagonalization with overlap

---- Real-time Memory Report at c_bands before calling an iterative solver
           227 MiB given to the printing process from OS
             0 MiB allocation reported by mallinfo(arena+hblkhd)
         87056 MiB available memory on the node where the printing process lives
------------------
     ethr =  1.43E-04,  avg # of iterations = 11.7

     negative rho (up, down):  4.111E-05 0.000E+00

     total cpu time spent up to now is       77.2 secs

     total energy              =    -806.90483043 Ry
     estimated scf accuracy    <       1.15987027 Ry

     iteration #  3     ecut=    70.00 Ry     beta= 0.70
     Davidson diagonalization with overlap

---- Real-time Memory Report at c_bands before calling an iterative solver
           239 MiB given to the printing process from OS
             0 MiB allocation reported by mallinfo(arena+hblkhd)
         86812 MiB available memory on the node where the printing process lives
------------------
     c_bands:  1 eigenvalues not converged
     c_bands:  1 eigenvalues not converged
     ethr =  1.43E-04,  avg # of iterations = 12.9

     negative rho (up, down):  2.620E-05 0.000E+00

     total cpu time spent up to now is       96.6 secs

     total energy              =    -807.04573939 Ry
     estimated scf accuracy    <       0.28449911 Ry

     iteration #  4     ecut=    70.00 Ry     beta= 0.70
     Davidson diagonalization with overlap

---- Real-time Memory Report at c_bands before calling an iterative solver
           240 MiB given to the printing process from OS
             0 MiB allocation reported by mallinfo(arena+hblkhd)
         86806 MiB available memory on the node where the printing process lives
------------------
     ethr =  1.43E-04,  avg # of iterations =  5.7

     negative rho (up, down):  1.630E-06 0.000E+00

     total cpu time spent up to now is      109.8 secs

     total energy              =    -807.07602401 Ry
     estimated scf accuracy    <       0.00189396 Ry

     iteration #  5     ecut=    70.00 Ry     beta= 0.70
     Davidson diagonalization with overlap

---- Real-time Memory Report at c_bands before calling an iterative solver
           240 MiB given to the printing process from OS
             0 MiB allocation reported by mallinfo(arena+hblkhd)
         86683 MiB available memory on the node where the printing process lives
------------------
     c_bands:  1 eigenvalues not converged
     ethr =  2.43E-06,  avg # of iterations = 12.2

     negative rho (up, down):  1.087E-06 0.000E+00

     total cpu time spent up to now is      129.4 secs

     total energy              =    -807.07569867 Ry
     estimated scf accuracy    <       0.00522491 Ry

     iteration #  6     ecut=    70.00 Ry     beta= 0.70
     Davidson diagonalization with overlap

---- Real-time Memory Report at c_bands before calling an iterative solver
           250 MiB given to the printing process from OS
             0 MiB allocation reported by mallinfo(arena+hblkhd)
         86554 MiB available memory on the node where the printing process lives
------------------
     ethr =  2.43E-06,  avg # of iterations =  9.4

     total cpu time spent up to now is      145.0 secs

     total energy              =    -807.07620462 Ry
     estimated scf accuracy    <       0.00255181 Ry

     iteration #  7     ecut=    70.00 Ry     beta= 0.70
     Davidson diagonalization with overlap

---- Real-time Memory Report at c_bands before calling an iterative solver
           251 MiB given to the printing process from OS
             0 MiB allocation reported by mallinfo(arena+hblkhd)
         86550 MiB available memory on the node where the printing process lives
------------------
     ethr =  2.43E-06,  avg # of iterations =  7.2

     total cpu time spent up to now is      157.6 secs

     total energy              =    -807.07634564 Ry
     estimated scf accuracy    <       0.00000579 Ry

     iteration #  8     ecut=    70.00 Ry     beta= 0.70
     Davidson diagonalization with overlap

---- Real-time Memory Report at c_bands before calling an iterative solver
           251 MiB given to the printing process from OS
             0 MiB allocation reported by mallinfo(arena+hblkhd)
         86546 MiB available memory on the node where the printing process lives
------------------
     c_bands:  1 eigenvalues not converged
     c_bands:  1 eigenvalues not converged
     ethr =  7.43E-09,  avg # of iterations = 10.7

     total cpu time spent up to now is      178.1 secs

     total energy              =    -807.07634684 Ry
     estimated scf accuracy    <       0.00000173 Ry

     iteration #  9     ecut=    70.00 Ry     beta= 0.70
     Davidson diagonalization with overlap

---- Real-time Memory Report at c_bands before calling an iterative solver
           252 MiB given to the printing process from OS
             0 MiB allocation reported by mallinfo(arena+hblkhd)
         86541 MiB available memory on the node where the printing process lives
------------------
     ethr =  2.22E-09,  avg # of iterations =  7.5

     total cpu time spent up to now is      194.0 secs

     total energy              =    -807.07634728 Ry
     estimated scf accuracy    <       0.00000158 Ry

     iteration # 10     ecut=    70.00 Ry     beta= 0.70
     Davidson diagonalization with overlap

---- Real-time Memory Report at c_bands before calling an iterative solver
           252 MiB given to the printing process from OS
             0 MiB allocation reported by mallinfo(arena+hblkhd)
         86538 MiB available memory on the node where the printing process lives
------------------
     ethr =  2.03E-09,  avg # of iterations =  4.5

     total cpu time spent up to now is      206.1 secs

     End of self-consistent calculation

          k = 0.0000 0.0000 0.0000 ( 24991 PWs)   bands (ev):

   -34.8579 -34.8577 -34.8567 -34.8565 -34.8216 -34.8215 -34.8129 -34.8127
   -34.8018 -34.8016 -34.7312 -34.7297 -34.7124 -34.6910 -34.6883 -27.6863
   -27.6857 -27.6831 -27.6829 -27.6756 -27.6752 -27.6743 -27.6741 -27.6707
   -27.6705 -10.6932 -10.1570  -9.1054  -6.4111  -5.1353  -0.3091  -0.0914
     0.0530   0.1937   0.3288   0.6576   0.6742   0.8796   1.1061   1.9626
     2.5609   2.7205   3.3735   3.6751   3.7918   6.2579   6.4400   7.1463
     7.3702   7.5713   8.0198   8.4173   8.6782   8.7118   8.7485   9.3286
     9.4971   9.7300  10.1560  10.1924

     occupation numbers 
     1.0000   1.0000   1.0000   1.0000   1.0000   1.0000   1.0000   1.0000
     1.0000   1.0000   1.0000   1.0000   1.0000   1.0000   1.0000   1.0000
     1.0000   1.0000   1.0000   1.0000   1.0000   1.0000   1.0000   1.0000
     1.0000   1.0000   1.0000   1.0000   1.0000   1.0000   1.0000   1.0000
     1.0000   1.0000   1.0000   1.0000   1.0000   1.0000   1.0000   0.0000
     0.0000   0.0000   0.0000   0.0000   0.0000   0.0000   0.0000   0.0000
     0.0000   0.0000   0.0000   0.0000   0.0000   0.0000   0.0000   0.0000
     0.0000   0.0000   0.0000   0.0000

          k = 0.0000 0.0933 0.0000 ( 24962 PWs)   bands (ev):

   -34.8579 -34.8577 -34.8566 -34.8565 -34.8216 -34.8215 -34.8129 -34.8127
   -34.8017 -34.8016 -34.7312 -34.7297 -34.7124 -34.6910 -34.6883 -27.6861
   -27.6855 -27.6831 -27.6829 -27.6757 -27.6752 -27.6744 -27.6741 -27.6706
   -27.6704 -10.6427 -10.1108  -9.0787  -6.4228  -5.2202  -0.5018  -0.3841
    -0.0689   0.0014   0.0653   0.3899   0.7668   0.9934   1.4159   2.0841
     2.6335   2.8246   3.4100   3.7501   4.0500   6.3388   6.4647   7.1557
     7.4662   7.5435   7.6869   8.4893   8.5903   8.7173   8.8827   9.3894
     9.7220   9.7453  10.3998  10.4083

     occupation numbers 
     1.0000   1.0000   1.0000   1.0000   1.0000   1.0000   1.0000   1.0000
     1.0000   1.0000   1.0000   1.0000   1.0000   1.0000   1.0000   1.0000
     1.0000   1.0000   1.0000   1.0000   1.0000   1.0000   1.0000   1.0000
     1.0000   1.0000   1.0000   1.0000   1.0000   1.0000   1.0000   1.0000
     1.0000   1.0000   1.0000   1.0000   1.0000   1.0000   1.0000   0.0000
     0.0000   0.0000   0.0000   0.0000   0.0000   0.0000   0.0000   0.0000
     0.0000   0.0000   0.0000   0.0000   0.0000   0.0000   0.0000   0.0000
     0.0000   0.0000   0.0000   0.0000

          k = 0.0000 0.1865 0.0000 ( 24964 PWs)   bands (ev):

   -34.8579 -34.8577 -34.8564 -34.8563 -34.8216 -34.8215 -34.8130 -34.8128
   -34.8016 -34.8015 -34.7311 -34.7297 -34.7124 -34.6908 -34.6882 -27.6857
   -27.6851 -27.6833 -27.6831 -27.6760 -27.6753 -27.6745 -27.6741 -27.6704
   -27.6702 -10.4928  -9.9751  -9.0040  -6.4697  -5.4688  -1.1803  -0.7190
    -0.5140  -0.3469  -0.2071   0.1542   0.8067   1.0510   1.4185   2.3359
     2.8464   3.2088   3.5839   4.0194   4.5019   6.4685   6.5603   6.9615
     7.4796   7.6253   7.8305   8.4310   8.7000   8.8258   8.9433   9.5792
     9.7549   9.9318  10.6415  10.7849

     occupation numbers 
     1.0000   1.0000   1.0000   1.0000   1.0000   1.0000   1.0000   1.0000
     1.0000   1.0000   1.0000   1.0000   1.0000   1.0000   1.0000   1.0000
     1.0000   1.0000   1.0000   1.0000   1.0000   1.0000   1.0000   1.0000
     1.0000   1.0000   1.0000   1.0000   1.0000   1.0000   1.0000   1.0000
     1.0000   1.0000   1.0000   1.0000   1.0000   1.0000   1.0000   0.0000
     0.0000   0.0000   0.0000   0.0000   0.0000   0.0000   0.0000   0.0000
     0.0000   0.0000   0.0000   0.0000   0.0000   0.0000   0.0000   0.0000
     0.0000   0.0000   0.0000   0.0000

          k = 0.0000 0.2798 0.0000 ( 25021 PWs)   bands (ev):

   -34.8579 -34.8577 -34.8561 -34.8560 -34.8216 -34.8216 -34.8130 -34.8128
   -34.8015 -34.8013 -34.7311 -34.7297 -34.7125 -34.6906 -34.6880 -27.6852
   -27.6847 -27.6834 -27.6832 -27.6764 -27.6756 -27.6745 -27.6740 -27.6701
   -27.6698 -10.2492  -9.7590  -8.8986  -6.5841  -5.8507  -1.8570  -1.0639
    -1.0439  -0.6462  -0.4807   0.1547   0.5219   0.7675   1.4845   2.4605
     3.0310   3.5467   3.9497   4.3185   4.9748   6.2070   6.8099   7.0708
     7.6409   7.9368   8.3340   8.4424   8.7267   8.8806   9.3611   9.8350
    10.0609  10.1177  10.6226  11.3077

     occupation numbers 
     1.0000   1.0000   1.0000   1.0000   1.0000   1.0000   1.0000   1.0000
     1.0000   1.0000   1.0000   1.0000   1.0000   1.0000   1.0000   1.0000
     1.0000   1.0000   1.0000   1.0000   1.0000   1.0000   1.0000   1.0000
     1.0000   1.0000   1.0000   1.0000   1.0000   1.0000   1.0000   1.0000
     1.0000   1.0000   1.0000   1.0000   1.0000   1.0000   1.0000   0.0000
     0.0000   0.0000   0.0000   0.0000   0.0000   0.0000   0.0000   0.0000
     0.0000   0.0000   0.0000   0.0000   0.0000   0.0000   0.0000   0.0000
     0.0000   0.0000   0.0000   0.0000

          k = 0.0000 0.3731 0.0000 ( 25054 PWs)   bands (ev):

   -34.8579 -34.8577 -34.8558 -34.8557 -34.8216 -34.8216 -34.8131 -34.8129
   -34.8013 -34.8012 -34.7310 -34.7297 -34.7126 -34.6905 -34.6878 -27.6848
   -27.6846 -27.6833 -27.6831 -27.6768 -27.6760 -27.6745 -27.6739 -27.6696
   -27.6693  -9.9243  -9.4827  -8.7968  -6.8036  -6.2901  -2.3973  -1.4580
    -1.3459  -0.8521  -0.7195  -0.0887   0.3811   0.6779   1.2250   2.5440
     3.1687   3.6915   4.1468   4.6048   5.4362   5.8732   7.1339   7.3689
     7.9497   8.3291   8.4495   8.9641   9.1450   9.3222   9.9143  10.0363
    10.2445  10.5676  10.7136  11.1530

     occupation numbers 
     1.0000   1.0000   1.0000   1.0000   1.0000   1.0000   1.0000   1.0000
     1.0000   1.0000   1.0000   1.0000   1.0000   1.0000   1.0000   1.0000
     1.0000   1.0000   1.0000   1.0000   1.0000   1.0000   1.0000   1.0000
     1.0000   1.0000   1.0000   1.0000   1.0000   1.0000   1.0000   1.0000
     1.0000   1.0000   1.0000   1.0000   1.0000   1.0000   1.0000   0.0000
     0.0000   0.0000   0.0000   0.0000   0.0000   0.0000   0.0000   0.0000
     0.0000   0.0000   0.0000   0.0000   0.0000   0.0000   0.0000   0.0000
     0.0000   0.0000   0.0000   0.0000

          k = 0.0000 0.4663 0.0000 ( 25034 PWs)   bands (ev):

   -34.8579 -34.8578 -34.8555 -34.8554 -34.8216 -34.8216 -34.8131 -34.8129
   -34.8012 -34.8010 -34.7310 -34.7297 -34.7127 -34.6903 -34.6877 -27.6847
   -27.6846 -27.6832 -27.6828 -27.6772 -27.6764 -27.6744 -27.6738 -27.6693
   -27.6689  -9.5431  -9.1898  -8.7583  -7.1186  -6.6738  -2.7683  -1.6635
    -1.5468  -1.0818  -0.9009  -0.3085   0.4508   0.5899   0.9115   2.5590
     3.2271   3.6291   4.3256   4.8160   5.5358   5.7899   7.2434   7.8575
     8.2346   8.8109   9.0115   9.3060   9.5826   9.8600  10.1850  10.3712
    10.5019  10.8679  11.0914  11.2882

     occupation numbers 
     1.0000   1.0000   1.0000   1.0000   1.0000   1.0000   1.0000   1.0000
     1.0000   1.0000   1.0000   1.0000   1.0000   1.0000   1.0000   1.0000
     1.0000   1.0000   1.0000   1.0000   1.0000   1.0000   1.0000   1.0000
     1.0000   1.0000   1.0000   1.0000   1.0000   1.0000   1.0000   1.0000
     1.0000   1.0000   1.0000   1.0000   1.0000   1.0000   1.0000   0.0000
     0.0000   0.0000   0.0000   0.0000   0.0000   0.0000   0.0000   0.0000
     0.0000   0.0000   0.0000   0.0000   0.0000   0.0000   0.0000   0.0000
     0.0000   0.0000   0.0000   0.0000

          k = 0.0000 0.5596 0.0000 ( 25035 PWs)   bands (ev):

   -34.8579 -34.8578 -34.8554 -34.8553 -34.8217 -34.8216 -34.8132 -34.8130
   -34.8011 -34.8010 -34.7309 -34.7297 -34.7127 -34.6903 -34.6876 -27.6848
   -27.6847 -27.6830 -27.6826 -27.6774 -27.6767 -27.6743 -27.6737 -27.6690
   -27.6687  -9.1594  -8.9746  -8.8664  -7.3789  -6.9054  -2.9593  -1.6867
    -1.6508  -1.3066  -0.9958  -0.3592   0.4931   0.5296   0.7363   2.5079
     3.2429   3.6326   4.3576   4.9210   5.4770   5.7942   7.3332   8.3928
     8.5796   8.9303   9.1005   9.4990   9.7421  10.1650  10.5017  10.5732
    10.8248  11.1400  11.2812  11.4311

     occupation numbers 
     1.0000   1.0000   1.0000   1.0000   1.0000   1.0000   1.0000   1.0000
     1.0000   1.0000   1.0000   1.0000   1.0000   1.0000   1.0000   1.0000
     1.0000   1.0000   1.0000   1.0000   1.0000   1.0000   1.0000   1.0000
     1.0000   1.0000   1.0000   1.0000   1.0000   1.0000   1.0000   1.0000
     1.0000   1.0000   1.0000   1.0000   1.0000   1.0000   1.0000   0.0000
     0.0000   0.0000   0.0000   0.0000   0.0000   0.0000   0.0000   0.0000
     0.0000   0.0000   0.0000   0.0000   0.0000   0.0000   0.0000   0.0000
     0.0000   0.0000   0.0000   0.0000

          k = 0.0769 0.0444 0.0000 ( 24955 PWs)   bands (ev):

   -34.8578 -34.8577 -34.8566 -34.8565 -34.8216 -34.8215 -34.8129 -34.8127
   -34.8017 -34.8016 -34.7312 -34.7297 -34.7124 -34.6910 -34.6883 -27.6863
   -27.6857 -27.6830 -27.6828 -27.6756 -27.6752 -27.6743 -27.6741 -27.6707
   -27.6705 -10.6472 -10.1157  -9.0828  -6.4285  -5.2339  -0.6180  -0.4691
    -0.0640   0.0832   0.2866   0.3157   0.9484   0.9875   1.3528   2.3063
     2.4485   2.7945   3.5963   3.7107   3.8968   6.3324   6.4470   7.1325
     7.2628   7.5357   8.0683   8.3875   8.6115   8.6855   9.0000   9.2563
     9.7671   9.9240  10.1224  10.3546

     occupation numbers 
     1.0000   1.0000   1.0000   1.0000   1.0000   1.0000   1.0000   1.0000
     1.0000   1.0000   1.0000   1.0000   1.0000   1.0000   1.0000   1.0000
     1.0000   1.0000   1.0000   1.0000   1.0000   1.0000   1.0000   1.0000
     1.0000   1.0000   1.0000   1.0000   1.0000   1.0000   1.0000   1.0000
     1.0000   1.0000   1.0000   1.0000   1.0000   1.0000   1.0000   0.0000
     0.0000   0.0000   0.0000   0.0000   0.0000   0.0000   0.0000   0.0000
     0.0000   0.0000   0.0000   0.0000   0.0000   0.0000   0.0000   0.0000
     0.0000   0.0000   0.0000   0.0000

          k = 0.0769 0.1377 0.0000 ( 24965 PWs)   bands (ev):

   -34.8578 -34.8577 -34.8565 -34.8564 -34.8216 -34.8215 -34.8129 -34.8127
   -34.8017 -34.8016 -34.7311 -34.7297 -34.7124 -34.6908 -34.6883 -27.6862
   -27.6856 -27.6829 -27.6828 -27.6757 -27.6752 -27.6744 -27.6740 -27.6706
   -27.6704 -10.5493 -10.0274  -9.0344  -6.4610  -5.4066  -1.0425  -0.7013
    -0.4912  -0.1561   0.0858   0.2906   0.6825   1.2745   1.4408   2.4815
     2.5764   3.0948   3.6976   3.8186   4.2980   6.4585   6.4950   7.0275
     7.2383   7.5616   8.0763   8.4250   8.5038   8.8333   8.9654   9.5661
     9.7637  10.0243  10.3979  10.7067

     occupation numbers 
     1.0000   1.0000   1.0000   1.0000   1.0000   1.0000   1.0000   1.0000
     1.0000   1.0000   1.0000   1.0000   1.0000   1.0000   1.0000   1.0000
     1.0000   1.0000   1.0000   1.0000   1.0000   1.0000   1.0000   1.0000
     1.0000   1.0000   1.0000   1.0000   1.0000   1.0000   1.0000   1.0000
     1.0000   1.0000   1.0000   1.0000   1.0000   1.0000   1.0000   0.0000
     0.0000   0.0000   0.0000   0.0000   0.0000   0.0000   0.0000   0.0000
     0.0000   0.0000   0.0000   0.0000   0.0000   0.0000   0.0000   0.0000
     0.0000   0.0000   0.0000   0.0000

          k = 0.0769 0.2309 0.0000 ( 24989 PWs)   bands (ev):

   -34.8578 -34.8577 -34.8563 -34.8562 -34.8216 -34.8216 -34.8130 -34.8128
   -34.8016 -34.8014 -34.7311 -34.7297 -34.7125 -34.6907 -34.6882 -27.6858
   -27.6853 -27.6830 -27.6828 -27.6761 -27.6753 -27.6744 -27.6740 -27.6704
   -27.6701 -10.3546  -9.8535  -8.9453  -6.5417  -5.7250  -1.5403  -1.2394
    -0.7654  -0.5653  -0.1848   0.0781   0.6118   1.0873   1.5194   2.6617
     2.7768   3.4470   3.9516   4.1686   4.7572   6.4626   6.6888   6.9253
     7.2953   7.7923   8.3853   8.4366   8.4942   8.7947   9.3293   9.8197
     9.8554  10.2051  10.7282  10.8772

     occupation numbers 
     1.0000   1.0000   1.0000   1.0000   1.0000   1.0000   1.0000   1.0000
     1.0000   1.0000   1.0000   1.0000   1.0000   1.0000   1.0000   1.0000
     1.0000   1.0000   1.0000   1.0000   1.0000   1.0000   1.0000   1.0000
     1.0000   1.0000   1.0000   1.0000   1.0000   1.0000   1.0000   1.0000
     1.0000   1.0000   1.0000   1.0000   1.0000   1.0000   1.0000   0.0000
     0.0000   0.0000   0.0000   0.0000   0.0000   0.0000   0.0000   0.0000
     0.0000   0.0000   0.0000   0.0000   0.0000   0.0000   0.0000   0.0000
     0.0000   0.0000   0.0000   0.0000

          k = 0.0769 0.3242 0.0000 ( 25034 PWs)   bands (ev):

   -34.8579 -34.8577 -34.8560 -34.8559 -34.8216 -34.8216 -34.8130 -34.8128
   -34.8014 -34.8013 -34.7310 -34.7297 -34.7125 -34.6905 -34.6880 -27.6854
   -27.6850 -27.6830 -27.6829 -27.6765 -27.6757 -27.6745 -27.6739 -27.6700
   -27.6697 -10.0714  -9.6077  -8.8392  -6.7029  -6.1416  -2.1119  -1.5698
    -1.0443  -0.9511  -0.5351  -0.0537   0.5796   0.7440   1.4219   2.7623
     2.9486   3.6600   4.2678   4.4706   5.2333   6.1512   6.9755   7.2252
     7.6464   8.0892   8.2250   8.7300   8.9686   9.1961   9.6784  10.0521
    10.1271  10.3496  10.8642  11.1487

     occupation numbers 
     1.0000   1.0000   1.0000   1.0000   1.0000   1.0000   1.0000   1.0000
     1.0000   1.0000   1.0000   1.0000   1.0000   1.0000   1.0000   1.0000
     1.0000   1.0000   1.0000   1.0000   1.0000   1.0000   1.0000   1.0000
     1.0000   1.0000   1.0000   1.0000   1.0000   1.0000   1.0000   1.0000
     1.0000   1.0000   1.0000   1.0000   1.0000   1.0000   1.0000   0.0000
     0.0000   0.0000   0.0000   0.0000   0.0000   0.0000   0.0000   0.0000
     0.0000   0.0000   0.0000   0.0000   0.0000   0.0000   0.0000   0.0000
     0.0000   0.0000   0.0000   0.0000

          k = 0.0769 0.4175 0.0000 ( 25027 PWs)   bands (ev):

   -34.8579 -34.8577 -34.8557 -34.8556 -34.8217 -34.8216 -34.8131 -34.8129
   -34.8013 -34.8011 -34.7310 -34.7297 -34.7126 -34.6903 -34.6878 -27.6850
   -27.6848 -27.6830 -27.6828 -27.6769 -27.6761 -27.6744 -27.6738 -27.6696
   -27.6692  -9.7172  -9.3186  -8.7589  -6.9683  -6.5635  -2.5725  -1.6936
    -1.4439  -1.2314  -0.6596  -0.2640   0.4007   0.6817   1.1839   2.8063
     2.9979   3.7372   4.4614   4.6941   5.5760   5.8886   7.2554   7.6059
     8.0859   8.3375   8.6869   9.1428   9.4649   9.6224   9.8964  10.3565
    10.5696  10.6995  11.0153  11.2096

     occupation numbers 
     1.0000   1.0000   1.0000   1.0000   1.0000   1.0000   1.0000   1.0000
     1.0000   1.0000   1.0000   1.0000   1.0000   1.0000   1.0000   1.0000
     1.0000   1.0000   1.0000   1.0000   1.0000   1.0000   1.0000   1.0000
     1.0000   1.0000   1.0000   1.0000   1.0000   1.0000   1.0000   1.0000
     1.0000   1.0000   1.0000   1.0000   1.0000   1.0000   1.0000   0.0000
     0.0000   0.0000   0.0000   0.0000   0.0000   0.0000   0.0000   0.0000
     0.0000   0.0000   0.0000   0.0000   0.0000   0.0000   0.0000   0.0000
     0.0000   0.0000   0.0000   0.0000

          k = 0.0769 0.5107 0.0000 ( 25043 PWs)   bands (ev):

   -34.8579 -34.8577 -34.8555 -34.8554 -34.8217 -34.8216 -34.8131 -34.8129
   -34.8011 -34.8010 -34.7309 -34.7297 -34.7127 -34.6902 -34.6877 -27.6848
   -27.6848 -27.6830 -27.6827 -27.6773 -27.6765 -27.6743 -27.6737 -27.6692
   -27.6688  -9.3285  -9.0489  -8.7755  -7.2787  -6.8777  -2.8557  -1.7348
    -1.6595  -1.4269  -0.7967  -0.4359   0.3871   0.6434   0.9492   2.8120
     3.0062   3.6830   4.6006   4.8027   5.5919   5.8454   7.3234   8.1424
     8.3907   9.0211   9.1472   9.2034   9.7366   9.8857  10.3482  10.6239
    10.8416  10.8912  10.9924  11.2348

     occupation numbers 
     1.0000   1.0000   1.0000   1.0000   1.0000   1.0000   1.0000   1.0000
     1.0000   1.0000   1.0000   1.0000   1.0000   1.0000   1.0000   1.0000
     1.0000   1.0000   1.0000   1.0000   1.0000   1.0000   1.0000   1.0000
     1.0000   1.0000   1.0000   1.0000   1.0000   1.0000   1.0000   1.0000
     1.0000   1.0000   1.0000   1.0000   1.0000   1.0000   1.0000   0.0000
     0.0000   0.0000   0.0000   0.0000   0.0000   0.0000   0.0000   0.0000
     0.0000   0.0000   0.0000   0.0000   0.0000   0.0000   0.0000   0.0000
     0.0000   0.0000   0.0000   0.0000

          k = 0.0769 0.6040 0.0000 ( 25026 PWs)   bands (ev):

   -34.8579 -34.8577 -34.8554 -34.8553 -34.8217 -34.8216 -34.8132 -34.8130
   -34.8011 -34.8010 -34.7309 -34.7297 -34.7127 -34.6902 -34.6875 -27.6847
   -27.6846 -27.6830 -27.6827 -27.6774 -27.6767 -27.6743 -27.6737 -27.6690
   -27.6686  -8.9949  -8.9520  -8.9221  -7.4303  -6.9987  -2.9532  -1.8332
    -1.5880  -1.5241  -0.9092  -0.4643   0.4880   0.5230   0.8690   2.7768
     3.0372   3.6300   4.6337   4.8303   5.6002   5.7735   7.3737   8.5392
     8.7320   8.7642   9.0070   9.7023   9.8157   9.8449  10.4050  10.4847
    10.8386  11.0524  11.1082  11.3580

     occupation numbers 
     1.0000   1.0000   1.0000   1.0000   1.0000   1.0000   1.0000   1.0000
     1.0000   1.0000   1.0000   1.0000   1.0000   1.0000   1.0000   1.0000
     1.0000   1.0000   1.0000   1.0000   1.0000   1.0000   1.0000   1.0000
     1.0000   1.0000   1.0000   1.0000   1.0000   1.0000   1.0000   1.0000
     1.0000   1.0000   1.0000   1.0000   1.0000   1.0000   1.0000   0.0000
     0.0000   0.0000   0.0000   0.0000   0.0000   0.0000   0.0000   0.0000
     0.0000   0.0000   0.0000   0.0000   0.0000   0.0000   0.0000   0.0000
     0.0000   0.0000   0.0000   0.0000

          k = 0.0769-0.5152 0.0000 ( 25040 PWs)   bands (ev):

   -34.8579 -34.8577 -34.8554 -34.8553 -34.8217 -34.8216 -34.8132 -34.8130
   -34.8011 -34.8010 -34.7310 -34.7297 -34.7127 -34.6903 -34.6875 -27.6846
   -27.6844 -27.6832 -27.6828 -27.6774 -27.6766 -27.6744 -27.6738 -27.6691
   -27.6687  -9.3117  -9.0368  -8.7780  -7.2852  -6.8735  -2.8637  -1.7543
    -1.6720  -1.3870  -0.8376  -0.3983   0.4196   0.5714   0.9573   2.7920
     2.9952   3.6485   4.5961   4.7634   5.5786   5.8002   7.2998   8.1532
     8.4254   8.7660   9.0347   9.2012   9.6700   9.7654  10.2759  10.5055
    10.7971  10.9471  11.3280  11.4245

     occupation numbers 
     1.0000   1.0000   1.0000   1.0000   1.0000   1.0000   1.0000   1.0000
     1.0000   1.0000   1.0000   1.0000   1.0000   1.0000   1.0000   1.0000
     1.0000   1.0000   1.0000   1.0000   1.0000   1.0000   1.0000   1.0000
     1.0000   1.0000   1.0000   1.0000   1.0000   1.0000   1.0000   1.0000
     1.0000   1.0000   1.0000   1.0000   1.0000   1.0000   1.0000   0.0000
     0.0000   0.0000   0.0000   0.0000   0.0000   0.0000   0.0000   0.0000
     0.0000   0.0000   0.0000   0.0000   0.0000   0.0000   0.0000   0.0000
     0.0000   0.0000   0.0000   0.0000

          k = 0.0769-0.4219 0.0000 ( 25037 PWs)   bands (ev):

   -34.8579 -34.8577 -34.8556 -34.8555 -34.8216 -34.8216 -34.8131 -34.8129
   -34.8012 -34.8011 -34.7310 -34.7297 -34.7127 -34.6905 -34.6876 -27.6844
   -27.6842 -27.6835 -27.6832 -27.6771 -27.6763 -27.6745 -27.6739 -27.6693
   -27.6689  -9.7001  -9.3021  -8.7529  -6.9726  -6.5522  -2.5879  -1.7205
    -1.4495  -1.1845  -0.7174  -0.2020   0.4244   0.5936   1.1593   2.7874
     2.9657   3.6473   4.4099   4.6987   5.5186   5.8415   7.2150   7.6117
     8.0281   8.1001   8.6783   9.0243   9.4548   9.6402  10.2789  10.3805
    10.5650  10.8078  11.0911  11.1974

     occupation numbers 
     1.0000   1.0000   1.0000   1.0000   1.0000   1.0000   1.0000   1.0000
     1.0000   1.0000   1.0000   1.0000   1.0000   1.0000   1.0000   1.0000
     1.0000   1.0000   1.0000   1.0000   1.0000   1.0000   1.0000   1.0000
     1.0000   1.0000   1.0000   1.0000   1.0000   1.0000   1.0000   1.0000
     1.0000   1.0000   1.0000   1.0000   1.0000   1.0000   1.0000   0.0000
     0.0000   0.0000   0.0000   0.0000   0.0000   0.0000   0.0000   0.0000
     0.0000   0.0000   0.0000   0.0000   0.0000   0.0000   0.0000   0.0000
     0.0000   0.0000   0.0000   0.0000

          k = 0.0769-0.3286 0.0000 ( 25033 PWs)   bands (ev):

   -34.8579 -34.8577 -34.8559 -34.8558 -34.8216 -34.8216 -34.8131 -34.8129
   -34.8014 -34.8012 -34.7310 -34.7297 -34.7126 -34.6906 -34.6878 -27.6846
   -27.6842 -27.6836 -27.6835 -27.6767 -27.6759 -27.6746 -27.6741 -27.6697
   -27.6693 -10.0565  -9.5919  -8.8293  -6.6985  -6.1237  -2.1344  -1.5662
    -1.0720  -0.9122  -0.5712   0.0261   0.4935   0.7024   1.3663   2.6864
     2.9062   3.6070   4.1368   4.5422   5.1971   6.1032   6.9348   7.1900
     7.5539   8.0526   8.2175   8.6460   9.1207   9.3980   9.8253  10.0407
    10.1517  10.4166  10.9675  11.1825

     occupation numbers 
     1.0000   1.0000   1.0000   1.0000   1.0000   1.0000   1.0000   1.0000
     1.0000   1.0000   1.0000   1.0000   1.0000   1.0000   1.0000   1.0000
     1.0000   1.0000   1.0000   1.0000   1.0000   1.0000   1.0000   1.0000
     1.0000   1.0000   1.0000   1.0000   1.0000   1.0000   1.0000   1.0000
     1.0000   1.0000   1.0000   1.0000   1.0000   1.0000   1.0000   0.0000
     0.0000   0.0000   0.0000   0.0000   0.0000   0.0000   0.0000   0.0000
     0.0000   0.0000   0.0000   0.0000   0.0000   0.0000   0.0000   0.0000
     0.0000   0.0000   0.0000   0.0000

          k = 0.0769-0.2354 0.0000 ( 25004 PWs)   bands (ev):

   -34.8579 -34.8577 -34.8562 -34.8561 -34.8216 -34.8215 -34.8130 -34.8128
   -34.8015 -34.8014 -34.7311 -34.7297 -34.7125 -34.6908 -34.6880 -27.6852
   -27.6847 -27.6835 -27.6833 -27.6762 -27.6755 -27.6747 -27.6741 -27.6701
   -27.6698 -10.3432  -9.8411  -8.9357  -6.5319  -5.7024  -1.5496  -1.2120
    -0.7406  -0.5873  -0.2338   0.1228   0.5318   0.9905   1.4894   2.4449
     2.8075   3.4649   3.8045   4.3169   4.7406   6.4297   6.6987   6.8594
     7.2889   7.7940   8.3764   8.4761   8.6183   8.8468   9.3273   9.8183
     9.8713  10.2654  10.6043  10.9621

     occupation numbers 
     1.0000   1.0000   1.0000   1.0000   1.0000   1.0000   1.0000   1.0000
     1.0000   1.0000   1.0000   1.0000   1.0000   1.0000   1.0000   1.0000
     1.0000   1.0000   1.0000   1.0000   1.0000   1.0000   1.0000   1.0000
     1.0000   1.0000   1.0000   1.0000   1.0000   1.0000   1.0000   1.0000
     1.0000   1.0000   1.0000   1.0000   1.0000   1.0000   1.0000   0.0000
     0.0000   0.0000   0.0000   0.0000   0.0000   0.0000   0.0000   0.0000
     0.0000   0.0000   0.0000   0.0000   0.0000   0.0000   0.0000   0.0000
     0.0000   0.0000   0.0000   0.0000

          k = 0.0769-0.1421 0.0000 ( 24972 PWs)   bands (ev):

   -34.8579 -34.8577 -34.8565 -34.8563 -34.8216 -34.8215 -34.8129 -34.8128
   -34.8017 -34.8015 -34.7311 -34.7297 -34.7124 -34.6909 -34.6881 -27.6858
   -27.6852 -27.6832 -27.6830 -27.6758 -27.6753 -27.6746 -27.6742 -27.6704
   -27.6702 -10.5422 -10.0195  -9.0277  -6.4521  -5.3864  -0.9805  -0.6668
    -0.4215  -0.2571   0.0107   0.2752   0.5752   1.2679   1.3749   2.2594
     2.7245   3.0166   3.6637   3.9490   4.3098   6.4787   6.4970   7.0015
     7.3023   7.5802   8.0186   8.4419   8.5213   8.8422   8.9244   9.6135
     9.7251   9.9869  10.3262  10.7054

     occupation numbers 
     1.0000   1.0000   1.0000   1.0000   1.0000   1.0000   1.0000   1.0000
     1.0000   1.0000   1.0000   1.0000   1.0000   1.0000   1.0000   1.0000
     1.0000   1.0000   1.0000   1.0000   1.0000   1.0000   1.0000   1.0000
     1.0000   1.0000   1.0000   1.0000   1.0000   1.0000   1.0000   1.0000
     1.0000   1.0000   1.0000   1.0000   1.0000   1.0000   1.0000   0.0000
     0.0000   0.0000   0.0000   0.0000   0.0000   0.0000   0.0000   0.0000
     0.0000   0.0000   0.0000   0.0000   0.0000   0.0000   0.0000   0.0000
     0.0000   0.0000   0.0000   0.0000

          k = 0.0769-0.0489 0.0000 ( 24969 PWs)   bands (ev):

   -34.8579 -34.8577 -34.8566 -34.8565 -34.8216 -34.8215 -34.8129 -34.8127
   -34.8017 -34.8016 -34.7312 -34.7297 -34.7124 -34.6910 -34.6882 -27.6862
   -27.6856 -27.6831 -27.6829 -27.6756 -27.6752 -27.6744 -27.6741 -27.6706
   -27.6704 -10.6448 -10.1130  -9.0805  -6.4251  -5.2257  -0.5597  -0.3269
    -0.2129   0.0251   0.2166   0.3776   0.8168   1.0140   1.3886   2.1615
     2.5595   2.8237   3.5225   3.6811   4.0037   6.3354   6.4571   7.1291
     7.3660   7.5516   7.8853   8.4523   8.5453   8.7944   8.9128   9.2634
     9.7727   9.8077  10.2817  10.3868

     occupation numbers 
     1.0000   1.0000   1.0000   1.0000   1.0000   1.0000   1.0000   1.0000
     1.0000   1.0000   1.0000   1.0000   1.0000   1.0000   1.0000   1.0000
     1.0000   1.0000   1.0000   1.0000   1.0000   1.0000   1.0000   1.0000
     1.0000   1.0000   1.0000   1.0000   1.0000   1.0000   1.0000   1.0000
     1.0000   1.0000   1.0000   1.0000   1.0000   1.0000   1.0000   0.0000
     0.0000   0.0000   0.0000   0.0000   0.0000   0.0000   0.0000   0.0000
     0.0000   0.0000   0.0000   0.0000   0.0000   0.0000   0.0000   0.0000
     0.0000   0.0000   0.0000   0.0000

          k = 0.1538 0.0888 0.0000 ( 24960 PWs)   bands (ev):

   -34.8578 -34.8576 -34.8566 -34.8565 -34.8216 -34.8216 -34.8129 -34.8127
   -34.8017 -34.8016 -34.7311 -34.7297 -34.7124 -34.6909 -34.6883 -27.6865
   -27.6859 -27.6826 -27.6824 -27.6756 -27.6752 -27.6744 -27.6741 -27.6707
   -27.6704 -10.5107  -9.9946  -9.0204  -6.4925  -5.5132  -1.3557  -0.7323
    -0.4751  -0.3494   0.0736   0.2220   1.0427   1.1662   1.3880   2.5669
     2.9787   3.0374   3.7121   3.9818   4.2771   6.3821   6.5201   6.8846
     7.4122   7.5880   8.2802   8.3222   8.5502   8.8047   9.3296   9.4430
     9.6869  10.1403  10.4426  10.5872

     occupation numbers 
     1.0000   1.0000   1.0000   1.0000   1.0000   1.0000   1.0000   1.0000
     1.0000   1.0000   1.0000   1.0000   1.0000   1.0000   1.0000   1.0000
     1.0000   1.0000   1.0000   1.0000   1.0000   1.0000   1.0000   1.0000
     1.0000   1.0000   1.0000   1.0000   1.0000   1.0000   1.0000   1.0000
     1.0000   1.0000   1.0000   1.0000   1.0000   1.0000   1.0000   0.0000
     0.0000   0.0000   0.0000   0.0000   0.0000   0.0000   0.0000   0.0000
     0.0000   0.0000   0.0000   0.0000   0.0000   0.0000   0.0000   0.0000
     0.0000   0.0000   0.0000   0.0000

          k = 0.1538 0.1821 0.0000 ( 25013 PWs)   bands (ev):

   -34.8578 -34.8576 -34.8564 -34.8563 -34.8216 -34.8216 -34.8129 -34.8127
   -34.8016 -34.8015 -34.7311 -34.7297 -34.7124 -34.6907 -34.6883 -27.6864
   -27.6858 -27.6825 -27.6824 -27.6758 -27.6752 -27.6744 -27.6740 -27.6706
   -27.6703 -10.3680  -9.8684  -8.9585  -6.5615  -5.7525  -1.6861  -1.0946
    -0.8487  -0.3994  -0.2266   0.2258   0.7052   1.1402   1.5689   2.6025
     3.1344   3.2821   3.8420   4.4218   4.5246   6.3458   6.6783   6.8829
     7.3407   7.7527   8.2583   8.3956   8.7666   8.8815   9.3282   9.8119
     9.9662  10.1036  10.6298  10.9339

     occupation numbers 
     1.0000   1.0000   1.0000   1.0000   1.0000   1.0000   1.0000   1.0000
     1.0000   1.0000   1.0000   1.0000   1.0000   1.0000   1.0000   1.0000
     1.0000   1.0000   1.0000   1.0000   1.0000   1.0000   1.0000   1.0000
     1.0000   1.0000   1.0000   1.0000   1.0000   1.0000   1.0000   1.0000
     1.0000   1.0000   1.0000   1.0000   1.0000   1.0000   1.0000   0.0000
     0.0000   0.0000   0.0000   0.0000   0.0000   0.0000   0.0000   0.0000
     0.0000   0.0000   0.0000   0.0000   0.0000   0.0000   0.0000   0.0000
     0.0000   0.0000   0.0000   0.0000

          k = 0.1538 0.2754 0.0000 ( 24990 PWs)   bands (ev):

   -34.8578 -34.8576 -34.8561 -34.8560 -34.8216 -34.8216 -34.8130 -34.8128
   -34.8015 -34.8014 -34.7310 -34.7297 -34.7125 -34.6905 -34.6882 -27.6861
   -27.6856 -27.6825 -27.6824 -27.6762 -27.6754 -27.6744 -27.6740 -27.6703
   -27.6700 -10.1331  -9.6643  -8.8678  -6.6886  -6.1088  -1.9100  -1.7479
    -0.9987  -0.7663  -0.5206  -0.0778   0.6666   1.1894   1.3717   2.7151
     3.3122   3.5286   3.9941   4.7344   5.0293   6.5421   6.6159   7.0416
     7.3955   8.0162   8.0747   8.4256   9.1107   9.3866   9.7938   9.8414
    10.1683  10.5080  10.8106  10.8933

     occupation numbers 
     1.0000   1.0000   1.0000   1.0000   1.0000   1.0000   1.0000   1.0000
     1.0000   1.0000   1.0000   1.0000   1.0000   1.0000   1.0000   1.0000
     1.0000   1.0000   1.0000   1.0000   1.0000   1.0000   1.0000   1.0000
     1.0000   1.0000   1.0000   1.0000   1.0000   1.0000   1.0000   1.0000
     1.0000   1.0000   1.0000   1.0000   1.0000   1.0000   1.0000   0.0000
     0.0000   0.0000   0.0000   0.0000   0.0000   0.0000   0.0000   0.0000
     0.0000   0.0000   0.0000   0.0000   0.0000   0.0000   0.0000   0.0000
     0.0000   0.0000   0.0000   0.0000

          k = 0.1538 0.3686 0.0000 ( 25008 PWs)   bands (ev):

   -34.8578 -34.8576 -34.8559 -34.8558 -34.8217 -34.8216 -34.8130 -34.8128
   -34.8013 -34.8012 -34.7310 -34.7297 -34.7126 -34.6903 -34.6880 -27.6856
   -27.6853 -27.6826 -27.6825 -27.6766 -27.6757 -27.6744 -27.6739 -27.6699
   -27.6696  -9.8186  -9.4015  -8.7756  -6.8892  -6.5293  -2.2846  -2.0108
    -1.3176  -1.1089  -0.7482  -0.3252   0.6996   0.8847   1.2822   2.8368
     3.3653   3.6139   4.3557   4.9358   5.3951   6.3151   7.0323   7.4681
     7.5654   8.0298   8.4795   8.6603   9.3640   9.5222  10.1579  10.2806
    10.6034  10.7690  10.8789  11.5112

     occupation numbers 
     1.0000   1.0000   1.0000   1.0000   1.0000   1.0000   1.0000   1.0000
     1.0000   1.0000   1.0000   1.0000   1.0000   1.0000   1.0000   1.0000
     1.0000   1.0000   1.0000   1.0000   1.0000   1.0000   1.0000   1.0000
     1.0000   1.0000   1.0000   1.0000   1.0000   1.0000   1.0000   1.0000
     1.0000   1.0000   1.0000   1.0000   1.0000   1.0000   1.0000   0.0000
     0.0000   0.0000   0.0000   0.0000   0.0000   0.0000   0.0000   0.0000
     0.0000   0.0000   0.0000   0.0000   0.0000   0.0000   0.0000   0.0000
     0.0000   0.0000   0.0000   0.0000

          k = 0.1538 0.4619 0.0000 ( 25033 PWs)   bands (ev):

   -34.8578 -34.8576 -34.8556 -34.8555 -34.8217 -34.8216 -34.8131 -34.8129
   -34.8012 -34.8011 -34.7309 -34.7297 -34.7126 -34.6902 -34.6878 -27.6852
   -27.6849 -27.6827 -27.6826 -27.6770 -27.6761 -27.6744 -27.6738 -27.6695
   -27.6692  -9.4500  -9.1205  -8.7283  -7.1658  -6.9113  -2.6550  -2.0326
    -1.5478  -1.4796  -0.8340  -0.4785   0.4823   0.7830   1.2192   2.8215
     3.3521   3.7595   4.5053   5.0304   5.6557   6.1059   7.4060   7.8507
     8.1874   8.2528   8.9289   8.9930   9.5889   9.6333  10.1928  10.5164
    10.7943  11.0018  11.2427  11.3501

     occupation numbers 
     1.0000   1.0000   1.0000   1.0000   1.0000   1.0000   1.0000   1.0000
     1.0000   1.0000   1.0000   1.0000   1.0000   1.0000   1.0000   1.0000
     1.0000   1.0000   1.0000   1.0000   1.0000   1.0000   1.0000   1.0000
     1.0000   1.0000   1.0000   1.0000   1.0000   1.0000   1.0000   1.0000
     1.0000   1.0000   1.0000   1.0000   1.0000   1.0000   1.0000   0.0000
     0.0000   0.0000   0.0000   0.0000   0.0000   0.0000   0.0000   0.0000
     0.0000   0.0000   0.0000   0.0000   0.0000   0.0000   0.0000   0.0000
     0.0000   0.0000   0.0000   0.0000

          k = 0.1538 0.5551 0.0000 ( 25072 PWs)   bands (ev):

   -34.8578 -34.8576 -34.8555 -34.8554 -34.8217 -34.8216 -34.8131 -34.8129
   -34.8011 -34.8010 -34.7309 -34.7297 -34.7127 -34.6902 -34.6876 -27.6847
   -27.6846 -27.6829 -27.6827 -27.6773 -27.6765 -27.6744 -27.6738 -27.6692
   -27.6688  -9.0834  -8.9078  -8.8000  -7.4203  -7.1358  -2.8418  -1.9952
    -1.8829  -1.4507  -0.8185  -0.7246   0.4366   0.7265   1.1162   2.8834
     3.3199   3.6590   4.6738   5.0349   5.7331   5.9753   7.4536   8.3578
     8.6592   8.8552   8.9910   9.4632   9.6589   9.7613  10.1225  10.3628
    10.5098  10.5475  10.9242  11.3640

     occupation numbers 
     1.0000   1.0000   1.0000   1.0000   1.0000   1.0000   1.0000   1.0000
     1.0000   1.0000   1.0000   1.0000   1.0000   1.0000   1.0000   1.0000
     1.0000   1.0000   1.0000   1.0000   1.0000   1.0000   1.0000   1.0000
     1.0000   1.0000   1.0000   1.0000   1.0000   1.0000   1.0000   1.0000
     1.0000   1.0000   1.0000   1.0000   1.0000   1.0000   1.0000   0.0000
     0.0000   0.0000   0.0000   0.0000   0.0000   0.0000   0.0000   0.0000
     0.0000   0.0000   0.0000   0.0000   0.0000   0.0000   0.0000   0.0000
     0.0000   0.0000   0.0000   0.0000

          k = 0.1538 0.6484 0.0000 ( 25033 PWs)   bands (ev):

   -34.8578 -34.8577 -34.8555 -34.8553 -34.8217 -34.8216 -34.8132 -34.8130
   -34.8011 -34.8010 -34.7309 -34.7297 -34.7127 -34.6903 -34.6875 -27.6844
   -27.6843 -27.6832 -27.6829 -27.6774 -27.6766 -27.6744 -27.6739 -27.6690
   -27.6687  -9.0548  -8.8942  -8.8125  -7.4286  -7.1331  -2.8487  -2.0479
    -1.8357  -1.4412  -0.9057  -0.6440   0.4567   0.6741   1.1174   2.8844
     3.2965   3.6217   4.6569   5.0101   5.7021   5.9457   7.4257   8.3616
     8.6811   8.7098   8.7742   9.3512   9.7178   9.7402  10.1739  10.3665
    10.4787  10.7681  10.9855  11.3688

     occupation numbers 
     1.0000   1.0000   1.0000   1.0000   1.0000   1.0000   1.0000   1.0000
     1.0000   1.0000   1.0000   1.0000   1.0000   1.0000   1.0000   1.0000
     1.0000   1.0000   1.0000   1.0000   1.0000   1.0000   1.0000   1.0000
     1.0000   1.0000   1.0000   1.0000   1.0000   1.0000   1.0000   1.0000
     1.0000   1.0000   1.0000   1.0000   1.0000   1.0000   1.0000   0.0000
     0.0000   0.0000   0.0000   0.0000   0.0000   0.0000   0.0000   0.0000
     0.0000   0.0000   0.0000   0.0000   0.0000   0.0000   0.0000   0.0000
     0.0000   0.0000   0.0000   0.0000

          k = 0.1538-0.4708 0.0000 ( 24998 PWs)   bands (ev):

   -34.8578 -34.8577 -34.8555 -34.8554 -34.8217 -34.8216 -34.8131 -34.8130
   -34.8011 -34.8010 -34.7309 -34.7297 -34.7127 -34.6905 -34.6875 -27.6842
   -27.6840 -27.6836 -27.6832 -27.6773 -27.6765 -27.6745 -27.6740 -27.6691
   -27.6687  -9.4159  -9.0903  -8.7220  -7.1788  -6.8985  -2.6781  -2.0657
    -1.5382  -1.4677  -0.8980  -0.3956   0.4758   0.6979   1.1947   2.8087
     3.2921   3.6425   4.4541   4.9854   5.5573   6.0387   7.3294   7.6527
     8.0660   8.2979   8.7954   9.0371   9.4720   9.6844  10.1688  10.5388
    10.8591  11.0212  11.2789  11.5662

     occupation numbers 
     1.0000   1.0000   1.0000   1.0000   1.0000   1.0000   1.0000   1.0000
     1.0000   1.0000   1.0000   1.0000   1.0000   1.0000   1.0000   1.0000
     1.0000   1.0000   1.0000   1.0000   1.0000   1.0000   1.0000   1.0000
     1.0000   1.0000   1.0000   1.0000   1.0000   1.0000   1.0000   1.0000
     1.0000   1.0000   1.0000   1.0000   1.0000   1.0000   1.0000   0.0000
     0.0000   0.0000   0.0000   0.0000   0.0000   0.0000   0.0000   0.0000
     0.0000   0.0000   0.0000   0.0000   0.0000   0.0000   0.0000   0.0000
     0.0000   0.0000   0.0000   0.0000

          k = 0.1538-0.3775 0.0000 ( 25030 PWs)   bands (ev):

   -34.8578 -34.8577 -34.8557 -34.8556 -34.8216 -34.8216 -34.8131 -34.8129
   -34.8012 -34.8011 -34.7310 -34.7297 -34.7126 -34.6906 -34.6875 -27.6844
   -27.6839 -27.6837 -27.6834 -27.6770 -27.6762 -27.6747 -27.6742 -27.6693
   -27.6690  -9.7865  -9.3683  -8.7576  -6.8867  -6.5062  -2.3241  -2.0152
    -1.3308  -1.1243  -0.7865  -0.2324   0.6208   0.8086   1.2144   2.7530
     3.3057   3.4799   4.2218   4.9422   5.2850   6.2287   6.8448   7.4758
     7.5136   8.0170   8.5102   8.5845   9.3833   9.5765  10.3294  10.3997
    10.7032  10.8707  11.0330  11.5994

     occupation numbers 
     1.0000   1.0000   1.0000   1.0000   1.0000   1.0000   1.0000   1.0000
     1.0000   1.0000   1.0000   1.0000   1.0000   1.0000   1.0000   1.0000
     1.0000   1.0000   1.0000   1.0000   1.0000   1.0000   1.0000   1.0000
     1.0000   1.0000   1.0000   1.0000   1.0000   1.0000   1.0000   1.0000
     1.0000   1.0000   1.0000   1.0000   1.0000   1.0000   1.0000   0.0000
     0.0000   0.0000   0.0000   0.0000   0.0000   0.0000   0.0000   0.0000
     0.0000   0.0000   0.0000   0.0000   0.0000   0.0000   0.0000   0.0000
     0.0000   0.0000   0.0000   0.0000

          k = 0.1538-0.2842 0.0000 ( 24998 PWs)   bands (ev):

   -34.8578 -34.8577 -34.8560 -34.8559 -34.8216 -34.8216 -34.8131 -34.8129
   -34.8014 -34.8013 -34.7310 -34.7297 -34.7126 -34.6908 -34.6877 -27.6849
   -27.6844 -27.6835 -27.6832 -27.6766 -27.6758 -27.6748 -27.6743 -27.6697
   -27.6694 -10.1068  -9.6355  -8.8470  -6.6709  -6.0746  -1.8847  -1.7935
    -0.9823  -0.8460  -0.5043  -0.0527   0.5553   1.0887   1.2776   2.5201
     3.2538   3.4961   3.8228   4.8011   4.9822   6.4588   6.5304   7.0367
     7.4167   8.0446   8.0831   8.3634   9.1978   9.6071   9.9143   9.9419
    10.2639  10.4260  10.7456  10.9678

     occupation numbers 
     1.0000   1.0000   1.0000   1.0000   1.0000   1.0000   1.0000   1.0000
     1.0000   1.0000   1.0000   1.0000   1.0000   1.0000   1.0000   1.0000
     1.0000   1.0000   1.0000   1.0000   1.0000   1.0000   1.0000   1.0000
     1.0000   1.0000   1.0000   1.0000   1.0000   1.0000   1.0000   1.0000
     1.0000   1.0000   1.0000   1.0000   1.0000   1.0000   1.0000   0.0000
     0.0000   0.0000   0.0000   0.0000   0.0000   0.0000   0.0000   0.0000
     0.0000   0.0000   0.0000   0.0000   0.0000   0.0000   0.0000   0.0000
     0.0000   0.0000   0.0000   0.0000

          k = 0.1538-0.1910 0.0000 ( 24981 PWs)   bands (ev):

   -34.8578 -34.8577 -34.8563 -34.8562 -34.8216 -34.8215 -34.8130 -34.8128
   -34.8015 -34.8014 -34.7311 -34.7297 -34.7125 -34.6909 -34.6879 -27.6854
   -27.6850 -27.6832 -27.6830 -27.6761 -27.6755 -27.6748 -27.6743 -27.6700
   -27.6698 -10.3495  -9.8478  -8.9414  -6.5404  -5.7141  -1.6231  -1.1292
    -0.7827  -0.4989  -0.2767   0.1987   0.5760   1.0249   1.5023   2.4089
     2.9669   3.3550   3.7903   4.4550   4.6053   6.3605   6.6963   6.8549
     7.3234   7.7748   8.2986   8.4622   8.7966   8.8673   9.3367   9.8534
     9.8820  10.1596  10.6237  10.9528

     occupation numbers 
     1.0000   1.0000   1.0000   1.0000   1.0000   1.0000   1.0000   1.0000
     1.0000   1.0000   1.0000   1.0000   1.0000   1.0000   1.0000   1.0000
     1.0000   1.0000   1.0000   1.0000   1.0000   1.0000   1.0000   1.0000
     1.0000   1.0000   1.0000   1.0000   1.0000   1.0000   1.0000   1.0000
     1.0000   1.0000   1.0000   1.0000   1.0000   1.0000   1.0000   0.0000
     0.0000   0.0000   0.0000   0.0000   0.0000   0.0000   0.0000   0.0000
     0.0000   0.0000   0.0000   0.0000   0.0000   0.0000   0.0000   0.0000
     0.0000   0.0000   0.0000   0.0000

          k = 0.1538-0.0977 0.0000 ( 24955 PWs)   bands (ev):

   -34.8578 -34.8576 -34.8565 -34.8564 -34.8216 -34.8215 -34.8129 -34.8128
   -34.8016 -34.8015 -34.7311 -34.7297 -34.7124 -34.6910 -34.6881 -27.6860
   -27.6855 -27.6830 -27.6828 -27.6758 -27.6753 -27.6747 -27.6742 -27.6704
   -27.6702 -10.5012  -9.9838  -9.0109  -6.4790  -5.4870  -1.2639  -0.6039
    -0.5547  -0.4307  -0.0889   0.2170   0.8954   1.1383   1.3899   2.3963
     2.9395   3.1318   3.6087   4.0408   4.3865   6.4303   6.5360   6.9117
     7.4760   7.6057   8.0712   8.3654   8.6631   8.7872   9.1086   9.5171
     9.7596  10.0114  10.5295  10.6691

     occupation numbers 
     1.0000   1.0000   1.0000   1.0000   1.0000   1.0000   1.0000   1.0000
     1.0000   1.0000   1.0000   1.0000   1.0000   1.0000   1.0000   1.0000
     1.0000   1.0000   1.0000   1.0000   1.0000   1.0000   1.0000   1.0000
     1.0000   1.0000   1.0000   1.0000   1.0000   1.0000   1.0000   1.0000
     1.0000   1.0000   1.0000   1.0000   1.0000   1.0000   1.0000   0.0000
     0.0000   0.0000   0.0000   0.0000   0.0000   0.0000   0.0000   0.0000
     0.0000   0.0000   0.0000   0.0000   0.0000   0.0000   0.0000   0.0000
     0.0000   0.0000   0.0000   0.0000

          k = 0.1538-0.0044 0.0000 ( 24964 PWs)   bands (ev):

   -34.8578 -34.8576 -34.8566 -34.8565 -34.8216 -34.8215 -34.8129 -34.8127
   -34.8017 -34.8016 -34.7311 -34.7297 -34.7124 -34.6910 -34.6882 -27.6863
   -27.6858 -27.6828 -27.6826 -27.6756 -27.6752 -27.6745 -27.6741 -27.6706
   -27.6704 -10.5556 -10.0338  -9.0392  -6.4665  -5.4197  -1.0530  -0.6973
    -0.4932  -0.2733   0.1872   0.3260   0.7682   1.3141   1.4727   2.5598
     2.6733   3.0048   3.7285   3.7997   4.2142   6.4569   6.4807   7.0703
     7.1745   7.5364   8.1992   8.4415   8.5522   8.7317   9.0277   9.4083
     9.9255  10.0382  10.5009  10.6363

     occupation numbers 
     1.0000   1.0000   1.0000   1.0000   1.0000   1.0000   1.0000   1.0000
     1.0000   1.0000   1.0000   1.0000   1.0000   1.0000   1.0000   1.0000
     1.0000   1.0000   1.0000   1.0000   1.0000   1.0000   1.0000   1.0000
     1.0000   1.0000   1.0000   1.0000   1.0000   1.0000   1.0000   1.0000
     1.0000   1.0000   1.0000   1.0000   1.0000   1.0000   1.0000   0.0000
     0.0000   0.0000   0.0000   0.0000   0.0000   0.0000   0.0000   0.0000
     0.0000   0.0000   0.0000   0.0000   0.0000   0.0000   0.0000   0.0000
     0.0000   0.0000   0.0000   0.0000

          k = 0.2308 0.1332 0.0000 ( 24971 PWs)   bands (ev):

   -34.8576 -34.8575 -34.8565 -34.8564 -34.8216 -34.8216 -34.8129 -34.8127
   -34.8016 -34.8015 -34.7310 -34.7297 -34.7124 -34.6907 -34.6882 -27.6867
   -27.6862 -27.6821 -27.6819 -27.6757 -27.6752 -27.6745 -27.6741 -27.6706
   -27.6703 -10.2887  -9.8025  -8.9354  -6.6348  -5.9165  -1.9857  -1.0916
    -0.9091  -0.6576  -0.1363   0.2089   0.6775   1.0491   1.5738   2.8300
     3.1766   3.4210   4.1678   4.3314   4.6856   6.0888   6.7513   7.0140
     7.5945   7.8907   8.2760   8.5533   8.7452   8.9337   9.6613   9.7850
     9.8766  10.2462  10.4086  11.0784

     occupation numbers 
     1.0000   1.0000   1.0000   1.0000   1.0000   1.0000   1.0000   1.0000
     1.0000   1.0000   1.0000   1.0000   1.0000   1.0000   1.0000   1.0000
     1.0000   1.0000   1.0000   1.0000   1.0000   1.0000   1.0000   1.0000
     1.0000   1.0000   1.0000   1.0000   1.0000   1.0000   1.0000   1.0000
     1.0000   1.0000   1.0000   1.0000   1.0000   1.0000   1.0000   0.0000
     0.0000   0.0000   0.0000   0.0000   0.0000   0.0000   0.0000   0.0000
     0.0000   0.0000   0.0000   0.0000   0.0000   0.0000   0.0000   0.0000
     0.0000   0.0000   0.0000   0.0000

          k = 0.2308 0.2265 0.0000 ( 24990 PWs)   bands (ev):

   -34.8576 -34.8575 -34.8563 -34.8562 -34.8217 -34.8216 -34.8129 -34.8127
   -34.8015 -34.8014 -34.7310 -34.7297 -34.7124 -34.6905 -34.6882 -27.6867
   -27.6862 -27.6820 -27.6818 -27.6759 -27.6752 -27.6744 -27.6740 -27.6704
   -27.6702 -10.1063  -9.6477  -8.8757  -6.7570  -6.1806  -2.2215  -1.4854
    -1.0262  -0.7843  -0.4956   0.1561   0.6649   0.9008   1.5602   2.9375
     3.2153   3.5496   4.1635   4.7665   4.9954   6.0452   6.8945   7.1517
     7.6147   7.9197   8.1585   8.6117   9.0980   9.5506   9.7128   9.9383
    10.1647  10.2755  11.0438  11.1701

     occupation numbers 
     1.0000   1.0000   1.0000   1.0000   1.0000   1.0000   1.0000   1.0000
     1.0000   1.0000   1.0000   1.0000   1.0000   1.0000   1.0000   1.0000
     1.0000   1.0000   1.0000   1.0000   1.0000   1.0000   1.0000   1.0000
     1.0000   1.0000   1.0000   1.0000   1.0000   1.0000   1.0000   1.0000
     1.0000   1.0000   1.0000   1.0000   1.0000   1.0000   1.0000   0.0000
     0.0000   0.0000   0.0000   0.0000   0.0000   0.0000   0.0000   0.0000
     0.0000   0.0000   0.0000   0.0000   0.0000   0.0000   0.0000   0.0000
     0.0000   0.0000   0.0000   0.0000

          k = 0.2308 0.3198 0.0000 ( 24969 PWs)   bands (ev):

   -34.8576 -34.8575 -34.8561 -34.8560 -34.8217 -34.8216 -34.8130 -34.8128
   -34.8014 -34.8013 -34.7309 -34.7297 -34.7125 -34.6904 -34.6882 -27.6864
   -27.6859 -27.6821 -27.6819 -27.6763 -27.6754 -27.6745 -27.6740 -27.6702
   -27.6699  -9.8400  -9.4275  -8.8012  -6.9277  -6.5335  -2.3579  -1.9201
    -1.2756  -1.0258  -0.8190  -0.1741   0.7254   0.9457   1.3980   3.0044
     3.4373   3.6312   4.2766   5.1224   5.2568   6.3237   6.9069   7.4289
     7.4932   7.9770   8.4388   8.5824   9.2923   9.5655  10.2099  10.2394
    10.6960  10.8040  10.9753  11.4285

     occupation numbers 
     1.0000   1.0000   1.0000   1.0000   1.0000   1.0000   1.0000   1.0000
     1.0000   1.0000   1.0000   1.0000   1.0000   1.0000   1.0000   1.0000
     1.0000   1.0000   1.0000   1.0000   1.0000   1.0000   1.0000   1.0000
     1.0000   1.0000   1.0000   1.0000   1.0000   1.0000   1.0000   1.0000
     1.0000   1.0000   1.0000   1.0000   1.0000   1.0000   1.0000   0.0000
     0.0000   0.0000   0.0000   0.0000   0.0000   0.0000   0.0000   0.0000
     0.0000   0.0000   0.0000   0.0000   0.0000   0.0000   0.0000   0.0000
     0.0000   0.0000   0.0000   0.0000

          k = 0.2308 0.4130 0.0000 ( 24996 PWs)   bands (ev):

   -34.8576 -34.8575 -34.8558 -34.8557 -34.8217 -34.8216 -34.8130 -34.8128
   -34.8013 -34.8012 -34.7309 -34.7297 -34.7126 -34.6902 -34.6880 -27.6859
   -27.6855 -27.6822 -27.6821 -27.6766 -27.6757 -27.6745 -27.6740 -27.6698
   -27.6695  -9.5088  -9.1690  -8.7363  -7.1340  -6.9323  -2.4273  -2.3098
    -1.4737  -1.2502  -1.1459  -0.4145   0.6713   0.9958   1.1729   3.1614
     3.4567   3.6994   4.6134   5.1949   5.5027   6.7036   6.9590   7.5293
     7.9016   8.2597   8.5077   8.9150   9.3912   9.5623  10.2735  10.4969
    10.6607  10.9528  11.3203  11.5214

     occupation numbers 
     1.0000   1.0000   1.0000   1.0000   1.0000   1.0000   1.0000   1.0000
     1.0000   1.0000   1.0000   1.0000   1.0000   1.0000   1.0000   1.0000
     1.0000   1.0000   1.0000   1.0000   1.0000   1.0000   1.0000   1.0000
     1.0000   1.0000   1.0000   1.0000   1.0000   1.0000   1.0000   1.0000
     1.0000   1.0000   1.0000   1.0000   1.0000   1.0000   1.0000   0.0000
     0.0000   0.0000   0.0000   0.0000   0.0000   0.0000   0.0000   0.0000
     0.0000   0.0000   0.0000   0.0000   0.0000   0.0000   0.0000   0.0000
     0.0000   0.0000   0.0000   0.0000

          k = 0.2308 0.5063 0.0000 ( 25030 PWs)   bands (ev):

   -34.8576 -34.8575 -34.8557 -34.8556 -34.8217 -34.8216 -34.8131 -34.8129
   -34.8012 -34.8010 -34.7309 -34.7297 -34.7126 -34.6902 -34.6878 -27.6853
   -27.6850 -27.6825 -27.6824 -27.6770 -27.6761 -27.6744 -27.6740 -27.6695
   -27.6691  -9.1539  -8.9274  -8.7202  -7.3597  -7.2703  -2.6415  -2.3409
    -1.7739  -1.4398  -1.1665  -0.5593   0.4493   0.9488   1.1838   3.1270
     3.5157   3.7822   4.7601   5.2515   5.6468   6.5443   7.6626   7.8458
     8.3566   8.5289   8.7448   9.2992   9.5658   9.7443   9.7881  10.0888
    10.4912  10.6689  11.0469  11.2151

     occupation numbers 
     1.0000   1.0000   1.0000   1.0000   1.0000   1.0000   1.0000   1.0000
     1.0000   1.0000   1.0000   1.0000   1.0000   1.0000   1.0000   1.0000
     1.0000   1.0000   1.0000   1.0000   1.0000   1.0000   1.0000   1.0000
     1.0000   1.0000   1.0000   1.0000   1.0000   1.0000   1.0000   1.0000
     1.0000   1.0000   1.0000   1.0000   1.0000   1.0000   1.0000   0.0000
     0.0000   0.0000   0.0000   0.0000   0.0000   0.0000   0.0000   0.0000
     0.0000   0.0000   0.0000   0.0000   0.0000   0.0000   0.0000   0.0000
     0.0000   0.0000   0.0000   0.0000

          k = 0.2308 0.5996 0.0000 ( 25050 PWs)   bands (ev):

   -34.8577 -34.8575 -34.8556 -34.8555 -34.8217 -34.8216 -34.8131 -34.8129
   -34.8011 -34.8010 -34.7309 -34.7297 -34.7127 -34.6903 -34.6876 -27.6847
   -27.6845 -27.6829 -27.6828 -27.6772 -27.6764 -27.6745 -27.6740 -27.6692
   -27.6688  -8.8770  -8.8196  -8.7978  -7.5121  -7.3840  -2.7520  -2.2301
    -2.0378  -1.5017  -1.0195  -0.7100   0.3450   0.9611   1.1502   3.1866
     3.3987   3.7863   4.8989   5.1322   5.6846   6.4629   7.6759   8.4609
     8.5125   8.8062   8.9178   9.1327   9.4984   9.5951   9.7870  10.1050
    10.3975  10.5370  10.6434  11.0429

     occupation numbers 
     1.0000   1.0000   1.0000   1.0000   1.0000   1.0000   1.0000   1.0000
     1.0000   1.0000   1.0000   1.0000   1.0000   1.0000   1.0000   1.0000
     1.0000   1.0000   1.0000   1.0000   1.0000   1.0000   1.0000   1.0000
     1.0000   1.0000   1.0000   1.0000   1.0000   1.0000   1.0000   1.0000
     1.0000   1.0000   1.0000   1.0000   1.0000   1.0000   1.0000   0.0000
     0.0000   0.0000   0.0000   0.0000   0.0000   0.0000   0.0000   0.0000
     0.0000   0.0000   0.0000   0.0000   0.0000   0.0000   0.0000   0.0000
     0.0000   0.0000   0.0000   0.0000

          k = 0.2308 0.6928 0.0000 ( 25012 PWs)   bands (ev):

[...]

   -35.8057 -35.8056 -35.7918 -35.7917 -35.7554 -35.7554 -35.7498 -35.7495
   -35.7281 -35.7279 -35.3836 -35.3732 -35.3675 -35.3388 -35.3312 -28.7615
   -28.7601 -28.7528 -28.7522 -28.7482 -28.7479 -28.7292 -28.7287 -28.7174
   -28.7169 -10.7531 -10.6380 -10.3762  -8.9063  -8.3094  -4.1353  -2.7214
    -2.4887  -2.3987  -1.7011  -1.2472   0.1572   0.3132   0.6596   2.9558
     3.6050   3.7168   5.2885   5.4065   6.1146   6.2957   7.7328   8.4623
     8.7892   9.0375   9.2966   9.5139  10.0558  10.1839  10.6344  11.1668
    11.2545  11.7235  12.0351  12.0883

     occupation numbers 
     1.0000   1.0000   1.0000   1.0000   1.0000   1.0000   1.0000   1.0000
     1.0000   1.0000   1.0000   1.0000   1.0000   1.0000   1.0000   1.0000
     1.0000   1.0000   1.0000   1.0000   1.0000   1.0000   1.0000   1.0000
     1.0000   1.0000   1.0000   1.0000   1.0000   1.0000   1.0000   1.0000
     1.0000   1.0000   1.0000   1.0000   1.0000   1.0000   1.0000   0.0000
     0.0000   0.0000   0.0000   0.0000   0.0000   0.0000   0.0000   0.0000
     0.0000   0.0000   0.0000   0.0000   0.0000   0.0000   0.0000   0.0000
     0.0000   0.0000   0.0000   0.0000

          k = 0.4615 0.3597 0.0000 ( 24982 PWs)   bands (ev):

   -35.8033 -35.8032 -35.7906 -35.7905 -35.7554 -35.7553 -35.7485 -35.7483
   -35.7280 -35.7278 -35.3814 -35.3747 -35.3702 -35.3344 -35.3285 -28.7611
   -28.7599 -28.7518 -28.7511 -28.7457 -28.7454 -28.7303 -28.7298 -28.7199
   -28.7194 -10.6241 -10.5811 -10.4103  -8.9482  -8.3945  -4.1211  -2.7561
    -2.7039  -2.4204  -1.8005  -1.2877   0.1574   0.2352   0.8288   3.2469
     3.3903   3.7322   5.3216   5.5228   6.2630   6.3023   7.8264   8.6639
     8.8604   8.9551   9.1580   9.7320   9.8409  10.1810  10.6020  10.9379
    11.1319  11.4585  11.9969  12.0711

     occupation numbers 
     1.0000   1.0000   1.0000   1.0000   1.0000   1.0000   1.0000   1.0000
     1.0000   1.0000   1.0000   1.0000   1.0000   1.0000   1.0000   1.0000
     1.0000   1.0000   1.0000   1.0000   1.0000   1.0000   1.0000   1.0000
     1.0000   1.0000   1.0000   1.0000   1.0000   1.0000   1.0000   1.0000
     1.0000   1.0000   1.0000   1.0000   1.0000   1.0000   1.0000   0.0000
     0.0000   0.0000   0.0000   0.0000   0.0000   0.0000   0.0000   0.0000
     0.0000   0.0000   0.0000   0.0000   0.0000   0.0000   0.0000   0.0000
     0.0000   0.0000   0.0000   0.0000

          k = 0.4615 0.4530 0.0000 ( 24972 PWs)   bands (ev):

   -35.8016 -35.8014 -35.7914 -35.7913 -35.7529 -35.7528 -35.7486 -35.7483
   -35.7261 -35.7260 -35.3818 -35.3796 -35.3748 -35.3336 -35.3295 -28.7560
   -28.7549 -28.7500 -28.7493 -28.7378 -28.7376 -28.7295 -28.7291 -28.7207
   -28.7202 -10.6369 -10.5237 -10.2718  -8.9265  -8.5233  -3.9914  -3.0847
    -2.9025  -2.4129  -1.8141  -1.6236   0.1164   0.3873   0.9932   3.2462
     3.6890   3.7820   5.2459   5.7756   6.2144   6.8174   8.0138   8.5415
     8.8352   9.1213   9.2751   9.5376   9.8835  10.1283  10.4735  10.5199
    10.7110  11.0834  11.3135  11.9351

     occupation numbers 
     1.0000   1.0000   1.0000   1.0000   1.0000   1.0000   1.0000   1.0000
     1.0000   1.0000   1.0000   1.0000   1.0000   1.0000   1.0000   1.0000
     1.0000   1.0000   1.0000   1.0000   1.0000   1.0000   1.0000   1.0000
     1.0000   1.0000   1.0000   1.0000   1.0000   1.0000   1.0000   1.0000
     1.0000   1.0000   1.0000   1.0000   1.0000   1.0000   1.0000   0.0000
     0.0000   0.0000   0.0000   0.0000   0.0000   0.0000   0.0000   0.0000
     0.0000   0.0000   0.0000   0.0000   0.0000   0.0000   0.0000   0.0000
     0.0000   0.0000   0.0000   0.0000

          k = 0.4615 0.5463 0.0000 ( 24969 PWs)   bands (ev):

   -35.7976 -35.7975 -35.7841 -35.7840 -35.7533 -35.7533 -35.7459 -35.7457
   -35.7262 -35.7261 -35.3804 -35.3749 -35.3712 -35.3316 -35.3280 -28.7546
   -28.7536 -28.7508 -28.7505 -28.7345 -28.7342 -28.7292 -28.7288 -28.7244
   -28.7239 -10.6588 -10.4781 -10.1230  -8.8518  -8.6728  -3.7805  -3.4831
    -2.9065  -2.4342  -2.1339  -1.6132   0.0769   0.6308   0.8372   3.4589
     3.6323   3.8387   5.4437   5.8667   6.0668   7.6266   8.2640   8.3248
     8.6171   8.9431   9.1638   9.4497   9.8671  10.1043  10.3158  10.4119
    10.5844  11.0005  11.2151  11.5893

     occupation numbers 
     1.0000   1.0000   1.0000   1.0000   1.0000   1.0000   1.0000   1.0000
     1.0000   1.0000   1.0000   1.0000   1.0000   1.0000   1.0000   1.0000
     1.0000   1.0000   1.0000   1.0000   1.0000   1.0000   1.0000   1.0000
     1.0000   1.0000   1.0000   1.0000   1.0000   1.0000   1.0000   1.0000
     1.0000   1.0000   1.0000   1.0000   1.0000   1.0000   1.0000   0.0000
     0.0000   0.0000   0.0000   0.0000   0.0000   0.0000   0.0000   0.0000
     0.0000   0.0000   0.0000   0.0000   0.0000   0.0000   0.0000   0.0000
     0.0000   0.0000   0.0000   0.0000

          k = 0.4615 0.6395 0.0000 ( 24963 PWs)   bands (ev):

   -35.7964 -35.7962 -35.7850 -35.7849 -35.7558 -35.7557 -35.7428 -35.7427
   -35.7253 -35.7252 -35.3821 -35.3754 -35.3689 -35.3315 -35.3287 -28.7564
   -28.7553 -28.7495 -28.7489 -28.7351 -28.7348 -28.7284 -28.7279 -28.7255
   -28.7251 -10.6420 -10.4543 -10.0996  -8.8290  -8.7002  -3.7977  -3.4822
    -2.9255  -2.4679  -2.1475  -1.5920   0.0308   0.6094   0.7948   3.2923
     3.6494   3.8734   5.3477   5.7955   6.1114   7.4281   8.2636   8.4209
     8.7928   8.9117   9.3195   9.4659  10.0118  10.0705  10.2736  10.4100
    10.6617  11.1008  11.2192  11.4594

     occupation numbers 
     1.0000   1.0000   1.0000   1.0000   1.0000   1.0000   1.0000   1.0000
     1.0000   1.0000   1.0000   1.0000   1.0000   1.0000   1.0000   1.0000
     1.0000   1.0000   1.0000   1.0000   1.0000   1.0000   1.0000   1.0000
     1.0000   1.0000   1.0000   1.0000   1.0000   1.0000   1.0000   1.0000
     1.0000   1.0000   1.0000   1.0000   1.0000   1.0000   1.0000   0.0000
     0.0000   0.0000   0.0000   0.0000   0.0000   0.0000   0.0000   0.0000
     0.0000   0.0000   0.0000   0.0000   0.0000   0.0000   0.0000   0.0000
     0.0000   0.0000   0.0000   0.0000

          k = 0.4615 0.7328 0.0000 ( 24939 PWs)   bands (ev):

   -35.7976 -35.7974 -35.7906 -35.7905 -35.7568 -35.7567 -35.7432 -35.7431
   -35.7245 -35.7244 -35.3868 -35.3787 -35.3667 -35.3314 -35.3284 -28.7598
   -28.7586 -28.7481 -28.7475 -28.7391 -28.7388 -28.7297 -28.7295 -28.7237
   -28.7234 -10.5840 -10.4572 -10.2159  -8.9063  -8.5490  -4.0091  -3.0856
    -2.9971  -2.4639  -1.7639  -1.7193   0.0332   0.3265   0.8400   3.0665
     3.5794   3.7115   5.1784   5.6233   6.1963   6.7010   8.0363   8.5815
     8.8721   9.2644   9.4730   9.5800  10.0649  10.2043  10.4563  10.6703
    10.7894  11.1510  11.3063  11.9144

     occupation numbers 
     1.0000   1.0000   1.0000   1.0000   1.0000   1.0000   1.0000   1.0000
     1.0000   1.0000   1.0000   1.0000   1.0000   1.0000   1.0000   1.0000
     1.0000   1.0000   1.0000   1.0000   1.0000   1.0000   1.0000   1.0000
     1.0000   1.0000   1.0000   1.0000   1.0000   1.0000   1.0000   1.0000
     1.0000   1.0000   1.0000   1.0000   1.0000   1.0000   1.0000   0.0000
     0.0000   0.0000   0.0000   0.0000   0.0000   0.0000   0.0000   0.0000
     0.0000   0.0000   0.0000   0.0000   0.0000   0.0000   0.0000   0.0000
     0.0000   0.0000   0.0000   0.0000

          k = 0.4615 0.8261 0.0000 ( 24998 PWs)   bands (ev):

   -35.7974 -35.7972 -35.7877 -35.7875 -35.7578 -35.7577 -35.7448 -35.7446
   -35.7271 -35.7270 -35.3878 -35.3760 -35.3590 -35.3304 -35.3242 -28.7645
   -28.7633 -28.7496 -28.7490 -28.7457 -28.7454 -28.7323 -28.7321 -28.7216
   -28.7215 -10.5287 -10.4884 -10.3618  -8.9261  -8.4066  -4.1335  -2.8799
    -2.6557  -2.5188  -1.9131  -1.3323   0.0490   0.1336   0.6336   3.0063
     3.2387   3.6750   5.2684   5.3123   6.2215   6.2463   7.8913   8.7668
     8.9611   9.0223   9.2546   9.8168   9.9415  10.1825  10.6926  10.8173
    11.2644  11.6497  11.8451  12.0281

     occupation numbers 
     1.0000   1.0000   1.0000   1.0000   1.0000   1.0000   1.0000   1.0000
     1.0000   1.0000   1.0000   1.0000   1.0000   1.0000   1.0000   1.0000
     1.0000   1.0000   1.0000   1.0000   1.0000   1.0000   1.0000   1.0000
     1.0000   1.0000   1.0000   1.0000   1.0000   1.0000   1.0000   1.0000
     1.0000   1.0000   1.0000   1.0000   1.0000   1.0000   1.0000   0.0000
     0.0000   0.0000   0.0000   0.0000   0.0000   0.0000   0.0000   0.0000
     0.0000   0.0000   0.0000   0.0000   0.0000   0.0000   0.0000   0.0000
     0.0000   0.0000   0.0000   0.0000

          k = 0.4615-0.2931 0.0000 ( 24997 PWs)   bands (ev):

   -35.7994 -35.7992 -35.7894 -35.7892 -35.7594 -35.7593 -35.7441 -35.7440
   -35.7264 -35.7263 -35.3903 -35.3766 -35.3567 -35.3343 -35.3252 -28.7645
   -28.7632 -28.7505 -28.7500 -28.7472 -28.7469 -28.7314 -28.7312 -28.7190
   -28.7188 -10.6685 -10.5448 -10.3135  -8.8769  -8.3122  -4.1437  -2.7274
    -2.6554  -2.3671  -1.9414  -1.2473   0.0644   0.1424   0.4954   2.7165
     3.4478   3.6746   5.0497   5.3624   6.0805   6.2640   7.8159   8.5556
     8.8663   9.1482   9.3966   9.5859  10.1367  10.2366  10.7031  11.0848
    11.3189  11.6795  11.8744  12.1015

     occupation numbers 
     1.0000   1.0000   1.0000   1.0000   1.0000   1.0000   1.0000   1.0000
     1.0000   1.0000   1.0000   1.0000   1.0000   1.0000   1.0000   1.0000
     1.0000   1.0000   1.0000   1.0000   1.0000   1.0000   1.0000   1.0000
     1.0000   1.0000   1.0000   1.0000   1.0000   1.0000   1.0000   1.0000
     1.0000   1.0000   1.0000   1.0000   1.0000   1.0000   1.0000   0.0000
     0.0000   0.0000   0.0000   0.0000   0.0000   0.0000   0.0000   0.0000
     0.0000   0.0000   0.0000   0.0000   0.0000   0.0000   0.0000   0.0000
     0.0000   0.0000   0.0000   0.0000

          k = 0.4615-0.1999 0.0000 ( 24964 PWs)   bands (ev):

   -35.7987 -35.7985 -35.7893 -35.7892 -35.7565 -35.7564 -35.7472 -35.7471
   -35.7271 -35.7269 -35.3862 -35.3747 -35.3609 -35.3328 -35.3267 -28.7651
   -28.7638 -28.7506 -28.7499 -28.7455 -28.7451 -28.7334 -28.7333 -28.7229
   -28.7226 -10.8374 -10.6141 -10.2010  -8.7741  -8.2927  -4.0364  -2.7890
    -2.6969  -2.4611  -1.7864  -1.3232  -0.0306   0.2480   0.6998   3.0661
     3.1860   3.7438   5.1950   5.3276   6.1374   6.4081   7.8022   8.2780
     8.6900   9.2257   9.5337   9.5967  10.0920  10.4168  10.7508  10.8463
    11.3462  11.3817  11.6279  11.8380

     occupation numbers 
     1.0000   1.0000   1.0000   1.0000   1.0000   1.0000   1.0000   1.0000
     1.0000   1.0000   1.0000   1.0000   1.0000   1.0000   1.0000   1.0000
     1.0000   1.0000   1.0000   1.0000   1.0000   1.0000   1.0000   1.0000
     1.0000   1.0000   1.0000   1.0000   1.0000   1.0000   1.0000   1.0000
     1.0000   1.0000   1.0000   1.0000   1.0000   1.0000   1.0000   0.0000
     0.0000   0.0000   0.0000   0.0000   0.0000   0.0000   0.0000   0.0000
     0.0000   0.0000   0.0000   0.0000   0.0000   0.0000   0.0000   0.0000
     0.0000   0.0000   0.0000   0.0000

          k = 0.4615-0.1066 0.0000 ( 24940 PWs)   bands (ev):

   -35.8001 -35.7999 -35.7928 -35.7927 -35.7584 -35.7583 -35.7455 -35.7455
   -35.7263 -35.7262 -35.3869 -35.3794 -35.3721 -35.3356 -35.3327 -28.7599
   -28.7588 -28.7490 -28.7483 -28.7386 -28.7383 -28.7299 -28.7297 -28.7244
   -28.7241 -10.9572 -10.6709 -10.1358  -8.6424  -8.3330  -3.8246  -3.1190
    -2.6716  -2.5113  -1.7642  -1.4948   0.0756   0.4062   0.9102   3.0055
     3.6099   3.8486   5.0233   5.6111   6.1218   6.8566   7.8946   8.0792
     8.6290   8.9032   9.1738   9.5534   9.9507  10.1936  10.6269  10.8503
    11.2518  11.2865  11.5104  11.7499

     occupation numbers 
     1.0000   1.0000   1.0000   1.0000   1.0000   1.0000   1.0000   1.0000
     1.0000   1.0000   1.0000   1.0000   1.0000   1.0000   1.0000   1.0000
     1.0000   1.0000   1.0000   1.0000   1.0000   1.0000   1.0000   1.0000
     1.0000   1.0000   1.0000   1.0000   1.0000   1.0000   1.0000   1.0000
     1.0000   1.0000   1.0000   1.0000   1.0000   1.0000   1.0000   0.0000
     0.0000   0.0000   0.0000   0.0000   0.0000   0.0000   0.0000   0.0000
     0.0000   0.0000   0.0000   0.0000   0.0000   0.0000   0.0000   0.0000
     0.0000   0.0000   0.0000   0.0000

          k = 0.4615-0.0133 0.0000 ( 24971 PWs)   bands (ev):

   -35.8017 -35.8015 -35.7867 -35.7866 -35.7554 -35.7553 -35.7469 -35.7468
   -35.7261 -35.7259 -35.3847 -35.3782 -35.3746 -35.3338 -35.3305 -28.7586
   -28.7577 -28.7512 -28.7509 -28.7366 -28.7363 -28.7308 -28.7303 -28.7265
   -28.7262 -11.0048 -10.7002 -10.1186  -8.5808  -8.3722  -3.5649  -3.4665
    -2.6355  -2.2475  -2.1609  -1.4455   0.2476   0.6858   0.7326   3.3736
     3.5092   3.8705   5.1824   5.7370   5.9964   7.5490   7.7624   8.0564
     8.1121   8.7560   9.0085   9.2400   9.9011  10.0791  10.7225  10.8256
    11.1467  11.2401  11.5739  11.7762

     occupation numbers 
     1.0000   1.0000   1.0000   1.0000   1.0000   1.0000   1.0000   1.0000
     1.0000   1.0000   1.0000   1.0000   1.0000   1.0000   1.0000   1.0000
     1.0000   1.0000   1.0000   1.0000   1.0000   1.0000   1.0000   1.0000
     1.0000   1.0000   1.0000   1.0000   1.0000   1.0000   1.0000   1.0000
     1.0000   1.0000   1.0000   1.0000   1.0000   1.0000   1.0000   0.0000
     0.0000   0.0000   0.0000   0.0000   0.0000   0.0000   0.0000   0.0000
     0.0000   0.0000   0.0000   0.0000   0.0000   0.0000   0.0000   0.0000
     0.0000   0.0000   0.0000   0.0000

          k = 0.4615 0.0799 0.0000 ( 24968 PWs)   bands (ev):

   -35.8034 -35.8033 -35.7932 -35.7931 -35.7542 -35.7541 -35.7512 -35.7510
   -35.7278 -35.7277 -35.3846 -35.3800 -35.3787 -35.3367 -35.3329 -28.7571
   -28.7561 -28.7509 -28.7504 -28.7383 -28.7381 -28.7297 -28.7292 -28.7218
   -28.7213 -10.9868 -10.7095 -10.1746  -8.6763  -8.3191  -3.8263  -3.0939
    -2.6100  -2.4769  -1.7790  -1.4318   0.1443   0.4438   1.0304   3.1754
     3.7018   3.8398   5.0660   5.7431   6.0766   6.9387   7.8642   8.0395
     8.6090   8.7168   9.0970   9.3867   9.8749  10.1617  10.5422  10.8039
    11.1124  11.2694  11.5688  11.6565

     occupation numbers 
     1.0000   1.0000   1.0000   1.0000   1.0000   1.0000   1.0000   1.0000
     1.0000   1.0000   1.0000   1.0000   1.0000   1.0000   1.0000   1.0000
     1.0000   1.0000   1.0000   1.0000   1.0000   1.0000   1.0000   1.0000
     1.0000   1.0000   1.0000   1.0000   1.0000   1.0000   1.0000   1.0000
     1.0000   1.0000   1.0000   1.0000   1.0000   1.0000   1.0000   0.0000
     0.0000   0.0000   0.0000   0.0000   0.0000   0.0000   0.0000   0.0000
     0.0000   0.0000   0.0000   0.0000   0.0000   0.0000   0.0000   0.0000
     0.0000   0.0000   0.0000   0.0000

          k = 0.4615 0.1732 0.0000 ( 24992 PWs)   bands (ev):

   -35.8047 -35.8045 -35.7923 -35.7922 -35.7553 -35.7553 -35.7499 -35.7498
   -35.7281 -35.7279 -35.3801 -35.3744 -35.3726 -35.3367 -35.3308 -28.7618
   -28.7606 -28.7526 -28.7518 -28.7459 -28.7456 -28.7310 -28.7305 -28.7206
   -28.7201 -10.8968 -10.6871 -10.2649  -8.8093  -8.2872  -4.0320  -2.7935
    -2.6010  -2.3644  -1.7194  -1.2621   0.0914   0.3190   0.8891   3.3017
     3.3284   3.7652   5.2441   5.5043   6.1576   6.4317   7.7318   8.2132
     8.6496   9.1298   9.3852   9.4538  10.0623  10.2264  10.6760  10.6916
    11.1604  11.4267  11.7376  11.9348

     occupation numbers 
     1.0000   1.0000   1.0000   1.0000   1.0000   1.0000   1.0000   1.0000
     1.0000   1.0000   1.0000   1.0000   1.0000   1.0000   1.0000   1.0000
     1.0000   1.0000   1.0000   1.0000   1.0000   1.0000   1.0000   1.0000
     1.0000   1.0000   1.0000   1.0000   1.0000   1.0000   1.0000   1.0000
     1.0000   1.0000   1.0000   1.0000   1.0000   1.0000   1.0000   0.0000
     0.0000   0.0000   0.0000   0.0000   0.0000   0.0000   0.0000   0.0000
     0.0000   0.0000   0.0000   0.0000   0.0000   0.0000   0.0000   0.0000
     0.0000   0.0000   0.0000   0.0000

     highest occupied, lowest unoccupied level (ev):     1.1656    2.1128

!    total energy              =    -804.24004399 Ry
     estimated scf accuracy    <       0.00000018 Ry

     convergence has been achieved in   4 iterations

     Using ACE for calculation of exact exchange
     ACE projected onto    60 (nbndproj) and applied to    60 (nbnd) bands
     BEWARE: negative dexx:  -0.721E-07

!!   total energy              =    -804.24004392 Ry
     Harris-Foulkes estimate   =    -804.24004406 Ry
     est. exchange err (dexx)  =       0.00000007 Ry
     - averaged Fock potential =      27.28994316 Ry
     + Fock energy (ACE)       =     -13.64495452 Ry

     EXX self-consistency reached

     Writing all to output data dir tmp/Sb2Te3-uatsx-c1-5.0.save/ :
     XML data file, charge density, pseudopotentials, collected wavefunctions

     init_run     :      3.65s CPU      3.87s WALL (       1 calls)
     electrons    :    608.22s CPU    616.51s WALL (       5 calls)

     Called by init_run:
     aceinit0     :      0.00s CPU      0.00s WALL (       1 calls)
     wfcinit      :      3.29s CPU      3.36s WALL (       1 calls)
     wfcinit:wfcr :      3.17s CPU      3.23s WALL (      85 calls)
     potinit      :      0.02s CPU      0.02s WALL (       1 calls)
     hinit0       :      0.31s CPU      0.44s WALL (       1 calls)

     Called by electrons:
     c_bands      :    562.34s CPU    569.29s WALL (      33 calls)
     sum_band     :     45.05s CPU     45.81s WALL (      33 calls)
     v_of_rho     :      0.56s CPU      0.57s WALL (      34 calls)
     v_h          :      0.06s CPU      0.06s WALL (      34 calls)
     v_xc         :      0.50s CPU      0.52s WALL (      34 calls)
     mix_rho      :      0.08s CPU      0.08s WALL (      33 calls)
     energy_londo :      0.05s CPU      0.05s WALL (       5 calls)

     Called by c_bands:
     init_us_2    :      1.86s CPU      1.92s WALL (    5695 calls)
     cegterg      :    556.41s CPU    563.12s WALL (    2805 calls)

     Called by sum_band:
     sum_band:wei :      0.00s CPU      0.00s WALL (      33 calls)
     sum_band:loo :     44.95s CPU     45.71s WALL (      33 calls)
     sum_band:buf :      0.60s CPU      0.62s WALL (    2805 calls)
     sum_band:ini :      0.97s CPU      0.99s WALL (    2805 calls)

     Called by *egterg:
     cdiaghg      :    145.34s CPU    146.03s WALL (   29270 calls)
     cegterg:over :     33.27s CPU     33.57s WALL (   26890 calls)
     cegterg:upda :      9.75s CPU      9.86s WALL (   26890 calls)
     cegterg:last :     10.57s CPU     10.66s WALL (    8086 calls)
     h_psi        :    342.09s CPU    347.62s WALL (   29780 calls)
     g_psi        :      1.70s CPU      1.71s WALL (   26890 calls)

     Called by h_psi:
     h_psi:calbec :     23.03s CPU     23.30s WALL (   29780 calls)
     vloc_psi     :    298.72s CPU    303.75s WALL (   29780 calls)
     add_vuspsi   :      6.75s CPU      6.84s WALL (   29780 calls)

     General routines
     calbec       :     34.38s CPU     34.82s WALL (   51855 calls)
     fft          :      0.85s CPU      1.00s WALL (     334 calls)
     ffts         :      0.05s CPU      0.05s WALL (      33 calls)
     fftw         :    325.36s CPU    330.76s WALL ( 1321760 calls)
     fftc         :   4963.67s CPU   4992.43s WALL ( 3060000 calls)
     fftcw        :     19.98s CPU     20.31s WALL (   76500 calls)

     Parallel routines

     EXX routines
     exx_grid     :      0.00s CPU      0.00s WALL (       1 calls)
     exxinit      :    109.84s CPU    110.87s WALL (       5 calls)
     vexx         :   5218.56s CPU   5249.35s WALL (     425 calls)
     matcalc      :     11.54s CPU     11.67s WALL (   22075 calls)
     aceupdate    :      0.15s CPU      0.15s WALL (     425 calls)
     vexxace      :     14.52s CPU     14.69s WALL (   20885 calls)
     aceinit      :   5219.29s CPU   5250.10s WALL (     425 calls)

     PWSCF        :      1h39m CPU      1h40m WALL


   This run was terminated on:   3:52:15  15May2025            

=------------------------------------------------------------------------------=
   JOB DONE.
=------------------------------------------------------------------------------=
