
     Program PWSCF v.7.3.1 starts on 14May2025 at 15:19:18 

     This program is part of the open-source Quantum ESPRESSO suite
     for quantum simulation of materials; please cite
         "P. Giannozzi et al., J. Phys.:Condens. Matter 21 395502 (2009);
         "P. Giannozzi et al., J. Phys.:Condens. Matter 29 465901 (2017);
         "P. Giannozzi et al., J. Chem. Phys. 152 154105 (2020);
          URL http://www.quantum-espresso.org", 
     in publications or presentations arising from this work. More details at
     http://www.quantum-espresso.org/quote

     Parallel version (MPI & OpenMP), running on      72 processor cores
     Number of MPI processes:                72
     Threads/MPI process:                     1

     MPI processes distributed on     3 nodes
     110586 MiB available memory on the printing compute node when the environment starts

     Waiting for input...
     Reading input from standard input

     Current dimensions of program PWSCF are:
     Max number of different atomic species (ntypx) = 10
     Max number of k-points (npk) =  40000
     Max angular momentum in pseudopotentials (lmaxx) =  4

     IMPORTANT: XC functional enforced from input :
     Exchange-correlation= B3LYP-V1R
                           (   7  13   9   7   0   0   0)
     EXX-fraction              =        0.20
     Any further DFT definition will be discarded
     Please, verify this is what you really want

     EXX fraction changed:   0.20

     R & G space division:  proc/nbgrp/npool/nimage =      72
     Subspace diagonalization in iterative solution of the eigenvalue problem:
     a serial algorithm will be used

     EXX: q-point mesh:     1    1    1
     EXX: setup a grid of 85 q-points centered on each k-point
     (k+q)-points:
   0.0000000   0.0000000   0.0000000         1    1
   0.0000000   0.0887897   0.0000000         2    1
   0.0000000   0.1775795   0.0000000         3    1
   0.0000000   0.2663692   0.0000000         4    1
   0.0000000   0.3551590   0.0000000         5    1
   0.0000000   0.4439487   0.0000000         6    1
   0.0000000   0.5327385   0.0000000         7    1
   0.0769231   0.0443949   0.0000000         8    1
   0.0769231   0.1331846   0.0000000         9    1
   0.0769231   0.2219744   0.0000000        10    1
   0.0769231   0.3107641   0.0000000        11    1
   0.0769231   0.3995538   0.0000000        12    1
   0.0769231   0.4883436   0.0000000        13    1
   0.0769231   0.5771333   0.0000000        14    1
   0.1538462   0.0887897   0.0000000        15    1
   0.1538462   0.1775795   0.0000000        16    1
   0.1538462   0.2663692   0.0000000        17    1
   0.1538462   0.3551590   0.0000000        18    1
   0.1538462   0.4439487   0.0000000        19    1
   0.1538462   0.5327385   0.0000000        20    1
   0.1538462  -0.0000000   0.0000000        21    1
   0.2307692   0.1331846   0.0000000        22    1
   0.2307692   0.2219744   0.0000000        23    1
   0.2307692   0.3107641   0.0000000        24    1
   0.2307692   0.3995538   0.0000000        25    1
   0.2307692   0.4883436   0.0000000        26    1
   0.2307692   0.5771333   0.0000000        27    1
   0.2307692  -0.0443949   0.0000000        28    1
   0.3076923   0.1775795   0.0000000        29    1
   0.3076923   0.2663692   0.0000000        30    1
   0.3076923   0.3551590   0.0000000        31    1
   0.3076923   0.4439487   0.0000000        32    1
   0.3076923   0.5327385   0.0000000        33    1
   0.3076923  -0.0887897   0.0000000        34    1
   0.3076923  -0.0000000   0.0000000        35    1
   0.3846154   0.2219744   0.0000000        36    1
   0.3846154   0.3107641   0.0000000        37    1
   0.3846154   0.3995538   0.0000000        38    1
   0.3846154   0.4883436   0.0000000        39    1
   0.3846154   0.5771333   0.0000000        40    1
   0.3846154  -0.1331846   0.0000000        41    1
   0.3846154  -0.0443949   0.0000000        42    1
   0.4615385   0.2663692   0.0000000        43    1
   0.4615385   0.3551590   0.0000000        44    1
   0.4615385   0.4439487   0.0000000        45    1
   0.4615385   0.5327385   0.0000000        46    1
   0.4615385  -0.1775795   0.0000000        47    1
   0.4615385  -0.0887897   0.0000000        48    1
   0.4615385  -0.0000000   0.0000000        49    1
  -0.0769231   0.0443949   0.0000000        50    1
  -0.0769231   0.1331846   0.0000000        51    1
  -0.0769231   0.2219744   0.0000000        52    1
  -0.0769231   0.3107641   0.0000000        53    1
  -0.0769231   0.3995538   0.0000000        54    1
  -0.0769231   0.4883436   0.0000000        55    1
  -0.1538462   0.0887897   0.0000000        56    1
  -0.1538462   0.1775795   0.0000000        57    1
  -0.1538462   0.2663692   0.0000000        58    1
  -0.1538462   0.3551590   0.0000000        59    1
  -0.1538462   0.4439487   0.0000000        60    1
  -0.1538462   0.5327385   0.0000000        61    1
  -0.2307692   0.1331846   0.0000000        62    1
  -0.2307692   0.2219744   0.0000000        63    1
  -0.2307692   0.3107641   0.0000000        64    1
  -0.2307692   0.3995538   0.0000000        65    1
  -0.2307692   0.4883436   0.0000000        66    1
  -0.2307692  -0.0443949   0.0000000        67    1
  -0.3076923   0.1775795   0.0000000        68    1
  -0.3076923   0.2663692   0.0000000        69    1
  -0.3076923   0.3551590   0.0000000        70    1
  -0.3076923   0.4439487   0.0000000        71    1
  -0.3076923   0.5327385   0.0000000        72    1
  -0.3076923  -0.0887897   0.0000000        73    1
  -0.3846154   0.2219744   0.0000000        74    1
  -0.3846154   0.3107641   0.0000000        75    1
  -0.3846154   0.3995538   0.0000000        76    1
  -0.3846154   0.4883436   0.0000000        77    1
  -0.3846154  -0.1331846   0.0000000        78    1
  -0.3846154  -0.0443949   0.0000000        79    1
  -0.4615385   0.2663692   0.0000000        80    1
  -0.4615385   0.3551590   0.0000000        81    1
  -0.4615385   0.4439487   0.0000000        82    1
  -0.4615385   0.5327385   0.0000000        83    1
  -0.4615385  -0.1775795   0.0000000        84    1
  -0.4615385  -0.0887897   0.0000000        85    1

     Parallelization info
     --------------------
     sticks:   dense  smooth     PW     G-vecs:    dense   smooth      PW
     Min          17      17      5                 2625     2625     387
     Max          18      18      6                 2664     2664     413
     Sum        1285    1285    367               190727   190727   28809

     Using Slab Decomposition



     bravais-lattice index     =            0
     lattice parameter (alat)  =       8.1456  a.u.
     unit-cell volume          =    2407.5243 (a.u.)^3
     number of atoms/cell      =            5
     number of atomic types    =            2
     number of electrons       =        78.00
     number of Kohn-Sham states=           60
     kinetic-energy cutoff     =      70.0000  Ry
     charge density cutoff     =     280.0000  Ry
     cutoff for Fock operator  =     280.0000  Ry
     scf convergence threshold =      1.0E-06
     mixing beta               =       0.7000
     number of iterations used =            8  plain     mixing
     Exchange-correlation= B3LYP-V1R
                           (   7  13   9   7   0   0   0)
     EXX-fraction              =        0.20

     celldm(1)=   8.145633  celldm(2)=   0.000000  celldm(3)=   0.000000
     celldm(4)=   0.000000  celldm(5)=   0.000000  celldm(6)=   0.000000

     crystal axes: (cart. coord. in units of alat)
               a(1) = (   1.000000   0.000000   0.000000 )  
               a(2) = (  -0.500000   0.866351   0.000000 )  
               a(3) = (   0.000000   0.000000   5.141647 )  

     reciprocal axes: (cart. coord. in units 2 pi/alat)
               b(1) = (  1.000000  0.577133 -0.000000 )  
               b(2) = (  0.000000  1.154267  0.000000 )  
               b(3) = (  0.000000 -0.000000  0.194490 )  


     PseudoPot. # 1 for Sb read from file:
     /zfs-home/202401017n/pseudos/Sb_ONCV_PBE-1.2.upf
     MD5 check sum: 0417cd6c0fe8ce4611e2b23135f1abd9
     Pseudo is Norm-conserving, Zval = 15.0
     Generated using ONCVPSP code by D. R. Hamann
     Using radial grid of  602 points,  6 beta functions with: 
                l(1) =   0
                l(2) =   0
                l(3) =   1
                l(4) =   1
                l(5) =   2
                l(6) =   2

     PseudoPot. # 2 for Te read from file:
     /zfs-home/202401017n/pseudos/Te_ONCV_PBE-1.2.upf
     MD5 check sum: dd4de4dac1e38587f63aaf3700bb29d3
     Pseudo is Norm-conserving, Zval = 16.0
     Generated using ONCVPSP code by D. R. Hamann
     Using radial grid of  602 points,  6 beta functions with: 
                l(1) =   0
                l(2) =   0
                l(3) =   1
                l(4) =   1
                l(5) =   2
                l(6) =   2

     atomic species   valence    mass     pseudopotential
     Sb               15.00   121.76000     Sb( 1.00)
     Te               16.00   127.60000     Te( 1.00)

     No symmetry found


                                    s                        frac. trans.

      isym =  1     identity                                     

 cryst.   s( 1) = (     1          0          0      )
                  (     0          1          0      )
                  (     0          0          1      )

 cart.    s( 1) = (  1.0000000  0.0000000  0.0000000 )
                  (  0.0000000  1.0000000  0.0000000 )
                  (  0.0000000  0.0000000  1.0000000 )


   Cartesian axes

     site n.     atom                  positions (alat units)
         1        Sb     tau(   1) = (   0.5750834   0.4224062   3.0359551  )
         2        Te     tau(   2) = (   0.5751339   0.4221290   1.7103276  )
         3        Sb     tau(   3) = (   0.0749290   0.1335764   2.1056524  )
         4        Te     tau(   4) = (   0.0751535   0.1333230   3.4312869  )
         5        Te     tau(   5) = (   0.0751717   0.7108473   2.5707967  )

     -------------------------------------------------
     Parameters for Dispersion (Grimme-D2) Correction:
     -------------------------------------------------
       atom      VdW radius       C_6     

        Sb         3.555       1333.532
        Te         3.575       1101.101

   Crystallographic axes

     site n.     atom                  positions (cryst. coord.)
         1        Sb     tau(   1) = (  0.8188681  0.4875694  0.5904636  )
         2        Te     tau(   2) = (  0.8187586  0.4872494  0.3326420  )
         3        Sb     tau(   3) = (  0.1520204  0.1541827  0.4095288  )
         4        Te     tau(   4) = (  0.1520986  0.1538903  0.6673517  )
         5        Te     tau(   5) = (  0.4854254  0.8205074  0.4999948  )

     number of k points=    85
                       cart. coord. in units 2pi/alat
        k(    1) = (   0.0000000   0.0000000   0.0000000), wk =   0.0118343
        k(    2) = (   0.0000000   0.0887897   0.0000000), wk =   0.0236686
        k(    3) = (   0.0000000   0.1775795   0.0000000), wk =   0.0236686
        k(    4) = (   0.0000000   0.2663692   0.0000000), wk =   0.0236686
        k(    5) = (   0.0000000   0.3551590   0.0000000), wk =   0.0236686
        k(    6) = (   0.0000000   0.4439487   0.0000000), wk =   0.0236686
        k(    7) = (   0.0000000   0.5327385   0.0000000), wk =   0.0236686
        k(    8) = (   0.0769231   0.0443949   0.0000000), wk =   0.0236686
        k(    9) = (   0.0769231   0.1331846   0.0000000), wk =   0.0236686
        k(   10) = (   0.0769231   0.2219744   0.0000000), wk =   0.0236686
        k(   11) = (   0.0769231   0.3107641   0.0000000), wk =   0.0236686
        k(   12) = (   0.0769231   0.3995538   0.0000000), wk =   0.0236686
        k(   13) = (   0.0769231   0.4883436   0.0000000), wk =   0.0236686
        k(   14) = (   0.0769231   0.5771333   0.0000000), wk =   0.0236686
        k(   15) = (   0.1538462   0.0887897   0.0000000), wk =   0.0236686
        k(   16) = (   0.1538462   0.1775795   0.0000000), wk =   0.0236686
        k(   17) = (   0.1538462   0.2663692   0.0000000), wk =   0.0236686
        k(   18) = (   0.1538462   0.3551590   0.0000000), wk =   0.0236686
        k(   19) = (   0.1538462   0.4439487   0.0000000), wk =   0.0236686
        k(   20) = (   0.1538462   0.5327385   0.0000000), wk =   0.0236686
        k(   21) = (   0.1538462  -0.0000000   0.0000000), wk =   0.0236686
        k(   22) = (   0.2307692   0.1331846   0.0000000), wk =   0.0236686
        k(   23) = (   0.2307692   0.2219744   0.0000000), wk =   0.0236686
        k(   24) = (   0.2307692   0.3107641   0.0000000), wk =   0.0236686
        k(   25) = (   0.2307692   0.3995538   0.0000000), wk =   0.0236686
        k(   26) = (   0.2307692   0.4883436   0.0000000), wk =   0.0236686
        k(   27) = (   0.2307692   0.5771333   0.0000000), wk =   0.0236686
        k(   28) = (   0.2307692  -0.0443949   0.0000000), wk =   0.0236686
        k(   29) = (   0.3076923   0.1775795   0.0000000), wk =   0.0236686
        k(   30) = (   0.3076923   0.2663692   0.0000000), wk =   0.0236686
        k(   31) = (   0.3076923   0.3551590   0.0000000), wk =   0.0236686
        k(   32) = (   0.3076923   0.4439487   0.0000000), wk =   0.0236686
        k(   33) = (   0.3076923   0.5327385   0.0000000), wk =   0.0236686
        k(   34) = (   0.3076923  -0.0887897   0.0000000), wk =   0.0236686
        k(   35) = (   0.3076923  -0.0000000   0.0000000), wk =   0.0236686
        k(   36) = (   0.3846154   0.2219744   0.0000000), wk =   0.0236686
        k(   37) = (   0.3846154   0.3107641   0.0000000), wk =   0.0236686
        k(   38) = (   0.3846154   0.3995538   0.0000000), wk =   0.0236686
        k(   39) = (   0.3846154   0.4883436   0.0000000), wk =   0.0236686
        k(   40) = (   0.3846154   0.5771333   0.0000000), wk =   0.0236686
        k(   41) = (   0.3846154  -0.1331846   0.0000000), wk =   0.0236686
        k(   42) = (   0.3846154  -0.0443949   0.0000000), wk =   0.0236686
        k(   43) = (   0.4615385   0.2663692   0.0000000), wk =   0.0236686
        k(   44) = (   0.4615385   0.3551590   0.0000000), wk =   0.0236686
        k(   45) = (   0.4615385   0.4439487   0.0000000), wk =   0.0236686
        k(   46) = (   0.4615385   0.5327385   0.0000000), wk =   0.0236686
        k(   47) = (   0.4615385  -0.1775795   0.0000000), wk =   0.0236686
        k(   48) = (   0.4615385  -0.0887897   0.0000000), wk =   0.0236686
        k(   49) = (   0.4615385  -0.0000000   0.0000000), wk =   0.0236686
        k(   50) = (  -0.0769231   0.0443949   0.0000000), wk =   0.0236686
        k(   51) = (  -0.0769231   0.1331846   0.0000000), wk =   0.0236686
        k(   52) = (  -0.0769231   0.2219744   0.0000000), wk =   0.0236686
        k(   53) = (  -0.0769231   0.3107641   0.0000000), wk =   0.0236686
        k(   54) = (  -0.0769231   0.3995538   0.0000000), wk =   0.0236686
        k(   55) = (  -0.0769231   0.4883436   0.0000000), wk =   0.0236686
        k(   56) = (  -0.1538462   0.0887897   0.0000000), wk =   0.0236686
        k(   57) = (  -0.1538462   0.1775795   0.0000000), wk =   0.0236686
        k(   58) = (  -0.1538462   0.2663692   0.0000000), wk =   0.0236686
        k(   59) = (  -0.1538462   0.3551590   0.0000000), wk =   0.0236686
        k(   60) = (  -0.1538462   0.4439487   0.0000000), wk =   0.0236686
        k(   61) = (  -0.1538462   0.5327385   0.0000000), wk =   0.0236686
        k(   62) = (  -0.2307692   0.1331846   0.0000000), wk =   0.0236686
        k(   63) = (  -0.2307692   0.2219744   0.0000000), wk =   0.0236686
        k(   64) = (  -0.2307692   0.3107641   0.0000000), wk =   0.0236686
        k(   65) = (  -0.2307692   0.3995538   0.0000000), wk =   0.0236686
        k(   66) = (  -0.2307692   0.4883436   0.0000000), wk =   0.0236686
        k(   67) = (  -0.2307692  -0.0443949   0.0000000), wk =   0.0236686
        k(   68) = (  -0.3076923   0.1775795   0.0000000), wk =   0.0236686
        k(   69) = (  -0.3076923   0.2663692   0.0000000), wk =   0.0236686
        k(   70) = (  -0.3076923   0.3551590   0.0000000), wk =   0.0236686
        k(   71) = (  -0.3076923   0.4439487   0.0000000), wk =   0.0236686
        k(   72) = (  -0.3076923   0.5327385   0.0000000), wk =   0.0236686
        k(   73) = (  -0.3076923  -0.0887897   0.0000000), wk =   0.0236686
        k(   74) = (  -0.3846154   0.2219744   0.0000000), wk =   0.0236686
        k(   75) = (  -0.3846154   0.3107641   0.0000000), wk =   0.0236686
        k(   76) = (  -0.3846154   0.3995538   0.0000000), wk =   0.0236686
        k(   77) = (  -0.3846154   0.4883436   0.0000000), wk =   0.0236686
        k(   78) = (  -0.3846154  -0.1331846   0.0000000), wk =   0.0236686
        k(   79) = (  -0.3846154  -0.0443949   0.0000000), wk =   0.0236686
        k(   80) = (  -0.4615385   0.2663692   0.0000000), wk =   0.0236686
        k(   81) = (  -0.4615385   0.3551590   0.0000000), wk =   0.0236686
        k(   82) = (  -0.4615385   0.4439487   0.0000000), wk =   0.0236686
        k(   83) = (  -0.4615385   0.5327385   0.0000000), wk =   0.0236686
        k(   84) = (  -0.4615385  -0.1775795   0.0000000), wk =   0.0236686
        k(   85) = (  -0.4615385  -0.0887897   0.0000000), wk =   0.0236686

                       cryst. coord.
        k(    1) = (   0.0000000   0.0000000   0.0000000), wk =   0.0118343
        k(    2) = (   0.0000000   0.0769231   0.0000000), wk =   0.0236686
        k(    3) = (   0.0000000   0.1538462   0.0000000), wk =   0.0236686
        k(    4) = (   0.0000000   0.2307692   0.0000000), wk =   0.0236686
        k(    5) = (   0.0000000   0.3076923   0.0000000), wk =   0.0236686
        k(    6) = (   0.0000000   0.3846154   0.0000000), wk =   0.0236686
        k(    7) = (   0.0000000   0.4615385   0.0000000), wk =   0.0236686
        k(    8) = (   0.0769231   0.0000000   0.0000000), wk =   0.0236686
        k(    9) = (   0.0769231   0.0769231   0.0000000), wk =   0.0236686
        k(   10) = (   0.0769231   0.1538462   0.0000000), wk =   0.0236686
        k(   11) = (   0.0769231   0.2307692   0.0000000), wk =   0.0236686
        k(   12) = (   0.0769231   0.3076923   0.0000000), wk =   0.0236686
        k(   13) = (   0.0769231   0.3846154   0.0000000), wk =   0.0236686
        k(   14) = (   0.0769231   0.4615385   0.0000000), wk =   0.0236686
        k(   15) = (   0.1538462   0.0000000   0.0000000), wk =   0.0236686
        k(   16) = (   0.1538462   0.0769231   0.0000000), wk =   0.0236686
        k(   17) = (   0.1538462   0.1538462   0.0000000), wk =   0.0236686
        k(   18) = (   0.1538462   0.2307692   0.0000000), wk =   0.0236686
        k(   19) = (   0.1538462   0.3076923   0.0000000), wk =   0.0236686
        k(   20) = (   0.1538462   0.3846154   0.0000000), wk =   0.0236686
        k(   21) = (   0.1538462  -0.0769231   0.0000000), wk =   0.0236686
        k(   22) = (   0.2307692   0.0000000   0.0000000), wk =   0.0236686
        k(   23) = (   0.2307692   0.0769231   0.0000000), wk =   0.0236686
        k(   24) = (   0.2307692   0.1538462   0.0000000), wk =   0.0236686
        k(   25) = (   0.2307692   0.2307692   0.0000000), wk =   0.0236686
        k(   26) = (   0.2307692   0.3076923   0.0000000), wk =   0.0236686
        k(   27) = (   0.2307692   0.3846154   0.0000000), wk =   0.0236686
        k(   28) = (   0.2307692  -0.1538462   0.0000000), wk =   0.0236686
        k(   29) = (   0.3076923   0.0000000   0.0000000), wk =   0.0236686
        k(   30) = (   0.3076923   0.0769231   0.0000000), wk =   0.0236686
        k(   31) = (   0.3076923   0.1538462   0.0000000), wk =   0.0236686
        k(   32) = (   0.3076923   0.2307692   0.0000000), wk =   0.0236686
        k(   33) = (   0.3076923   0.3076923   0.0000000), wk =   0.0236686
        k(   34) = (   0.3076923  -0.2307692   0.0000000), wk =   0.0236686
        k(   35) = (   0.3076923  -0.1538462   0.0000000), wk =   0.0236686
        k(   36) = (   0.3846154   0.0000000   0.0000000), wk =   0.0236686
        k(   37) = (   0.3846154   0.0769231   0.0000000), wk =   0.0236686
        k(   38) = (   0.3846154   0.1538462   0.0000000), wk =   0.0236686
        k(   39) = (   0.3846154   0.2307692   0.0000000), wk =   0.0236686
        k(   40) = (   0.3846154   0.3076923   0.0000000), wk =   0.0236686
        k(   41) = (   0.3846154  -0.3076923   0.0000000), wk =   0.0236686
        k(   42) = (   0.3846154  -0.2307692   0.0000000), wk =   0.0236686
        k(   43) = (   0.4615385   0.0000000   0.0000000), wk =   0.0236686
        k(   44) = (   0.4615385   0.0769231   0.0000000), wk =   0.0236686
        k(   45) = (   0.4615385   0.1538462   0.0000000), wk =   0.0236686
        k(   46) = (   0.4615385   0.2307692   0.0000000), wk =   0.0236686
        k(   47) = (   0.4615385  -0.3846154   0.0000000), wk =   0.0236686
        k(   48) = (   0.4615385  -0.3076923   0.0000000), wk =   0.0236686
        k(   49) = (   0.4615385  -0.2307692   0.0000000), wk =   0.0236686
        k(   50) = (  -0.0769231   0.0769231   0.0000000), wk =   0.0236686
        k(   51) = (  -0.0769231   0.1538462   0.0000000), wk =   0.0236686
        k(   52) = (  -0.0769231   0.2307692   0.0000000), wk =   0.0236686
        k(   53) = (  -0.0769231   0.3076923   0.0000000), wk =   0.0236686
        k(   54) = (  -0.0769231   0.3846154   0.0000000), wk =   0.0236686
        k(   55) = (  -0.0769231   0.4615385   0.0000000), wk =   0.0236686
        k(   56) = (  -0.1538462   0.1538462   0.0000000), wk =   0.0236686
        k(   57) = (  -0.1538462   0.2307692   0.0000000), wk =   0.0236686
        k(   58) = (  -0.1538462   0.3076923   0.0000000), wk =   0.0236686
        k(   59) = (  -0.1538462   0.3846154   0.0000000), wk =   0.0236686
        k(   60) = (  -0.1538462   0.4615385   0.0000000), wk =   0.0236686
        k(   61) = (  -0.1538462   0.5384615   0.0000000), wk =   0.0236686
        k(   62) = (  -0.2307692   0.2307692   0.0000000), wk =   0.0236686
        k(   63) = (  -0.2307692   0.3076923   0.0000000), wk =   0.0236686
        k(   64) = (  -0.2307692   0.3846154   0.0000000), wk =   0.0236686
        k(   65) = (  -0.2307692   0.4615385   0.0000000), wk =   0.0236686
        k(   66) = (  -0.2307692   0.5384615   0.0000000), wk =   0.0236686
        k(   67) = (  -0.2307692   0.0769231   0.0000000), wk =   0.0236686
        k(   68) = (  -0.3076923   0.3076923   0.0000000), wk =   0.0236686
        k(   69) = (  -0.3076923   0.3846154   0.0000000), wk =   0.0236686
        k(   70) = (  -0.3076923   0.4615385   0.0000000), wk =   0.0236686
        k(   71) = (  -0.3076923   0.5384615   0.0000000), wk =   0.0236686
        k(   72) = (  -0.3076923   0.6153846   0.0000000), wk =   0.0236686
        k(   73) = (  -0.3076923   0.0769231   0.0000000), wk =   0.0236686
        k(   74) = (  -0.3846154   0.3846154   0.0000000), wk =   0.0236686
        k(   75) = (  -0.3846154   0.4615385   0.0000000), wk =   0.0236686
        k(   76) = (  -0.3846154   0.5384615   0.0000000), wk =   0.0236686
        k(   77) = (  -0.3846154   0.6153846   0.0000000), wk =   0.0236686
        k(   78) = (  -0.3846154   0.0769231   0.0000000), wk =   0.0236686
        k(   79) = (  -0.3846154   0.1538462   0.0000000), wk =   0.0236686
        k(   80) = (  -0.4615385   0.4615385   0.0000000), wk =   0.0236686
        k(   81) = (  -0.4615385   0.5384615   0.0000000), wk =   0.0236686
        k(   82) = (  -0.4615385   0.6153846   0.0000000), wk =   0.0236686
        k(   83) = (  -0.4615385   0.6923077   0.0000000), wk =   0.0236686
        k(   84) = (  -0.4615385   0.0769231   0.0000000), wk =   0.0236686
        k(   85) = (  -0.4615385   0.1538462   0.0000000), wk =   0.0236686

     Dense  grid:   190727 G-vectors     FFT dimensions: (  45,  45, 225)

     Dynamical RAM for                 wfc:       0.30 MB

     Dynamical RAM for     wfc (w. buffer):      25.98 MB

     Dynamical RAM for                 EXX:     449.21 MB

     Dynamical RAM for           str. fact:       0.08 MB

     Dynamical RAM for           local pot:       0.00 MB

     Dynamical RAM for          nlocal pot:       0.45 MB

     Dynamical RAM for                qrad:       2.83 MB

     Dynamical RAM for          rho,v,vnew:       0.31 MB

     Dynamical RAM for               rhoin:       0.10 MB

     Dynamical RAM for            rho*nmix:       0.64 MB

     Dynamical RAM for           G-vectors:       0.17 MB

     Dynamical RAM for          h,s,v(r/c):       0.66 MB

     Dynamical RAM for          <psi|beta>:       0.08 MB

     Dynamical RAM for                 psi:       0.60 MB

     Dynamical RAM for                hpsi:       0.60 MB

     Dynamical RAM for      wfcinit/wfcrot:       0.69 MB

     Estimated static dynamical RAM per process >     479.57 MB

     Estimated max dynamical RAM per process >     482.16 MB

     Estimated total dynamical RAM >      33.90 GB
     EXX: ACE will be initialized later

     Initial potential from superposition of free atoms

     starting charge      77.7638, renormalised to      78.0000

     negative rho (up, down):  6.570E-04 0.000E+00
     Starting wfcs are random

     total cpu time spent up to now is        4.1 secs

     Self-consistent Calculation

     iteration #  1     ecut=    70.00 Ry     beta= 0.70
     Davidson diagonalization with overlap

---- Real-time Memory Report at c_bands before calling an iterative solver
           221 MiB given to the printing process from OS
             0 MiB allocation reported by mallinfo(arena+hblkhd)
        109710 MiB available memory on the node where the printing process lives
------------------
     ethr =  1.00E-02,  avg # of iterations = 10.2

     Threshold (ethr) on eigenvalues was too large:
     Diagonalizing with lowered threshold

     Davidson diagonalization with overlap

---- Real-time Memory Report at c_bands before calling an iterative solver
           223 MiB given to the printing process from OS
             0 MiB allocation reported by mallinfo(arena+hblkhd)
        109664 MiB available memory on the node where the printing process lives
------------------
     ethr =  1.45E-04,  avg # of iterations =  9.7

     negative rho (up, down):  4.830E-05 0.000E+00

     total cpu time spent up to now is       56.8 secs

     total energy              =    -807.03089057 Ry
     estimated scf accuracy    <       0.10040574 Ry

     iteration #  2     ecut=    70.00 Ry     beta= 0.70
     Davidson diagonalization with overlap

---- Real-time Memory Report at c_bands before calling an iterative solver
           224 MiB given to the printing process from OS
             0 MiB allocation reported by mallinfo(arena+hblkhd)
        109661 MiB available memory on the node where the printing process lives
------------------
     ethr =  1.29E-04,  avg # of iterations = 11.6

     negative rho (up, down):  4.058E-05 0.000E+00

     total cpu time spent up to now is       76.5 secs

     total energy              =    -806.93430092 Ry
     estimated scf accuracy    <       0.95033744 Ry

     iteration #  3     ecut=    70.00 Ry     beta= 0.70
     Davidson diagonalization with overlap

---- Real-time Memory Report at c_bands before calling an iterative solver
           235 MiB given to the printing process from OS
             0 MiB allocation reported by mallinfo(arena+hblkhd)
        109419 MiB available memory on the node where the printing process lives
------------------
     ethr =  1.29E-04,  avg # of iterations = 12.0

     negative rho (up, down):  2.598E-05 0.000E+00

     total cpu time spent up to now is       95.1 secs

     total energy              =    -807.04889751 Ry
     estimated scf accuracy    <       0.29799420 Ry

     iteration #  4     ecut=    70.00 Ry     beta= 0.70
     Davidson diagonalization with overlap

---- Real-time Memory Report at c_bands before calling an iterative solver
           235 MiB given to the printing process from OS
             0 MiB allocation reported by mallinfo(arena+hblkhd)
        109411 MiB available memory on the node where the printing process lives
------------------
     ethr =  1.29E-04,  avg # of iterations =  5.9

     negative rho (up, down):  1.804E-06 0.000E+00

     total cpu time spent up to now is      108.3 secs

     total energy              =    -807.07990561 Ry
     estimated scf accuracy    <       0.00185611 Ry

     iteration #  5     ecut=    70.00 Ry     beta= 0.70
     Davidson diagonalization with overlap

---- Real-time Memory Report at c_bands before calling an iterative solver
           236 MiB given to the printing process from OS
             0 MiB allocation reported by mallinfo(arena+hblkhd)
        109308 MiB available memory on the node where the printing process lives
------------------
     c_bands:  1 eigenvalues not converged
     c_bands:  1 eigenvalues not converged
     c_bands:  1 eigenvalues not converged
     ethr =  2.38E-06,  avg # of iterations = 11.0

     negative rho (up, down):  3.873E-07 0.000E+00

     total cpu time spent up to now is      126.5 secs

     total energy              =    -807.08002653 Ry
     estimated scf accuracy    <       0.00039165 Ry

     iteration #  6     ecut=    70.00 Ry     beta= 0.70
     Davidson diagonalization with overlap

---- Real-time Memory Report at c_bands before calling an iterative solver
           247 MiB given to the printing process from OS
             0 MiB allocation reported by mallinfo(arena+hblkhd)
        109159 MiB available memory on the node where the printing process lives
------------------
     c_bands:  1 eigenvalues not converged
     c_bands:  1 eigenvalues not converged
     c_bands:  1 eigenvalues not converged
     c_bands:  1 eigenvalues not converged
     c_bands:  1 eigenvalues not converged
     c_bands:  1 eigenvalues not converged
     ethr =  5.02E-07,  avg # of iterations = 13.0

     total cpu time spent up to now is      145.1 secs

     total energy              =    -807.07964903 Ry
     estimated scf accuracy    <       0.01043201 Ry

     iteration #  7     ecut=    70.00 Ry     beta= 0.70
     Davidson diagonalization with overlap

---- Real-time Memory Report at c_bands before calling an iterative solver
           247 MiB given to the printing process from OS
             0 MiB allocation reported by mallinfo(arena+hblkhd)
        109157 MiB available memory on the node where the printing process lives
------------------
     ethr =  5.02E-07,  avg # of iterations =  9.6

     total cpu time spent up to now is      162.3 secs

     total energy              =    -807.08020947 Ry
     estimated scf accuracy    <       0.00000867 Ry

     iteration #  8     ecut=    70.00 Ry     beta= 0.70
     Davidson diagonalization with overlap

---- Real-time Memory Report at c_bands before calling an iterative solver
           248 MiB given to the printing process from OS
             0 MiB allocation reported by mallinfo(arena+hblkhd)
        109152 MiB available memory on the node where the printing process lives
------------------
     ethr =  1.11E-08,  avg # of iterations =  7.6

     total cpu time spent up to now is      178.4 secs

     End of self-consistent calculation

          k = 0.0000 0.0000 0.0000 ( 23771 PWs)   bands (ev):

   -34.5141 -34.5140 -34.5139 -34.5138 -34.4880 -34.4878 -34.4876 -34.4874
   -34.4762 -34.4760 -34.3768 -34.3660 -34.3658 -34.3240 -34.3239 -27.3067
   -27.3067 -27.3061 -27.3060 -27.2949 -27.2948 -27.2944 -27.2944 -27.2912
   -27.2907 -10.4812  -9.9652  -8.8906  -6.1538  -4.7580  -0.0297   0.4806
     0.4818   0.7027   0.7048   1.0024   1.3229   1.3245   1.6108   2.7175
     3.0809   3.0828   4.0968   4.0989   4.1526   6.5399   6.7404   7.3411
     7.9208   8.1912   8.1955   8.7651   9.1600   9.2092   9.4324   9.4367
    10.0454  10.0482  10.4759  10.5525

     occupation numbers 
     1.0000   1.0000   1.0000   1.0000   1.0000   1.0000   1.0000   1.0000
     1.0000   1.0000   1.0000   1.0000   1.0000   1.0000   1.0000   1.0000
     1.0000   1.0000   1.0000   1.0000   1.0000   1.0000   1.0000   1.0000
     1.0000   1.0000   1.0000   1.0000   1.0000   1.0000   1.0000   1.0000
     1.0000   1.0000   1.0000   1.0000   1.0000   1.0000   1.0000   0.0000
     0.0000   0.0000   0.0000   0.0000   0.0000   0.0000   0.0000   0.0000
     0.0000   0.0000   0.0000   0.0000   0.0000   0.0000   0.0000   0.0000
     0.0000   0.0000   0.0000   0.0000

          k = 0.0000 0.0888 0.0000 ( 23755 PWs)   bands (ev):

   -34.5141 -34.5140 -34.5139 -34.5138 -34.4880 -34.4878 -34.4876 -34.4874
   -34.4761 -34.4759 -34.3767 -34.3660 -34.3658 -34.3239 -34.3239 -27.3068
   -27.3065 -27.3062 -27.3058 -27.2950 -27.2949 -27.2945 -27.2944 -27.2911
   -27.2906 -10.4298  -9.9179  -8.8612  -6.1593  -4.8400  -0.1854   0.0803
     0.3015   0.3405   0.6312   0.8084   1.3721   1.4370   1.9369   2.8156
     3.1734   3.2415   3.9990   4.1895   4.5006   6.6262   6.7699   7.3748
     7.8435   7.9679   8.3047   8.8703   8.9721   9.1584   9.4184   9.6078
    10.1214  10.2549  10.6940  10.8322

     occupation numbers 
     1.0000   1.0000   1.0000   1.0000   1.0000   1.0000   1.0000   1.0000
     1.0000   1.0000   1.0000   1.0000   1.0000   1.0000   1.0000   1.0000
     1.0000   1.0000   1.0000   1.0000   1.0000   1.0000   1.0000   1.0000
     1.0000   1.0000   1.0000   1.0000   1.0000   1.0000   1.0000   1.0000
     1.0000   1.0000   1.0000   1.0000   1.0000   1.0000   1.0000   0.0000
     0.0000   0.0000   0.0000   0.0000   0.0000   0.0000   0.0000   0.0000
     0.0000   0.0000   0.0000   0.0000   0.0000   0.0000   0.0000   0.0000
     0.0000   0.0000   0.0000   0.0000

          k = 0.0000 0.1776 0.0000 ( 23741 PWs)   bands (ev):

   -34.5141 -34.5138 -34.5137 -34.5136 -34.4881 -34.4878 -34.4876 -34.4875
   -34.4760 -34.4758 -34.3766 -34.3660 -34.3659 -34.3239 -34.3236 -27.3071
   -27.3064 -27.3059 -27.3053 -27.2953 -27.2950 -27.2948 -27.2944 -27.2907
   -27.2903 -10.2773  -9.7785  -8.7785  -6.1893  -5.0847  -0.8983  -0.2871
    -0.0948  -0.0424   0.3809   0.4125   1.4026   1.5889   1.8527   3.0977
     3.3821   3.5956   4.3038   4.4304   4.9144   6.7656   6.8525   7.2476
     7.8509   7.9579   8.6083   8.7616   8.9730   9.1621   9.6090   9.8964
    10.0767  10.4572  11.0161  11.1692

     occupation numbers 
     1.0000   1.0000   1.0000   1.0000   1.0000   1.0000   1.0000   1.0000
     1.0000   1.0000   1.0000   1.0000   1.0000   1.0000   1.0000   1.0000
     1.0000   1.0000   1.0000   1.0000   1.0000   1.0000   1.0000   1.0000
     1.0000   1.0000   1.0000   1.0000   1.0000   1.0000   1.0000   1.0000
     1.0000   1.0000   1.0000   1.0000   1.0000   1.0000   1.0000   0.0000
     0.0000   0.0000   0.0000   0.0000   0.0000   0.0000   0.0000   0.0000
     0.0000   0.0000   0.0000   0.0000   0.0000   0.0000   0.0000   0.0000
     0.0000   0.0000   0.0000   0.0000

          k = 0.0000 0.2664 0.0000 ( 23781 PWs)   bands (ev):

   -34.5140 -34.5138 -34.5134 -34.5133 -34.4882 -34.4878 -34.4876 -34.4875
   -34.4758 -34.4756 -34.3765 -34.3661 -34.3659 -34.3239 -34.3233 -27.3074
   -27.3068 -27.3051 -27.3045 -27.2958 -27.2952 -27.2950 -27.2943 -27.2902
   -27.2898 -10.0294  -9.5565  -8.6609  -6.2834  -5.4682  -1.6138  -0.7593
    -0.5494  -0.3889   0.1438   0.3892   0.9798   1.3483   1.9622   3.1197
     3.5836   3.9789   4.6693   4.7442   5.3727   6.4623   7.1115   7.4054
     8.0176   8.3114   8.6729   9.1022   9.1072   9.3400  10.0960  10.1098
    10.3033  10.6133  10.8848  11.7420

     occupation numbers 
     1.0000   1.0000   1.0000   1.0000   1.0000   1.0000   1.0000   1.0000
     1.0000   1.0000   1.0000   1.0000   1.0000   1.0000   1.0000   1.0000
     1.0000   1.0000   1.0000   1.0000   1.0000   1.0000   1.0000   1.0000
     1.0000   1.0000   1.0000   1.0000   1.0000   1.0000   1.0000   1.0000
     1.0000   1.0000   1.0000   1.0000   1.0000   1.0000   1.0000   0.0000
     0.0000   0.0000   0.0000   0.0000   0.0000   0.0000   0.0000   0.0000
     0.0000   0.0000   0.0000   0.0000   0.0000   0.0000   0.0000   0.0000
     0.0000   0.0000   0.0000   0.0000

          k = 0.0000 0.3552 0.0000 ( 23839 PWs)   bands (ev):

   -34.5140 -34.5137 -34.5131 -34.5130 -34.4883 -34.4879 -34.4876 -34.4876
   -34.4757 -34.4755 -34.3763 -34.3662 -34.3660 -34.3239 -34.3230 -27.3078
   -27.3073 -27.3043 -27.3036 -27.2962 -27.2957 -27.2951 -27.2943 -27.2897
   -27.2892  -9.6980  -9.2726  -8.5457  -6.4918  -5.9124  -2.1646  -1.2600
    -0.7368  -0.6776  -0.0994   0.2469   0.6914   1.2502   1.7119   3.1931
     3.7029   4.0253   4.8654   5.0397   5.8216   6.1165   7.3917   7.6793
     8.1930   8.7526   8.9821   9.4848   9.7489   9.8461  10.1951  10.5520
    10.6295  11.0408  11.1664  11.4377

     occupation numbers 
     1.0000   1.0000   1.0000   1.0000   1.0000   1.0000   1.0000   1.0000
     1.0000   1.0000   1.0000   1.0000   1.0000   1.0000   1.0000   1.0000
     1.0000   1.0000   1.0000   1.0000   1.0000   1.0000   1.0000   1.0000
     1.0000   1.0000   1.0000   1.0000   1.0000   1.0000   1.0000   1.0000
     1.0000   1.0000   1.0000   1.0000   1.0000   1.0000   1.0000   0.0000
     0.0000   0.0000   0.0000   0.0000   0.0000   0.0000   0.0000   0.0000
     0.0000   0.0000   0.0000   0.0000   0.0000   0.0000   0.0000   0.0000
     0.0000   0.0000   0.0000   0.0000

          k = 0.0000 0.4439 0.0000 ( 23831 PWs)   bands (ev):

   -34.5140 -34.5137 -34.5128 -34.5127 -34.4883 -34.4879 -34.4877 -34.4876
   -34.4755 -34.4753 -34.3762 -34.3663 -34.3660 -34.3239 -34.3227 -27.3082
   -27.3077 -27.3036 -27.3030 -27.2966 -27.2961 -27.2950 -27.2942 -27.2892
   -27.2888  -9.3081  -8.9715  -8.4991  -6.8081  -6.2994  -2.5365  -1.5115
    -0.9445  -0.8809  -0.2774  -0.0138   0.7351   1.1589   1.4075   3.2329
     3.7485   3.8898   5.0116   5.2481   5.7973   6.1069   7.3876   8.1692
     8.5277   9.1791   9.5647   9.7305   9.9678  10.4596  10.6838  10.8203
    11.1395  11.2279  11.3671  11.6769

     occupation numbers 
     1.0000   1.0000   1.0000   1.0000   1.0000   1.0000   1.0000   1.0000
     1.0000   1.0000   1.0000   1.0000   1.0000   1.0000   1.0000   1.0000
     1.0000   1.0000   1.0000   1.0000   1.0000   1.0000   1.0000   1.0000
     1.0000   1.0000   1.0000   1.0000   1.0000   1.0000   1.0000   1.0000
     1.0000   1.0000   1.0000   1.0000   1.0000   1.0000   1.0000   0.0000
     0.0000   0.0000   0.0000   0.0000   0.0000   0.0000   0.0000   0.0000
     0.0000   0.0000   0.0000   0.0000   0.0000   0.0000   0.0000   0.0000
     0.0000   0.0000   0.0000   0.0000

          k = 0.0000 0.5327 0.0000 ( 23850 PWs)   bands (ev):

   -34.5140 -34.5137 -34.5126 -34.5125 -34.4884 -34.4879 -34.4877 -34.4876
   -34.4754 -34.4752 -34.3761 -34.3664 -34.3660 -34.3238 -34.3225 -27.3084
   -27.3079 -27.3032 -27.3026 -27.2968 -27.2963 -27.2950 -27.2942 -27.2890
   -27.2885  -8.9128  -8.7507  -8.6113  -7.0704  -6.5332  -2.7326  -1.4963
    -1.2234  -0.9854  -0.3706  -0.0735   0.7361   1.1060   1.2569   3.1814
     3.7587   3.8556   5.0396   5.3491   5.7139   6.0920   7.4397   8.6807
     8.9203   9.2683   9.4869   9.8381  10.0203  10.5199  10.8921  11.3271
    11.4523  11.5471  11.9104  11.9688

     occupation numbers 
     1.0000   1.0000   1.0000   1.0000   1.0000   1.0000   1.0000   1.0000
     1.0000   1.0000   1.0000   1.0000   1.0000   1.0000   1.0000   1.0000
     1.0000   1.0000   1.0000   1.0000   1.0000   1.0000   1.0000   1.0000
     1.0000   1.0000   1.0000   1.0000   1.0000   1.0000   1.0000   1.0000
     1.0000   1.0000   1.0000   1.0000   1.0000   1.0000   1.0000   0.0000
     0.0000   0.0000   0.0000   0.0000   0.0000   0.0000   0.0000   0.0000
     0.0000   0.0000   0.0000   0.0000   0.0000   0.0000   0.0000   0.0000
     0.0000   0.0000   0.0000   0.0000

          k = 0.0769 0.0444 0.0000 ( 23753 PWs)   bands (ev):

   -34.5141 -34.5140 -34.5139 -34.5138 -34.4880 -34.4878 -34.4876 -34.4874
   -34.4761 -34.4759 -34.3767 -34.3660 -34.3658 -34.3240 -34.3239 -27.3068
   -27.3065 -27.3061 -27.3059 -27.2950 -27.2949 -27.2945 -27.2944 -27.2911
   -27.2906 -10.4298  -9.9178  -8.8612  -6.1592  -4.8400  -0.1853   0.0820
     0.3003   0.3412   0.6294   0.8090   1.3710   1.4369   1.9374   2.8142
     3.1727   3.2435   3.9985   4.1881   4.5024   6.6263   6.7700   7.3750
     7.8446   7.9687   8.3015   8.8709   8.9727   9.1593   9.4153   9.6095
    10.1212  10.2528  10.6961  10.8337

     occupation numbers 
     1.0000   1.0000   1.0000   1.0000   1.0000   1.0000   1.0000   1.0000
     1.0000   1.0000   1.0000   1.0000   1.0000   1.0000   1.0000   1.0000
     1.0000   1.0000   1.0000   1.0000   1.0000   1.0000   1.0000   1.0000
     1.0000   1.0000   1.0000   1.0000   1.0000   1.0000   1.0000   1.0000
     1.0000   1.0000   1.0000   1.0000   1.0000   1.0000   1.0000   0.0000
     0.0000   0.0000   0.0000   0.0000   0.0000   0.0000   0.0000   0.0000
     0.0000   0.0000   0.0000   0.0000   0.0000   0.0000   0.0000   0.0000
     0.0000   0.0000   0.0000   0.0000

          k = 0.0769 0.1332 0.0000 ( 23761 PWs)   bands (ev):

   -34.5141 -34.5138 -34.5138 -34.5137 -34.4881 -34.4878 -34.4876 -34.4875
   -34.4760 -34.4758 -34.3766 -34.3660 -34.3659 -34.3239 -34.3237 -27.3069
   -27.3064 -27.3061 -27.3055 -27.2952 -27.2950 -27.2947 -27.2944 -27.2908
   -27.2904 -10.3278  -9.8244  -8.8050  -6.1766  -5.0038  -0.6269  -0.2717
    -0.0298   0.0547   0.3909   0.7438   1.1199   1.8136   1.8976   2.9896
     3.3064   3.4902   4.1859   4.3894   4.7939   6.7774   6.8234   7.3490
     7.6478   7.9032   8.6256   8.8684   8.9349   9.0788   9.3918   9.8949
    10.2389  10.4563  10.8528  11.1225

     occupation numbers 
     1.0000   1.0000   1.0000   1.0000   1.0000   1.0000   1.0000   1.0000
     1.0000   1.0000   1.0000   1.0000   1.0000   1.0000   1.0000   1.0000
     1.0000   1.0000   1.0000   1.0000   1.0000   1.0000   1.0000   1.0000
     1.0000   1.0000   1.0000   1.0000   1.0000   1.0000   1.0000   1.0000
     1.0000   1.0000   1.0000   1.0000   1.0000   1.0000   1.0000   0.0000
     0.0000   0.0000   0.0000   0.0000   0.0000   0.0000   0.0000   0.0000
     0.0000   0.0000   0.0000   0.0000   0.0000   0.0000   0.0000   0.0000
     0.0000   0.0000   0.0000   0.0000

          k = 0.0769 0.2220 0.0000 ( 23778 PWs)   bands (ev):

   -34.5140 -34.5138 -34.5135 -34.5134 -34.4881 -34.4878 -34.4876 -34.4875
   -34.4759 -34.4757 -34.3765 -34.3661 -34.3659 -34.3239 -34.3234 -27.3072
   -27.3066 -27.3054 -27.3049 -27.2956 -27.2952 -27.2949 -27.2944 -27.2904
   -27.2900 -10.1275  -9.6434  -8.7039  -6.2368  -5.3216  -1.2750  -0.7756
    -0.4561  -0.1501   0.1137   0.4614   1.0432   1.5965   1.9810   3.1497
     3.4428   3.9090   4.3473   4.8967   5.1444   6.7596   7.0096   7.2658
     7.7036   8.0999   8.6679   8.7999   9.1935   9.3264   9.7906  10.1190
    10.3627  10.5368  11.1936  11.3014

     occupation numbers 
     1.0000   1.0000   1.0000   1.0000   1.0000   1.0000   1.0000   1.0000
     1.0000   1.0000   1.0000   1.0000   1.0000   1.0000   1.0000   1.0000
     1.0000   1.0000   1.0000   1.0000   1.0000   1.0000   1.0000   1.0000
     1.0000   1.0000   1.0000   1.0000   1.0000   1.0000   1.0000   1.0000
     1.0000   1.0000   1.0000   1.0000   1.0000   1.0000   1.0000   0.0000
     0.0000   0.0000   0.0000   0.0000   0.0000   0.0000   0.0000   0.0000
     0.0000   0.0000   0.0000   0.0000   0.0000   0.0000   0.0000   0.0000
     0.0000   0.0000   0.0000   0.0000

          k = 0.0769 0.3108 0.0000 ( 23811 PWs)   bands (ev):

   -34.5140 -34.5137 -34.5132 -34.5131 -34.4882 -34.4878 -34.4876 -34.4876
   -34.4757 -34.4755 -34.3764 -34.3662 -34.3659 -34.3239 -34.3231 -27.3075
   -27.3070 -27.3047 -27.3041 -27.2960 -27.2955 -27.2950 -27.2944 -27.2899
   -27.2895  -9.8371  -9.3888  -8.5841  -6.3841  -5.7463  -1.8840  -1.2020
    -0.7284  -0.4883  -0.2447   0.3632   0.9430   1.2119   1.9137   3.3581
     3.4995   4.0280   4.7173   5.1257   5.6185   6.4171   7.2907   7.5547
     8.0297   8.3280   8.5691   9.1120   9.5705   9.9796  10.1486  10.3391
    10.5445  10.8031  11.4880  11.5762

     occupation numbers 
     1.0000   1.0000   1.0000   1.0000   1.0000   1.0000   1.0000   1.0000
     1.0000   1.0000   1.0000   1.0000   1.0000   1.0000   1.0000   1.0000
     1.0000   1.0000   1.0000   1.0000   1.0000   1.0000   1.0000   1.0000
     1.0000   1.0000   1.0000   1.0000   1.0000   1.0000   1.0000   1.0000
     1.0000   1.0000   1.0000   1.0000   1.0000   1.0000   1.0000   0.0000
     0.0000   0.0000   0.0000   0.0000   0.0000   0.0000   0.0000   0.0000
     0.0000   0.0000   0.0000   0.0000   0.0000   0.0000   0.0000   0.0000
     0.0000   0.0000   0.0000   0.0000

          k = 0.0769 0.3996 0.0000 ( 23845 PWs)   bands (ev):

   -34.5140 -34.5137 -34.5129 -34.5128 -34.4883 -34.4879 -34.4877 -34.4876
   -34.4756 -34.4754 -34.3762 -34.3663 -34.3660 -34.3238 -34.3228 -27.3079
   -27.3073 -27.3040 -27.3034 -27.2964 -27.2959 -27.2951 -27.2943 -27.2894
   -27.2890  -9.4741  -9.0908  -8.4937  -6.6514  -6.1760  -2.3423  -1.4521
    -1.0338  -0.7995  -0.3741   0.1789   0.7474   1.0996   1.7059   3.4045
     3.5661   4.0143   4.9632   5.2837   5.9113   6.1559   7.4583   7.9302
     8.3574   8.7583   9.0531   9.5422   9.8904   9.9912  10.6212  10.8047
    10.9872  11.2051  11.6359  11.7052

     occupation numbers 
     1.0000   1.0000   1.0000   1.0000   1.0000   1.0000   1.0000   1.0000
     1.0000   1.0000   1.0000   1.0000   1.0000   1.0000   1.0000   1.0000
     1.0000   1.0000   1.0000   1.0000   1.0000   1.0000   1.0000   1.0000
     1.0000   1.0000   1.0000   1.0000   1.0000   1.0000   1.0000   1.0000
     1.0000   1.0000   1.0000   1.0000   1.0000   1.0000   1.0000   0.0000
     0.0000   0.0000   0.0000   0.0000   0.0000   0.0000   0.0000   0.0000
     0.0000   0.0000   0.0000   0.0000   0.0000   0.0000   0.0000   0.0000
     0.0000   0.0000   0.0000   0.0000

          k = 0.0769 0.4883 0.0000 ( 23825 PWs)   bands (ev):

   -34.5139 -34.5136 -34.5127 -34.5126 -34.4883 -34.4879 -34.4877 -34.4877
   -34.4755 -34.4752 -34.3761 -34.3663 -34.3660 -34.3238 -34.3226 -27.3082
   -27.3076 -27.3035 -27.3029 -27.2966 -27.2961 -27.2951 -27.2943 -27.2891
   -27.2886  -9.0753  -8.8155  -8.5121  -6.9673  -6.4964  -2.6255  -1.5154
    -1.2850  -0.9973  -0.4465  -0.0350   0.7086   1.0564   1.5051   3.4837
     3.5154   3.9252   5.1580   5.3233   5.8785   6.1388   7.4564   8.4744
     8.7287   9.3140   9.5232   9.5867  10.0771  10.2829  10.6904  10.9547
    11.1911  11.3314  11.8790  11.9435

     occupation numbers 
     1.0000   1.0000   1.0000   1.0000   1.0000   1.0000   1.0000   1.0000
     1.0000   1.0000   1.0000   1.0000   1.0000   1.0000   1.0000   1.0000
     1.0000   1.0000   1.0000   1.0000   1.0000   1.0000   1.0000   1.0000
     1.0000   1.0000   1.0000   1.0000   1.0000   1.0000   1.0000   1.0000
     1.0000   1.0000   1.0000   1.0000   1.0000   1.0000   1.0000   0.0000
     0.0000   0.0000   0.0000   0.0000   0.0000   0.0000   0.0000   0.0000
     0.0000   0.0000   0.0000   0.0000   0.0000   0.0000   0.0000   0.0000
     0.0000   0.0000   0.0000   0.0000

          k = 0.0769 0.5771 0.0000 ( 23828 PWs)   bands (ev):

   -34.5139 -34.5136 -34.5126 -34.5125 -34.4884 -34.4879 -34.4877 -34.4877
   -34.4754 -34.4752 -34.3761 -34.3664 -34.3660 -34.3238 -34.3226 -27.3083
   -27.3077 -27.3034 -27.3028 -27.2967 -27.2962 -27.2951 -27.2943 -27.2889
   -27.2885  -8.7245  -8.7098  -8.6916  -7.1167  -6.6207  -2.7227  -1.4769
    -1.3968  -1.0837  -0.5022  -0.0933   0.7351   1.0068   1.4360   3.4837
     3.5398   3.8559   5.2389   5.3219   5.8766   6.0824   7.5028   8.7986
     9.1320   9.1667   9.3285   9.9647  10.1707  10.2086  10.8440  11.2397
    11.2989  11.5315  11.7043  12.0165

     occupation numbers 
     1.0000   1.0000   1.0000   1.0000   1.0000   1.0000   1.0000   1.0000
     1.0000   1.0000   1.0000   1.0000   1.0000   1.0000   1.0000   1.0000
     1.0000   1.0000   1.0000   1.0000   1.0000   1.0000   1.0000   1.0000
     1.0000   1.0000   1.0000   1.0000   1.0000   1.0000   1.0000   1.0000
     1.0000   1.0000   1.0000   1.0000   1.0000   1.0000   1.0000   0.0000
     0.0000   0.0000   0.0000   0.0000   0.0000   0.0000   0.0000   0.0000
     0.0000   0.0000   0.0000   0.0000   0.0000   0.0000   0.0000   0.0000
     0.0000   0.0000   0.0000   0.0000

          k = 0.1538 0.0888 0.0000 ( 23745 PWs)   bands (ev):

   -34.5141 -34.5139 -34.5137 -34.5135 -34.4881 -34.4878 -34.4876 -34.4875
   -34.4760 -34.4758 -34.3766 -34.3661 -34.3659 -34.3239 -34.3236 -27.3070
   -27.3064 -27.3059 -27.3053 -27.2953 -27.2949 -27.2948 -27.2944 -27.2907
   -27.2903 -10.2772  -9.7784  -8.7783  -6.1890  -5.0847  -0.8978  -0.2858
    -0.0938  -0.0440   0.3803   0.4105   1.4013   1.5885   1.8529   3.0958
     3.3816   3.5969   4.3027   4.4292   4.9173   6.7660   6.8527   7.2480
     7.8513   7.9582   8.6053   8.7622   8.9741   9.1622   9.6063   9.8969
    10.0772  10.4547  11.0190  11.1707

     occupation numbers 
     1.0000   1.0000   1.0000   1.0000   1.0000   1.0000   1.0000   1.0000
     1.0000   1.0000   1.0000   1.0000   1.0000   1.0000   1.0000   1.0000
     1.0000   1.0000   1.0000   1.0000   1.0000   1.0000   1.0000   1.0000
     1.0000   1.0000   1.0000   1.0000   1.0000   1.0000   1.0000   1.0000
     1.0000   1.0000   1.0000   1.0000   1.0000   1.0000   1.0000   0.0000
     0.0000   0.0000   0.0000   0.0000   0.0000   0.0000   0.0000   0.0000
     0.0000   0.0000   0.0000   0.0000   0.0000   0.0000   0.0000   0.0000
     0.0000   0.0000   0.0000   0.0000

          k = 0.1538 0.1776 0.0000 ( 23774 PWs)   bands (ev):

   -34.5140 -34.5138 -34.5135 -34.5134 -34.4881 -34.4878 -34.4876 -34.4875
   -34.4759 -34.4757 -34.3765 -34.3661 -34.3659 -34.3239 -34.3234 -27.3072
   -27.3066 -27.3054 -27.3049 -27.2956 -27.2952 -27.2949 -27.2944 -27.2904
   -27.2900 -10.1273  -9.6433  -8.7038  -6.2366  -5.3217  -1.2745  -0.7758
    -0.4552  -0.1514   0.1134   0.4605   1.0426   1.5966   1.9805   3.1502
     3.4410   3.9096   4.3481   4.8929   5.1479   6.7602   7.0097   7.2661
     7.7035   8.1001   8.6682   8.8007   9.1920   9.3254   9.7909  10.1191
    10.3615  10.5378  11.1940  11.3002

     occupation numbers 
     1.0000   1.0000   1.0000   1.0000   1.0000   1.0000   1.0000   1.0000
     1.0000   1.0000   1.0000   1.0000   1.0000   1.0000   1.0000   1.0000
     1.0000   1.0000   1.0000   1.0000   1.0000   1.0000   1.0000   1.0000
     1.0000   1.0000   1.0000   1.0000   1.0000   1.0000   1.0000   1.0000
     1.0000   1.0000   1.0000   1.0000   1.0000   1.0000   1.0000   0.0000
     0.0000   0.0000   0.0000   0.0000   0.0000   0.0000   0.0000   0.0000
     0.0000   0.0000   0.0000   0.0000   0.0000   0.0000   0.0000   0.0000
     0.0000   0.0000   0.0000   0.0000

          k = 0.1538 0.2664 0.0000 ( 23783 PWs)   bands (ev):

   -34.5140 -34.5137 -34.5133 -34.5132 -34.4882 -34.4878 -34.4876 -34.4876
   -34.4758 -34.4755 -34.3764 -34.3662 -34.3659 -34.3238 -34.3232 -27.3073
   -27.3068 -27.3049 -27.3044 -27.2958 -27.2955 -27.2950 -27.2945 -27.2900
   -27.2895  -9.8840  -9.4286  -8.5981  -6.3458  -5.6896  -1.5845  -1.4441
    -0.5691  -0.5517  -0.2342   0.2480   0.9556   1.6861   1.7277   3.2506
     3.7915   3.9123   4.4919   5.3732   5.4360   6.9278   7.0018   7.3850
     7.7518   8.3452   8.4056   8.7764   9.6230   9.9877  10.2384  10.3222
    10.5115  10.9938  11.3345  11.3697

     occupation numbers 
     1.0000   1.0000   1.0000   1.0000   1.0000   1.0000   1.0000   1.0000
     1.0000   1.0000   1.0000   1.0000   1.0000   1.0000   1.0000   1.0000
     1.0000   1.0000   1.0000   1.0000   1.0000   1.0000   1.0000   1.0000
     1.0000   1.0000   1.0000   1.0000   1.0000   1.0000   1.0000   1.0000
     1.0000   1.0000   1.0000   1.0000   1.0000   1.0000   1.0000   0.0000
     0.0000   0.0000   0.0000   0.0000   0.0000   0.0000   0.0000   0.0000
     0.0000   0.0000   0.0000   0.0000   0.0000   0.0000   0.0000   0.0000
     0.0000   0.0000   0.0000   0.0000

          k = 0.1538 0.3552 0.0000 ( 23813 PWs)   bands (ev):

   -34.5139 -34.5136 -34.5131 -34.5130 -34.4883 -34.4879 -34.4877 -34.4876
   -34.4756 -34.4754 -34.3762 -34.3663 -34.3660 -34.3238 -34.3230 -27.3074
   -27.3070 -27.3044 -27.3039 -27.2961 -27.2958 -27.2951 -27.2945 -27.2895
   -27.2891  -9.5598  -9.1547  -8.4928  -6.5460  -6.1254  -2.0481  -1.6809
    -0.9890  -0.7426  -0.5440   0.0351   0.9906   1.2640   1.7497   3.3993
     3.8883   3.9198   4.8138   5.5464   5.7500   6.6811   7.3845   7.8131
     7.9151   8.3133   8.8518   9.0020   9.7771   9.9404  10.6326  10.7634
    11.0677  11.3790  11.5181  12.1303

     occupation numbers 
     1.0000   1.0000   1.0000   1.0000   1.0000   1.0000   1.0000   1.0000
     1.0000   1.0000   1.0000   1.0000   1.0000   1.0000   1.0000   1.0000
     1.0000   1.0000   1.0000   1.0000   1.0000   1.0000   1.0000   1.0000
     1.0000   1.0000   1.0000   1.0000   1.0000   1.0000   1.0000   1.0000
     1.0000   1.0000   1.0000   1.0000   1.0000   1.0000   1.0000   0.0000
     0.0000   0.0000   0.0000   0.0000   0.0000   0.0000   0.0000   0.0000
     0.0000   0.0000   0.0000   0.0000   0.0000   0.0000   0.0000   0.0000
     0.0000   0.0000   0.0000   0.0000

          k = 0.1538 0.4439 0.0000 ( 23820 PWs)   bands (ev):

   -34.5138 -34.5135 -34.5129 -34.5128 -34.4883 -34.4879 -34.4877 -34.4877
   -34.4755 -34.4753 -34.3761 -34.3663 -34.3660 -34.3237 -34.3228 -27.3076
   -27.3071 -27.3040 -27.3035 -27.2964 -27.2960 -27.2952 -27.2945 -27.2891
   -27.2887  -9.1808  -8.8653  -8.4427  -6.8394  -6.5143  -2.4170  -1.7170
    -1.2871  -1.0983  -0.5855  -0.1270   0.7852   1.1437   1.7046   3.3449
     3.9342   4.0424   4.9589   5.6353   5.9884   6.4738   7.6351   8.2132
     8.5430   8.5937   9.2359   9.3808   9.9451  10.0827  10.4607  10.9241
    11.2226  11.4389  11.6934  11.9451

     occupation numbers 
     1.0000   1.0000   1.0000   1.0000   1.0000   1.0000   1.0000   1.0000
     1.0000   1.0000   1.0000   1.0000   1.0000   1.0000   1.0000   1.0000
     1.0000   1.0000   1.0000   1.0000   1.0000   1.0000   1.0000   1.0000
     1.0000   1.0000   1.0000   1.0000   1.0000   1.0000   1.0000   1.0000
     1.0000   1.0000   1.0000   1.0000   1.0000   1.0000   1.0000   0.0000
     0.0000   0.0000   0.0000   0.0000   0.0000   0.0000   0.0000   0.0000
     0.0000   0.0000   0.0000   0.0000   0.0000   0.0000   0.0000   0.0000
     0.0000   0.0000   0.0000   0.0000

          k = 0.1538 0.5327 0.0000 ( 23831 PWs)   bands (ev):

   -34.5138 -34.5135 -34.5128 -34.5126 -34.4883 -34.4879 -34.4877 -34.4877
   -34.4754 -34.4752 -34.3760 -34.3663 -34.3661 -34.3236 -34.3227 -27.3077
   -27.3072 -27.3038 -27.3033 -27.2965 -27.2960 -27.2953 -27.2945 -27.2889
   -27.2885  -8.8035  -8.6536  -8.5295  -7.0979  -6.7453  -2.5987  -1.6974
    -1.5388  -1.1509  -0.5951  -0.3464   0.7240   1.1106   1.6137   3.4244
     3.8604   4.0020   5.1215   5.6558   6.0808   6.3572   7.6626   8.7401
     9.0402   9.1735   9.3215   9.7954  10.0444  10.1307  10.6994  10.7274
    10.8785  11.1221  11.4086  11.9018

     occupation numbers 
     1.0000   1.0000   1.0000   1.0000   1.0000   1.0000   1.0000   1.0000
     1.0000   1.0000   1.0000   1.0000   1.0000   1.0000   1.0000   1.0000
     1.0000   1.0000   1.0000   1.0000   1.0000   1.0000   1.0000   1.0000
     1.0000   1.0000   1.0000   1.0000   1.0000   1.0000   1.0000   1.0000
     1.0000   1.0000   1.0000   1.0000   1.0000   1.0000   1.0000   0.0000
     0.0000   0.0000   0.0000   0.0000   0.0000   0.0000   0.0000   0.0000
     0.0000   0.0000   0.0000   0.0000   0.0000   0.0000   0.0000   0.0000
     0.0000   0.0000   0.0000   0.0000

          k = 0.1538-0.0000 0.0000 ( 23767 PWs)   bands (ev):

   -34.5140 -34.5139 -34.5139 -34.5136 -34.4880 -34.4878 -34.4876 -34.4874
   -34.4760 -34.4758 -34.3766 -34.3660 -34.3659 -34.3239 -34.3237 -27.3069
   -27.3064 -27.3061 -27.3055 -27.2952 -27.2949 -27.2946 -27.2944 -27.2908
   -27.2904 -10.3277  -9.8243  -8.8049  -6.1765  -5.0038  -0.6270  -0.2720
    -0.0295   0.0562   0.3894   0.7438   1.1191   1.8139   1.8965   2.9866
     3.3076   3.4902   4.1836   4.3917   4.7949   6.7776   6.8235   7.3485
     7.6483   7.9034   8.6249   8.8668   8.9356   9.0796   9.3910   9.8957
    10.2373  10.4561  10.8524  11.1229

     occupation numbers 
     1.0000   1.0000   1.0000   1.0000   1.0000   1.0000   1.0000   1.0000
     1.0000   1.0000   1.0000   1.0000   1.0000   1.0000   1.0000   1.0000
     1.0000   1.0000   1.0000   1.0000   1.0000   1.0000   1.0000   1.0000
     1.0000   1.0000   1.0000   1.0000   1.0000   1.0000   1.0000   1.0000
     1.0000   1.0000   1.0000   1.0000   1.0000   1.0000   1.0000   0.0000
     0.0000   0.0000   0.0000   0.0000   0.0000   0.0000   0.0000   0.0000
     0.0000   0.0000   0.0000   0.0000   0.0000   0.0000   0.0000   0.0000
     0.0000   0.0000   0.0000   0.0000

          k = 0.2308 0.1332 0.0000 ( 23783 PWs)   bands (ev):

   -34.5140 -34.5138 -34.5134 -34.5132 -34.4881 -34.4879 -34.4877 -34.4875
   -34.4758 -34.4756 -34.3765 -34.3662 -34.3659 -34.3239 -34.3233 -27.3074
   -27.3068 -27.3051 -27.3045 -27.2958 -27.2952 -27.2950 -27.2943 -27.2902
   -27.2898 -10.0291  -9.5563  -8.6606  -6.2828  -5.4683  -1.6135  -0.7583
    -0.5484  -0.3909   0.1415   0.3887   0.9793   1.3467   1.9618   3.1175
     3.5828   3.9798   4.6667   4.7432   5.3761   6.4629   7.1118   7.4057
     8.0184   8.3117   8.6729   9.1030   9.1052   9.3397  10.0937  10.1104
    10.3054  10.6112  10.8844  11.7448

     occupation numbers 
     1.0000   1.0000   1.0000   1.0000   1.0000   1.0000   1.0000   1.0000
     1.0000   1.0000   1.0000   1.0000   1.0000   1.0000   1.0000   1.0000
     1.0000   1.0000   1.0000   1.0000   1.0000   1.0000   1.0000   1.0000
     1.0000   1.0000   1.0000   1.0000   1.0000   1.0000   1.0000   1.0000
     1.0000   1.0000   1.0000   1.0000   1.0000   1.0000   1.0000   0.0000
     0.0000   0.0000   0.0000   0.0000   0.0000   0.0000   0.0000   0.0000
     0.0000   0.0000   0.0000   0.0000   0.0000   0.0000   0.0000   0.0000
     0.0000   0.0000   0.0000   0.0000

          k = 0.2308 0.2220 0.0000 ( 23809 PWs)   bands (ev):

   -34.5140 -34.5138 -34.5132 -34.5131 -34.4882 -34.4879 -34.4877 -34.4876
   -34.4757 -34.4755 -34.3763 -34.3662 -34.3659 -34.3239 -34.3231 -27.3075
   -27.3070 -27.3047 -27.3041 -27.2960 -27.2955 -27.2950 -27.2944 -27.2899
   -27.2894  -9.8368  -9.3886  -8.5838  -6.3835  -5.7466  -1.8838  -1.2016
    -0.7280  -0.4895  -0.2460   0.3620   0.9428   1.2111   1.9129   3.3570
     3.4982   4.0286   4.7178   5.1225   5.6211   6.4176   7.2913   7.5551
     8.0303   8.3284   8.5694   9.1133   9.5703   9.9768  10.1487  10.3396
    10.5440  10.8032  11.4850  11.5763

     occupation numbers 
     1.0000   1.0000   1.0000   1.0000   1.0000   1.0000   1.0000   1.0000
     1.0000   1.0000   1.0000   1.0000   1.0000   1.0000   1.0000   1.0000
     1.0000   1.0000   1.0000   1.0000   1.0000   1.0000   1.0000   1.0000
     1.0000   1.0000   1.0000   1.0000   1.0000   1.0000   1.0000   1.0000
     1.0000   1.0000   1.0000   1.0000   1.0000   1.0000   1.0000   0.0000
     0.0000   0.0000   0.0000   0.0000   0.0000   0.0000   0.0000   0.0000
     0.0000   0.0000   0.0000   0.0000   0.0000   0.0000   0.0000   0.0000
     0.0000   0.0000   0.0000   0.0000

          k = 0.2308 0.3108 0.0000 ( 23817 PWs)   bands (ev):

   -34.5139 -34.5136 -34.5131 -34.5129 -34.4882 -34.4879 -34.4877 -34.4876
   -34.4756 -34.4754 -34.3762 -34.3663 -34.3660 -34.3238 -34.3230 -27.3074
   -27.3070 -27.3044 -27.3039 -27.2962 -27.2958 -27.2951 -27.2945 -27.2895
   -27.2891  -9.5596  -9.1546  -8.4925  -6.5455  -6.1257  -2.0481  -1.6810
    -0.9889  -0.7431  -0.5442   0.0342   0.9908   1.2635   1.7490   3.3982
     3.8897   3.9183   4.8138   5.5441   5.7523   6.6808   7.3853   7.8133
     7.9157   8.3134   8.8520   9.0029   9.7781   9.9395  10.6328  10.7641
    11.0673  11.3787  11.5160  12.1308

     occupation numbers 
     1.0000   1.0000   1.0000   1.0000   1.0000   1.0000   1.0000   1.0000
     1.0000   1.0000   1.0000   1.0000   1.0000   1.0000   1.0000   1.0000
     1.0000   1.0000   1.0000   1.0000   1.0000   1.0000   1.0000   1.0000
     1.0000   1.0000   1.0000   1.0000   1.0000   1.0000   1.0000   1.0000
     1.0000   1.0000   1.0000   1.0000   1.0000   1.0000   1.0000   0.0000
     0.0000   0.0000   0.0000   0.0000   0.0000   0.0000   0.0000   0.0000
     0.0000   0.0000   0.0000   0.0000   0.0000   0.0000   0.0000   0.0000
     0.0000   0.0000   0.0000   0.0000

          k = 0.2308 0.3996 0.0000 ( 23815 PWs)   bands (ev):

   -34.5137 -34.5134 -34.5129 -34.5128 -34.4883 -34.4879 -34.4877 -34.4877
   -34.4755 -34.4753 -34.3761 -34.3663 -34.3660 -34.3236 -34.3229 -27.3072
   -27.3068 -27.3043 -27.3039 -27.2962 -27.2959 -27.2952 -27.2947 -27.2892
   -27.2887  -9.2171  -8.8837  -8.4178  -6.7649  -6.5466  -2.1588  -2.0489
    -1.1822  -1.0021  -0.8653  -0.1864   0.9396   1.2725   1.5646   3.7092
     3.7371   4.0301   5.1672   5.6454   5.8958   7.2161   7.3193   7.8976
     8.2960   8.6205   8.8425   9.3311   9.8192  10.0092  10.6726  10.9738
    11.0352  11.4440  11.9152  12.0472

     occupation numbers 
     1.0000   1.0000   1.0000   1.0000   1.0000   1.0000   1.0000   1.0000
     1.0000   1.0000   1.0000   1.0000   1.0000   1.0000   1.0000   1.0000
     1.0000   1.0000   1.0000   1.0000   1.0000   1.0000   1.0000   1.0000
     1.0000   1.0000   1.0000   1.0000   1.0000   1.0000   1.0000   1.0000
     1.0000   1.0000   1.0000   1.0000   1.0000   1.0000   1.0000   0.0000
     0.0000   0.0000   0.0000   0.0000   0.0000   0.0000   0.0000   0.0000
     0.0000   0.0000   0.0000   0.0000   0.0000   0.0000   0.0000   0.0000
     0.0000   0.0000   0.0000   0.0000

          k = 0.2308 0.4883 0.0000 ( 23811 PWs)   bands (ev):

   -34.5136 -34.5133 -34.5129 -34.5128 -34.4883 -34.4879 -34.4877 -34.4877
   -34.4754 -34.4752 -34.3760 -34.3663 -34.3661 -34.3235 -34.3228 -27.3070
   -27.3066 -27.3044 -27.3039 -27.2963 -27.2959 -27.2954 -27.2948 -27.2889
   -27.2885  -8.8515  -8.6370  -8.4091  -7.0259  -6.8789  -2.3833  -2.0754
    -1.4674  -1.1701  -0.9122  -0.3423   0.7298   1.2627   1.5486   3.6553
     3.8680   4.0956   5.3644   5.7508   5.9918   7.1176   8.0319   8.1460
     8.7832   8.8939   9.0690   9.7254   9.9963  10.1234  10.2146  10.7450
    10.9979  11.0524  11.4394  11.7142

     occupation numbers 
     1.0000   1.0000   1.0000   1.0000   1.0000   1.0000   1.0000   1.0000
     1.0000   1.0000   1.0000   1.0000   1.0000   1.0000   1.0000   1.0000
     1.0000   1.0000   1.0000   1.0000   1.0000   1.0000   1.0000   1.0000
     1.0000   1.0000   1.0000   1.0000   1.0000   1.0000   1.0000   1.0000
     1.0000   1.0000   1.0000   1.0000   1.0000   1.0000   1.0000   0.0000
     0.0000   0.0000   0.0000   0.0000   0.0000   0.0000   0.0000   0.0000
     0.0000   0.0000   0.0000   0.0000   0.0000   0.0000   0.0000   0.0000
     0.0000   0.0000   0.0000   0.0000

          k = 0.2308 0.5771 0.0000 ( 23813 PWs)   bands (ev):

   -34.5135 -34.5132 -34.5129 -34.5128 -34.4883 -34.4880 -34.4877 -34.4877
   -34.4754 -34.4752 -34.3760 -34.3663 -34.3661 -34.3234 -34.3228 -27.3070
   -27.3065 -27.3044 -27.3039 -27.2963 -27.2958 -27.2955 -27.2949 -27.2888
   -27.2885  -8.5718  -8.5457  -8.5045  -7.1753  -6.9963  -2.4788  -1.9774
    -1.7303  -1.1987  -0.7234  -0.5624   0.6390   1.3337   1.4863   3.6956
     3.8035   4.1536   5.5325   5.6135   6.1056   7.0642   8.0775   8.9200
     9.0128   9.1953   9.3118   9.5729   9.8249  10.0165  10.2168  10.4819
    10.7486  10.9759  10.9937  11.6452

     occupation numbers 
     1.0000   1.0000   1.0000   1.0000   1.0000   1.0000   1.0000   1.0000
     1.0000   1.0000   1.0000   1.0000   1.0000   1.0000   1.0000   1.0000
     1.0000   1.0000   1.0000   1.0000   1.0000   1.0000   1.0000   1.0000
     1.0000   1.0000   1.0000   1.0000   1.0000   1.0000   1.0000   1.0000
     1.0000   1.0000   1.0000   1.0000   1.0000   1.0000   1.0000   0.0000
     0.0000   0.0000   0.0000   0.0000   0.0000   0.0000   0.0000   0.0000
     0.0000   0.0000   0.0000   0.0000   0.0000   0.0000   0.0000   0.0000
     0.0000   0.0000   0.0000   0.0000

          k = 0.2308-0.0444 0.0000 ( 23772 PWs)   bands (ev):

   -34.5140 -34.5139 -34.5136 -34.5133 -34.4880 -34.4879 -34.4877 -34.4874
   -34.4759 -34.4757 -34.3765 -34.3661 -34.3659 -34.3239 -34.3234 -27.3072
   -27.3066 -27.3054 -27.3049 -27.2956 -27.2952 -27.2948 -27.2944 -27.2904
   -27.2900 -10.1272  -9.6431  -8.7037  -6.2366  -5.3216  -1.2749  -0.7761
    -0.4558  -0.1495   0.1132   0.4609   1.0422   1.5953   1.9805   3.1473
     3.4407   3.9109   4.3449   4.8961   5.1474   6.7597   7.0099   7.2654
     7.7032   8.1003   8.6680   8.8000   9.1932   9.3257   9.7912  10.1199
    10.3602  10.5374  11.1935  11.3020

     occupation numbers 
     1.0000   1.0000   1.0000   1.0000   1.0000   1.0000   1.0000   1.0000
     1.0000   1.0000   1.0000   1.0000   1.0000   1.0000   1.0000   1.0000
     1.0000   1.0000   1.0000   1.0000   1.0000   1.0000   1.0000   1.0000
     1.0000   1.0000   1.0000   1.0000   1.0000   1.0000   1.0000   1.0000
     1.0000   1.0000   1.0000   1.0000   1.0000   1.0000   1.0000   0.0000
     0.0000   0.0000   0.0000   0.0000   0.0000   0.0000   0.0000   0.0000
     0.0000   0.0000   0.0000   0.0000   0.0000   0.0000   0.0000   0.0000
     0.0000   0.0000   0.0000   0.0000

          k = 0.3077 0.1776 0.0000 ( 23831 PWs)   bands (ev):

   -34.5140 -34.5138 -34.5131 -34.5129 -34.4882 -34.4879 -34.4877 -34.4876
   -34.4757 -34.4755 -34.3763 -34.3663 -34.3659 -34.3239 -34.3230 -27.3078
   -27.3072 -27.3043 -27.3037 -27.2963 -27.2957 -27.2950 -27.2943 -27.2897
   -27.2892  -9.6975  -9.2721  -8.5451  -6.4909  -5.9128  -2.1648  -1.2590
    -0.7363  -0.6798  -0.1019   0.2467   0.6909   1.2484   1.7108   3.1908
     3.7019   4.0256   4.8629   5.0387   5.8239   6.1168   7.3925   7.6797
     8.1939   8.7530   8.9823   9.4852   9.7496   9.8446  10.1957  10.5530
    10.6272  11.0410  11.1655  11.4392

     occupation numbers 
     1.0000   1.0000   1.0000   1.0000   1.0000   1.0000   1.0000   1.0000
     1.0000   1.0000   1.0000   1.0000   1.0000   1.0000   1.0000   1.0000
     1.0000   1.0000   1.0000   1.0000   1.0000   1.0000   1.0000   1.0000
     1.0000   1.0000   1.0000   1.0000   1.0000   1.0000   1.0000   1.0000
     1.0000   1.0000   1.0000   1.0000   1.0000   1.0000   1.0000   0.0000
     0.0000   0.0000   0.0000   0.0000   0.0000   0.0000   0.0000   0.0000
     0.0000   0.0000   0.0000   0.0000   0.0000   0.0000   0.0000   0.0000
     0.0000   0.0000   0.0000   0.0000

          k = 0.3077 0.2664 0.0000 ( 23843 PWs)   bands (ev):

   -34.5139 -34.5137 -34.5129 -34.5128 -34.4882 -34.4879 -34.4877 -34.4876
   -34.4756 -34.4754 -34.3762 -34.3663 -34.3659 -34.3238 -34.3228 -27.3079
   -27.3073 -27.3040 -27.3034 -27.2964 -27.2959 -27.2951 -27.2943 -27.2894
   -27.2890  -9.4736  -9.0904  -8.4930  -6.6504  -6.1766  -2.3426  -1.4512
    -1.0342  -0.8010  -0.3752   0.1777   0.7471   1.0985   1.7045   3.4029
     3.5639   4.0151   4.9632   5.2805   5.9133   6.1562   7.4591   7.9307
     8.3579   8.7599   9.0540   9.5440   9.8905   9.9915  10.6222  10.8033
    10.9876  11.2037  11.6343  11.7049

     occupation numbers 
     1.0000   1.0000   1.0000   1.0000   1.0000   1.0000   1.0000   1.0000
     1.0000   1.0000   1.0000   1.0000   1.0000   1.0000   1.0000   1.0000
     1.0000   1.0000   1.0000   1.0000   1.0000   1.0000   1.0000   1.0000
     1.0000   1.0000   1.0000   1.0000   1.0000   1.0000   1.0000   1.0000
     1.0000   1.0000   1.0000   1.0000   1.0000   1.0000   1.0000   0.0000
     0.0000   0.0000   0.0000   0.0000   0.0000   0.0000   0.0000   0.0000
     0.0000   0.0000   0.0000   0.0000   0.0000   0.0000   0.0000   0.0000
     0.0000   0.0000   0.0000   0.0000

          k = 0.3077 0.3552 0.0000 ( 23831 PWs)   bands (ev):

   -34.5138 -34.5136 -34.5129 -34.5127 -34.4882 -34.4879 -34.4877 -34.4876
   -34.4755 -34.4753 -34.3761 -34.3664 -34.3660 -34.3237 -34.3228 -27.3076
   -27.3071 -27.3040 -27.3035 -27.2964 -27.2959 -27.2952 -27.2945 -27.2891
   -27.2887  -9.1804  -8.8649  -8.4421  -6.8386  -6.5150  -2.4174  -1.7169
    -1.2868  -1.0994  -0.5859  -0.1279   0.7852   1.1428   1.7035   3.3434
     3.9324   4.0431   4.9582   5.6328   5.9904   6.4732   7.6355   8.2141
     8.5449   8.5939   9.2377   9.3811   9.9466  10.0821  10.4621  10.9249
    11.2223  11.4399  11.6941  11.9466

     occupation numbers 
     1.0000   1.0000   1.0000   1.0000   1.0000   1.0000   1.0000   1.0000
     1.0000   1.0000   1.0000   1.0000   1.0000   1.0000   1.0000   1.0000
     1.0000   1.0000   1.0000   1.0000   1.0000   1.0000   1.0000   1.0000
     1.0000   1.0000   1.0000   1.0000   1.0000   1.0000   1.0000   1.0000
     1.0000   1.0000   1.0000   1.0000   1.0000   1.0000   1.0000   0.0000
     0.0000   0.0000   0.0000   0.0000   0.0000   0.0000   0.0000   0.0000
     0.0000   0.0000   0.0000   0.0000   0.0000   0.0000   0.0000   0.0000
     0.0000   0.0000   0.0000   0.0000

          k = 0.3077 0.4439 0.0000 ( 23815 PWs)   bands (ev):

   -34.5136 -34.5133 -34.5129 -34.5128 -34.4883 -34.4880 -34.4878 -34.4877
   -34.4754 -34.4752 -34.3760 -34.3664 -34.3661 -34.3235 -34.3228 -27.3070
   -27.3066 -27.3044 -27.3039 -27.2963 -27.2959 -27.2954 -27.2948 -27.2889
   -27.2885  -8.8512  -8.6367  -8.4086  -7.0254  -6.8796  -2.3839  -2.0751
    -1.4675  -1.1700  -0.9128  -0.3422   0.7296   1.2620   1.5486   3.6541
     3.8671   4.0964   5.3632   5.7483   5.9942   7.1155   8.0313   8.1491
     8.7833   8.8942   9.0704   9.7260   9.9968  10.1236  10.2149  10.7445
    10.9986  11.0530  11.4406  11.7130

     occupation numbers 
     1.0000   1.0000   1.0000   1.0000   1.0000   1.0000   1.0000   1.0000
     1.0000   1.0000   1.0000   1.0000   1.0000   1.0000   1.0000   1.0000
     1.0000   1.0000   1.0000   1.0000   1.0000   1.0000   1.0000   1.0000
     1.0000   1.0000   1.0000   1.0000   1.0000   1.0000   1.0000   1.0000
     1.0000   1.0000   1.0000   1.0000   1.0000   1.0000   1.0000   0.0000
     0.0000   0.0000   0.0000   0.0000   0.0000   0.0000   0.0000   0.0000
     0.0000   0.0000   0.0000   0.0000   0.0000   0.0000   0.0000   0.0000
     0.0000   0.0000   0.0000   0.0000

          k = 0.3077 0.5327 0.0000 ( 23849 PWs)   bands (ev):

   -34.5134 -34.5131 -34.5130 -34.5129 -34.4883 -34.4880 -34.4878 -34.4877
   -34.4753 -34.4751 -34.3760 -34.3663 -34.3661 -34.3232 -34.3230 -27.3064
   -27.3060 -27.3049 -27.3043 -27.2961 -27.2958 -27.2955 -27.2951 -27.2888
   -27.2884  -8.5636  -8.4801  -8.4192  -7.1591  -7.1561  -2.3927  -2.0980
    -1.7707  -1.3498  -0.7789  -0.5005   0.5327   1.3889   1.4845   3.5843
     4.0926   4.1470   5.4594   5.9216   6.0113   8.0355   8.0598   8.6191
     8.7608   9.0792   9.3498   9.4778   9.7036   9.8077  10.1177  10.6016
    10.7902  10.8683  11.0701  11.3499

     occupation numbers 
     1.0000   1.0000   1.0000   1.0000   1.0000   1.0000   1.0000   1.0000
     1.0000   1.0000   1.0000   1.0000   1.0000   1.0000   1.0000   1.0000
     1.0000   1.0000   1.0000   1.0000   1.0000   1.0000   1.0000   1.0000
     1.0000   1.0000   1.0000   1.0000   1.0000   1.0000   1.0000   1.0000
     1.0000   1.0000   1.0000   1.0000   1.0000   1.0000   1.0000   0.0000
     0.0000   0.0000   0.0000   0.0000   0.0000   0.0000   0.0000   0.0000
     0.0000   0.0000   0.0000   0.0000   0.0000   0.0000   0.0000   0.0000
     0.0000   0.0000   0.0000   0.0000

          k = 0.3077-0.0888 0.0000 ( 23805 PWs)   bands (ev):

   -34.5139 -34.5138 -34.5133 -34.5130 -34.4881 -34.4880 -34.4877 -34.4875
   -34.4757 -34.4755 -34.3764 -34.3661 -34.3660 -34.3239 -34.3231 -27.3075
   -27.3070 -27.3047 -27.3041 -27.2961 -27.2955 -27.2950 -27.2944 -27.2899
   -27.2894  -9.8366  -9.3882  -8.5836  -6.3838  -5.7465  -1.8840  -1.2026
    -0.7285  -0.4880  -0.2458   0.3629   0.9420   1.2107   1.9123   3.3554
     3.4981   4.0286   4.7148   5.1250   5.6208   6.4167   7.2911   7.5547
     8.0292   8.3273   8.5693   9.1118   9.5708   9.9796  10.1491  10.3398
    10.5453  10.8025  11.4879  11.5767

     occupation numbers 
     1.0000   1.0000   1.0000   1.0000   1.0000   1.0000   1.0000   1.0000
     1.0000   1.0000   1.0000   1.0000   1.0000   1.0000   1.0000   1.0000
     1.0000   1.0000   1.0000   1.0000   1.0000   1.0000   1.0000   1.0000
     1.0000   1.0000   1.0000   1.0000   1.0000   1.0000   1.0000   1.0000
     1.0000   1.0000   1.0000   1.0000   1.0000   1.0000   1.0000   0.0000
     0.0000   0.0000   0.0000   0.0000   0.0000   0.0000   0.0000   0.0000
     0.0000   0.0000   0.0000   0.0000   0.0000   0.0000   0.0000   0.0000
     0.0000   0.0000   0.0000   0.0000

          k = 0.3077-0.0000 0.0000 ( 23773 PWs)   bands (ev):

   -34.5139 -34.5138 -34.5134 -34.5131 -34.4881 -34.4879 -34.4877 -34.4875
   -34.4757 -34.4756 -34.3764 -34.3662 -34.3660 -34.3238 -34.3232 -27.3073
   -27.3068 -27.3049 -27.3044 -27.2959 -27.2955 -27.2949 -27.2945 -27.2900
   -27.2895  -9.8836  -9.4282  -8.5977  -6.3457  -5.6897  -1.5851  -1.4446
    -0.5684  -0.5524  -0.2337   0.2487   0.9545   1.6846   1.7273   3.2479
     3.7904   3.9129   4.4887   5.3733   5.4375   6.9269   7.0006   7.3849
     7.7520   8.3446   8.4059   8.7757   9.6235   9.9885  10.2399  10.3222
    10.5129  10.9933  11.3330  11.3705

     occupation numbers 
     1.0000   1.0000   1.0000   1.0000   1.0000   1.0000   1.0000   1.0000
     1.0000   1.0000   1.0000   1.0000   1.0000   1.0000   1.0000   1.0000
     1.0000   1.0000   1.0000   1.0000   1.0000   1.0000   1.0000   1.0000
     1.0000   1.0000   1.0000   1.0000   1.0000   1.0000   1.0000   1.0000
     1.0000   1.0000   1.0000   1.0000   1.0000   1.0000   1.0000   0.0000
     0.0000   0.0000   0.0000   0.0000   0.0000   0.0000   0.0000   0.0000
     0.0000   0.0000   0.0000   0.0000   0.0000   0.0000   0.0000   0.0000
     0.0000   0.0000   0.0000   0.0000

          k = 0.3846 0.2220 0.0000 ( 23835 PWs)   bands (ev):

   -34.5140 -34.5138 -34.5128 -34.5126 -34.4882 -34.4880 -34.4878 -34.4876
   -34.4755 -34.4753 -34.3762 -34.3664 -34.3660 -34.3239 -34.3227 -27.3082
   -27.3076 -27.3036 -27.3030 -27.2966 -27.2960 -27.2950 -27.2942 -27.2892
   -27.2888  -9.3073  -8.9709  -8.4981  -6.8072  -6.3001  -2.5370  -1.5106
    -0.9441  -0.8833  -0.2801  -0.0140   0.7349   1.1568   1.4058   3.2300
     3.7471   3.8899   5.0089   5.2470   5.7977   6.1083   7.3884   8.1700
     8.5283   9.1799   9.5649   9.7317   9.9684  10.4594  10.6851  10.8197
    11.1377  11.2295  11.3679  11.6778

     occupation numbers 
     1.0000   1.0000   1.0000   1.0000   1.0000   1.0000   1.0000   1.0000
     1.0000   1.0000   1.0000   1.0000   1.0000   1.0000   1.0000   1.0000
     1.0000   1.0000   1.0000   1.0000   1.0000   1.0000   1.0000   1.0000
     1.0000   1.0000   1.0000   1.0000   1.0000   1.0000   1.0000   1.0000
     1.0000   1.0000   1.0000   1.0000   1.0000   1.0000   1.0000   0.0000
     0.0000   0.0000   0.0000   0.0000   0.0000   0.0000   0.0000   0.0000
     0.0000   0.0000   0.0000   0.0000   0.0000   0.0000   0.0000   0.0000
     0.0000   0.0000   0.0000   0.0000

          k = 0.3846 0.3108 0.0000 ( 23823 PWs)   bands (ev):

   -34.5139 -34.5137 -34.5127 -34.5125 -34.4882 -34.4880 -34.4878 -34.4876
   -34.4754 -34.4752 -34.3761 -34.3664 -34.3660 -34.3238 -34.3226 -27.3082
   -27.3076 -27.3035 -27.3029 -27.2967 -27.2961 -27.2951 -27.2943 -27.2890
   -27.2886  -9.0745  -8.8149  -8.5111  -6.9665  -6.4972  -2.6261  -1.5148
    -1.2852  -0.9992  -0.4477  -0.0362   0.7083   1.0552   1.5031   3.4823
     3.5124   3.9254   5.1576   5.3202   5.8786   6.1402   7.4571   8.4751
     8.7291   9.3155   9.5255   9.5872  10.0778  10.2846  10.6916  10.9571
    11.1929  11.3313  11.8775  11.9422

     occupation numbers 
     1.0000   1.0000   1.0000   1.0000   1.0000   1.0000   1.0000   1.0000
     1.0000   1.0000   1.0000   1.0000   1.0000   1.0000   1.0000   1.0000
     1.0000   1.0000   1.0000   1.0000   1.0000   1.0000   1.0000   1.0000
     1.0000   1.0000   1.0000   1.0000   1.0000   1.0000   1.0000   1.0000
     1.0000   1.0000   1.0000   1.0000   1.0000   1.0000   1.0000   0.0000
     0.0000   0.0000   0.0000   0.0000   0.0000   0.0000   0.0000   0.0000
     0.0000   0.0000   0.0000   0.0000   0.0000   0.0000   0.0000   0.0000
     0.0000   0.0000   0.0000   0.0000

          k = 0.3846 0.3996 0.0000 ( 23825 PWs)   bands (ev):

   -34.5137 -34.5135 -34.5128 -34.5126 -34.4883 -34.4880 -34.4878 -34.4876
   -34.4754 -34.4752 -34.3760 -34.3664 -34.3660 -34.3236 -34.3226 -27.3077
   -27.3072 -27.3039 -27.3033 -27.2966 -27.2960 -27.2952 -27.2945 -27.2889
   -27.2885  -8.8028  -8.6530  -8.5284  -7.0974  -6.7462  -2.5993  -1.6973
    -1.5394  -1.1514  -0.5952  -0.3477   0.7237   1.1097   1.6120   3.4227
     3.8598   4.0003   5.1203   5.6533   6.0823   6.3563   7.6625   8.7404
     9.0407   9.1750   9.3245   9.7971  10.0449  10.1316  10.7001  10.7295
    10.8806  11.1207  11.4087  11.9011

     occupation numbers 
     1.0000   1.0000   1.0000   1.0000   1.0000   1.0000   1.0000   1.0000
     1.0000   1.0000   1.0000   1.0000   1.0000   1.0000   1.0000   1.0000
     1.0000   1.0000   1.0000   1.0000   1.0000   1.0000   1.0000   1.0000
     1.0000   1.0000   1.0000   1.0000   1.0000   1.0000   1.0000   1.0000
     1.0000   1.0000   1.0000   1.0000   1.0000   1.0000   1.0000   0.0000
     0.0000   0.0000   0.0000   0.0000   0.0000   0.0000   0.0000   0.0000
     0.0000   0.0000   0.0000   0.0000   0.0000   0.0000   0.0000   0.0000
     0.0000   0.0000   0.0000   0.0000

          k = 0.3846 0.4883 0.0000 ( 23815 PWs)   bands (ev):

   -34.5135 -34.5133 -34.5129 -34.5127 -34.4882 -34.4880 -34.4878 -34.4876
   -34.4754 -34.4752 -34.3760 -34.3664 -34.3661 -34.3234 -34.3228 -27.3069
   -27.3065 -27.3045 -27.3039 -27.2963 -27.2958 -27.2955 -27.2949 -27.2888
   -27.2885  -8.5713  -8.5453  -8.5036  -7.1752  -6.9970  -2.4796  -1.9776
    -1.7301  -1.1991  -0.7241  -0.5619   0.6384   1.3329   1.4860   3.6951
     3.8015   4.1536   5.5298   5.6125   6.1070   7.0617   8.0761   8.9209
     9.0140   9.1967   9.3125   9.5745   9.8264  10.0161  10.2174  10.4832
    10.7500  10.9761  10.9946  11.6435

     occupation numbers 
     1.0000   1.0000   1.0000   1.0000   1.0000   1.0000   1.0000   1.0000
     1.0000   1.0000   1.0000   1.0000   1.0000   1.0000   1.0000   1.0000
     1.0000   1.0000   1.0000   1.0000   1.0000   1.0000   1.0000   1.0000
     1.0000   1.0000   1.0000   1.0000   1.0000   1.0000   1.0000   1.0000
     1.0000   1.0000   1.0000   1.0000   1.0000   1.0000   1.0000   0.0000
     0.0000   0.0000   0.0000   0.0000   0.0000   0.0000   0.0000   0.0000
     0.0000   0.0000   0.0000   0.0000   0.0000   0.0000   0.0000   0.0000
     0.0000   0.0000   0.0000   0.0000

          k = 0.3846 0.5771 0.0000 ( 23851 PWs)   bands (ev):

   -34.5133 -34.5132 -34.5131 -34.5128 -34.4882 -34.4880 -34.4878 -34.4876
   -34.4753 -34.4751 -34.3760 -34.3663 -34.3661 -34.3232 -34.3229 -27.3064
   -27.3060 -27.3049 -27.3043 -27.2961 -27.2958 -27.2955 -27.2951 -27.2888
   -27.2884  -8.5630  -8.4798  -8.4191  -7.1596  -7.1562  -2.3930  -2.0984
    -1.7702  -1.3500  -0.7790  -0.5003   0.5324   1.3889   1.4839   3.5842
     4.0932   4.1453   5.4589   5.9203   6.0120   8.0332   8.0576   8.6183
     8.7601   9.0811   9.3506   9.4807   9.7043   9.8083  10.1174  10.6032
    10.7916  10.8676  11.0693  11.3493

     occupation numbers 
     1.0000   1.0000   1.0000   1.0000   1.0000   1.0000   1.0000   1.0000
     1.0000   1.0000   1.0000   1.0000   1.0000   1.0000   1.0000   1.0000
     1.0000   1.0000   1.0000   1.0000   1.0000   1.0000   1.0000   1.0000
     1.0000   1.0000   1.0000   1.0000   1.0000   1.0000   1.0000   1.0000
     1.0000   1.0000   1.0000   1.0000   1.0000   1.0000   1.0000   0.0000
     0.0000   0.0000   0.0000   0.0000   0.0000   0.0000   0.0000   0.0000
[...]

   -35.4645 -35.4644 -35.4539 -35.4539 -35.4286 -35.4285 -35.4256 -35.4254
   -35.4025 -35.4024 -35.0159 -35.0038 -34.9991 -34.9601 -34.9585 -28.3925
   -28.3915 -28.3834 -28.3824 -28.3704 -28.3698 -28.3613 -28.3605 -28.3445
   -28.3438 -11.3268 -10.9228  -9.9640  -7.8113  -7.1421  -3.0731  -2.3260
    -1.7855  -1.6089  -1.2912  -0.5710   0.4612   0.6477   1.4760   3.4198
     3.5631   4.0194   5.1572   5.5984   6.0864   7.0923   7.5459   7.8786
     8.4949   8.8614   9.1020   9.8856   9.9511  10.8043  10.8503  10.9494
    11.2226  11.6168  12.1784  12.3407

     occupation numbers 
     1.0000   1.0000   1.0000   1.0000   1.0000   1.0000   1.0000   1.0000
     1.0000   1.0000   1.0000   1.0000   1.0000   1.0000   1.0000   1.0000
     1.0000   1.0000   1.0000   1.0000   1.0000   1.0000   1.0000   1.0000
     1.0000   1.0000   1.0000   1.0000   1.0000   1.0000   1.0000   1.0000
     1.0000   1.0000   1.0000   1.0000   1.0000   1.0000   1.0000   0.0000
     0.0000   0.0000   0.0000   0.0000   0.0000   0.0000   0.0000   0.0000
     0.0000   0.0000   0.0000   0.0000   0.0000   0.0000   0.0000   0.0000
     0.0000   0.0000   0.0000   0.0000

          k =-0.3846 0.2220 0.0000 ( 23835 PWs)   bands (ev):

   -35.4557 -35.4552 -35.4439 -35.4438 -35.4219 -35.4218 -35.4170 -35.4166
   -35.3955 -35.3955 -35.0123 -34.9997 -34.9840 -34.9509 -34.9424 -28.3910
   -28.3896 -28.3809 -28.3800 -28.3713 -28.3708 -28.3605 -28.3598 -28.3401
   -28.3394 -10.7729 -10.4865  -9.8684  -8.2684  -7.7152  -3.7396  -2.5665
    -2.1160  -1.9205  -1.4180  -0.9388   0.3238   0.5970   1.0080   3.2293
     3.8162   3.8525   5.5281   5.6785   6.3890   6.6579   7.9233   8.3663
     8.8785   9.4178  10.1346  10.2340  10.4485  11.0286  11.1890  11.4636
    11.7260  11.8130  12.0491  12.1520

     occupation numbers 
     1.0000   1.0000   1.0000   1.0000   1.0000   1.0000   1.0000   1.0000
     1.0000   1.0000   1.0000   1.0000   1.0000   1.0000   1.0000   1.0000
     1.0000   1.0000   1.0000   1.0000   1.0000   1.0000   1.0000   1.0000
     1.0000   1.0000   1.0000   1.0000   1.0000   1.0000   1.0000   1.0000
     1.0000   1.0000   1.0000   1.0000   1.0000   1.0000   1.0000   0.0000
     0.0000   0.0000   0.0000   0.0000   0.0000   0.0000   0.0000   0.0000
     0.0000   0.0000   0.0000   0.0000   0.0000   0.0000   0.0000   0.0000
     0.0000   0.0000   0.0000   0.0000

          k =-0.3846 0.3108 0.0000 ( 23823 PWs)   bands (ev):

   -35.4516 -35.4510 -35.4400 -35.4398 -35.4211 -35.4209 -35.4161 -35.4159
   -35.3977 -35.3976 -35.0101 -35.0013 -34.9876 -34.9450 -34.9388 -28.3894
   -28.3880 -28.3778 -28.3769 -28.3683 -28.3677 -28.3603 -28.3596 -28.3409
   -28.3403 -10.5302 -10.3224  -9.8817  -8.4354  -7.9229  -3.8293  -2.5711
    -2.4202  -2.1164  -1.5087  -1.0050   0.2882   0.5454   1.0995   3.4901
     3.5391   3.9166   5.6115   5.8063   6.4554   6.7031   8.0460   8.6966
     9.0803   9.6515   9.9447  10.0242  10.5712  10.8229  11.1467  11.2338
    11.7211  11.9171  12.3294  12.6858

     occupation numbers 
     1.0000   1.0000   1.0000   1.0000   1.0000   1.0000   1.0000   1.0000
     1.0000   1.0000   1.0000   1.0000   1.0000   1.0000   1.0000   1.0000
     1.0000   1.0000   1.0000   1.0000   1.0000   1.0000   1.0000   1.0000
     1.0000   1.0000   1.0000   1.0000   1.0000   1.0000   1.0000   1.0000
     1.0000   1.0000   1.0000   1.0000   1.0000   1.0000   1.0000   0.0000
     0.0000   0.0000   0.0000   0.0000   0.0000   0.0000   0.0000   0.0000
     0.0000   0.0000   0.0000   0.0000   0.0000   0.0000   0.0000   0.0000
     0.0000   0.0000   0.0000   0.0000

          k =-0.3846 0.3996 0.0000 ( 23825 PWs)   bands (ev):

   -35.4483 -35.4479 -35.4406 -35.4405 -35.4214 -35.4212 -35.4118 -35.4114
   -35.3949 -35.3948 -35.0077 -35.0041 -34.9936 -34.9421 -34.9388 -28.3836
   -28.3823 -28.3738 -28.3729 -28.3608 -28.3603 -28.3585 -28.3578 -28.3420
   -28.3414 -10.2473 -10.1446  -9.8934  -8.5725  -8.1874  -3.7993  -2.8550
    -2.6823  -2.2181  -1.5959  -1.3677   0.3078   0.6435   1.2167   3.4469
     3.8665   3.9740   5.5964   6.1071   6.5328   7.0600   8.3086   9.0710
     9.3642   9.6322   9.8250  10.0822  10.4503  10.6453  11.0164  11.1485
    11.4726  11.8209  11.8804  12.3615

     occupation numbers 
     1.0000   1.0000   1.0000   1.0000   1.0000   1.0000   1.0000   1.0000
     1.0000   1.0000   1.0000   1.0000   1.0000   1.0000   1.0000   1.0000
     1.0000   1.0000   1.0000   1.0000   1.0000   1.0000   1.0000   1.0000
     1.0000   1.0000   1.0000   1.0000   1.0000   1.0000   1.0000   1.0000
     1.0000   1.0000   1.0000   1.0000   1.0000   1.0000   1.0000   0.0000
     0.0000   0.0000   0.0000   0.0000   0.0000   0.0000   0.0000   0.0000
     0.0000   0.0000   0.0000   0.0000   0.0000   0.0000   0.0000   0.0000
     0.0000   0.0000   0.0000   0.0000

          k =-0.3846 0.4883 0.0000 ( 23815 PWs)   bands (ev):

   -35.4434 -35.4431 -35.4345 -35.4344 -35.4188 -35.4187 -35.4110 -35.4107
   -35.3942 -35.3942 -34.9998 -34.9979 -34.9922 -34.9393 -34.9373 -28.3801
   -28.3789 -28.3741 -28.3732 -28.3577 -28.3571 -28.3553 -28.3547 -28.3457
   -28.3451 -10.0231 -10.0101  -9.8332  -8.6587  -8.4619  -3.6803  -3.1583
    -2.8888  -2.2654  -1.7640  -1.5426   0.1942   0.9188   1.1114   3.7088
     3.8122   4.1045   6.0043   6.0732   6.5471   7.7984   8.7367   9.3909
     9.5277   9.6385   9.7796  10.2177  10.2246  10.5055  10.6374  10.8729
    11.0646  11.3125  11.4760  11.9459

     occupation numbers 
     1.0000   1.0000   1.0000   1.0000   1.0000   1.0000   1.0000   1.0000
     1.0000   1.0000   1.0000   1.0000   1.0000   1.0000   1.0000   1.0000
     1.0000   1.0000   1.0000   1.0000   1.0000   1.0000   1.0000   1.0000
     1.0000   1.0000   1.0000   1.0000   1.0000   1.0000   1.0000   1.0000
     1.0000   1.0000   1.0000   1.0000   1.0000   1.0000   1.0000   0.0000
     0.0000   0.0000   0.0000   0.0000   0.0000   0.0000   0.0000   0.0000
     0.0000   0.0000   0.0000   0.0000   0.0000   0.0000   0.0000   0.0000
     0.0000   0.0000   0.0000   0.0000

          k =-0.3846-0.1332 0.0000 ( 23841 PWs)   bands (ev):

   -35.4564 -35.4564 -35.4456 -35.4456 -35.4237 -35.4234 -35.4195 -35.4191
   -35.3983 -35.3982 -35.0117 -35.0010 -34.9907 -34.9506 -34.9464 -28.3908
   -28.3895 -28.3801 -28.3791 -28.3696 -28.3690 -28.3614 -28.3607 -28.3426
   -28.3419 -10.9443 -10.6098  -9.8610  -8.1034  -7.5913  -3.5417  -2.5341
    -2.1622  -1.9069  -1.4108  -0.7997   0.3030   0.5825   1.2867   3.4549
     3.5841   3.9999   5.4125   5.7629   6.3808   6.8328   7.9352   8.1443
     8.7526   9.1830   9.5951  10.2014  10.3114  10.7384  11.0850  11.4536
    11.4987  11.9541  12.1071  12.2264

     occupation numbers 
     1.0000   1.0000   1.0000   1.0000   1.0000   1.0000   1.0000   1.0000
     1.0000   1.0000   1.0000   1.0000   1.0000   1.0000   1.0000   1.0000
     1.0000   1.0000   1.0000   1.0000   1.0000   1.0000   1.0000   1.0000
     1.0000   1.0000   1.0000   1.0000   1.0000   1.0000   1.0000   1.0000
     1.0000   1.0000   1.0000   1.0000   1.0000   1.0000   1.0000   0.0000
     0.0000   0.0000   0.0000   0.0000   0.0000   0.0000   0.0000   0.0000
     0.0000   0.0000   0.0000   0.0000   0.0000   0.0000   0.0000   0.0000
     0.0000   0.0000   0.0000   0.0000

          k =-0.3846-0.0444 0.0000 ( 23816 PWs)   bands (ev):

   -35.4564 -35.4561 -35.4489 -35.4488 -35.4270 -35.4270 -35.4181 -35.4177
   -35.3957 -35.3955 -35.0168 -35.0085 -34.9987 -34.9482 -34.9477 -28.3883
   -28.3876 -28.3785 -28.3778 -28.3642 -28.3636 -28.3592 -28.3586 -28.3466
   -28.3460 -11.0314 -10.6671  -9.8636  -7.9946  -7.5409  -3.2377  -2.8410
    -2.1159  -1.8444  -1.5366  -0.9396   0.5447   0.7873   1.2992   3.4368
     3.8769   3.9555   5.2679   6.0026   6.2114   7.3730   7.8668   8.1123
     8.4891   8.8706   9.0715   9.7473  10.2208  10.6167  11.1654  11.2826
    11.6516  12.0331  12.3489  12.6058

     occupation numbers 
     1.0000   1.0000   1.0000   1.0000   1.0000   1.0000   1.0000   1.0000
     1.0000   1.0000   1.0000   1.0000   1.0000   1.0000   1.0000   1.0000
     1.0000   1.0000   1.0000   1.0000   1.0000   1.0000   1.0000   1.0000
     1.0000   1.0000   1.0000   1.0000   1.0000   1.0000   1.0000   1.0000
     1.0000   1.0000   1.0000   1.0000   1.0000   1.0000   1.0000   0.0000
     0.0000   0.0000   0.0000   0.0000   0.0000   0.0000   0.0000   0.0000
     0.0000   0.0000   0.0000   0.0000   0.0000   0.0000   0.0000   0.0000
     0.0000   0.0000   0.0000   0.0000

          k =-0.4615 0.2664 0.0000 ( 23850 PWs)   bands (ev):

   -35.4522 -35.4516 -35.4395 -35.4393 -35.4223 -35.4222 -35.4148 -35.4143
   -35.3976 -35.3975 -35.0128 -35.0017 -34.9835 -34.9477 -34.9383 -28.3891
   -28.3877 -28.3787 -28.3780 -28.3699 -28.3693 -28.3580 -28.3574 -28.3375
   -28.3369 -10.3729 -10.2575  -9.9855  -8.5392  -7.9538  -3.9385  -2.5439
    -2.2243  -2.2086  -1.5136  -0.9967   0.3430   0.5506   0.8579   3.1486
     3.8197   3.8356   5.5576   5.7785   6.3781   6.5669   8.0468   8.9539
     9.2570   9.5825   9.8583  10.0309  10.5721  10.6782  11.2252  11.8555
    11.9971  12.4034  12.4622  12.7520

     occupation numbers 
     1.0000   1.0000   1.0000   1.0000   1.0000   1.0000   1.0000   1.0000
     1.0000   1.0000   1.0000   1.0000   1.0000   1.0000   1.0000   1.0000
     1.0000   1.0000   1.0000   1.0000   1.0000   1.0000   1.0000   1.0000
     1.0000   1.0000   1.0000   1.0000   1.0000   1.0000   1.0000   1.0000
     1.0000   1.0000   1.0000   1.0000   1.0000   1.0000   1.0000   0.0000
     0.0000   0.0000   0.0000   0.0000   0.0000   0.0000   0.0000   0.0000
     0.0000   0.0000   0.0000   0.0000   0.0000   0.0000   0.0000   0.0000
     0.0000   0.0000   0.0000   0.0000

          k =-0.4615 0.3552 0.0000 ( 23826 PWs)   bands (ev):

   -35.4500 -35.4494 -35.4379 -35.4377 -35.4200 -35.4199 -35.4155 -35.4151
   -35.3980 -35.3980 -35.0096 -35.0020 -34.9870 -34.9430 -34.9363 -28.3887
   -28.3873 -28.3770 -28.3762 -28.3677 -28.3672 -28.3596 -28.3589 -28.3401
   -28.3395 -10.2310 -10.1933 -10.0267  -8.5894  -8.0498  -3.9279  -2.5839
    -2.4414  -2.2334  -1.5803  -1.0570   0.3409   0.4810   1.0314   3.4497
     3.5959   3.8451   5.6893   5.8089   6.5359   6.5612   8.1314   9.1699
     9.4000   9.4804   9.6776  10.2647  10.4275  10.5829  11.2191  11.7991
    11.8584  12.1632  12.4597  12.6238

     occupation numbers 
     1.0000   1.0000   1.0000   1.0000   1.0000   1.0000   1.0000   1.0000
     1.0000   1.0000   1.0000   1.0000   1.0000   1.0000   1.0000   1.0000
     1.0000   1.0000   1.0000   1.0000   1.0000   1.0000   1.0000   1.0000
     1.0000   1.0000   1.0000   1.0000   1.0000   1.0000   1.0000   1.0000
     1.0000   1.0000   1.0000   1.0000   1.0000   1.0000   1.0000   0.0000
     0.0000   0.0000   0.0000   0.0000   0.0000   0.0000   0.0000   0.0000
     0.0000   0.0000   0.0000   0.0000   0.0000   0.0000   0.0000   0.0000
     0.0000   0.0000   0.0000   0.0000

          k =-0.4615 0.4439 0.0000 ( 23833 PWs)   bands (ev):

   -35.4484 -35.4479 -35.4406 -35.4405 -35.4214 -35.4212 -35.4119 -35.4113
   -35.3949 -35.3948 -35.0077 -35.0041 -34.9937 -34.9421 -34.9388 -28.3836
   -28.3823 -28.3738 -28.3729 -28.3609 -28.3603 -28.3584 -28.3578 -28.3420
   -28.3414 -10.2470 -10.1444  -9.8935  -8.5726  -8.1874  -3.7994  -2.8562
    -2.6812  -2.2181  -1.5962  -1.3673   0.3079   0.6433   1.2164   3.4469
     3.8660   3.9738   5.5956   6.1074   6.5325   7.0597   8.3083   9.0717
     9.3651   9.6309   9.8226  10.0823  10.4483  10.6447  11.0145  11.1485
    11.4707  11.8239  11.8830  12.3613

     occupation numbers 
     1.0000   1.0000   1.0000   1.0000   1.0000   1.0000   1.0000   1.0000
     1.0000   1.0000   1.0000   1.0000   1.0000   1.0000   1.0000   1.0000
     1.0000   1.0000   1.0000   1.0000   1.0000   1.0000   1.0000   1.0000
     1.0000   1.0000   1.0000   1.0000   1.0000   1.0000   1.0000   1.0000
     1.0000   1.0000   1.0000   1.0000   1.0000   1.0000   1.0000   0.0000
     0.0000   0.0000   0.0000   0.0000   0.0000   0.0000   0.0000   0.0000
     0.0000   0.0000   0.0000   0.0000   0.0000   0.0000   0.0000   0.0000
     0.0000   0.0000   0.0000   0.0000

          k =-0.4615 0.5327 0.0000 ( 23819 PWs)   bands (ev):

   -35.4451 -35.4447 -35.4341 -35.4341 -35.4200 -35.4199 -35.4120 -35.4115
   -35.3954 -35.3953 -35.0039 -34.9998 -34.9920 -34.9399 -34.9382 -28.3809
   -28.3799 -28.3747 -28.3740 -28.3578 -28.3572 -28.3558 -28.3552 -28.3462
   -28.3456 -10.2823 -10.1178  -9.7602  -8.5034  -8.3340  -3.5813  -3.2658
    -2.6108  -2.2375  -1.9547  -1.3242   0.2844   0.8715   1.1355   3.6479
     3.8693   4.0886   5.8261   6.2074   6.4457   7.8503   8.6411   8.8146
     9.1457   9.3404   9.6454  10.0122  10.4133  10.5708  10.8065  11.2004
    11.4362  11.4934  11.6889  11.9845

     occupation numbers 
     1.0000   1.0000   1.0000   1.0000   1.0000   1.0000   1.0000   1.0000
     1.0000   1.0000   1.0000   1.0000   1.0000   1.0000   1.0000   1.0000
     1.0000   1.0000   1.0000   1.0000   1.0000   1.0000   1.0000   1.0000
     1.0000   1.0000   1.0000   1.0000   1.0000   1.0000   1.0000   1.0000
     1.0000   1.0000   1.0000   1.0000   1.0000   1.0000   1.0000   0.0000
     0.0000   0.0000   0.0000   0.0000   0.0000   0.0000   0.0000   0.0000
     0.0000   0.0000   0.0000   0.0000   0.0000   0.0000   0.0000   0.0000
     0.0000   0.0000   0.0000   0.0000

          k =-0.4615-0.1776 0.0000 ( 23827 PWs)   bands (ev):

   -35.4514 -35.4513 -35.4399 -35.4399 -35.4212 -35.4209 -35.4160 -35.4157
   -35.3977 -35.3976 -35.0099 -35.0013 -34.9877 -34.9449 -34.9388 -28.3893
   -28.3880 -28.3778 -28.3770 -28.3684 -28.3677 -28.3602 -28.3596 -28.3409
   -28.3403 -10.5301 -10.3228  -9.8815  -8.4347  -7.9230  -3.8299  -2.5706
    -2.4215  -2.1153  -1.5091  -1.0043   0.2884   0.5452   1.0993   3.4893
     3.5392   3.9158   5.6098   5.8071   6.4556   6.7031   8.0460   8.6969
     9.0809   9.6515   9.9438  10.0227  10.5712  10.8205  11.1459  11.2317
    11.7191  11.9164  12.3294  12.6878

     occupation numbers 
     1.0000   1.0000   1.0000   1.0000   1.0000   1.0000   1.0000   1.0000
     1.0000   1.0000   1.0000   1.0000   1.0000   1.0000   1.0000   1.0000
     1.0000   1.0000   1.0000   1.0000   1.0000   1.0000   1.0000   1.0000
     1.0000   1.0000   1.0000   1.0000   1.0000   1.0000   1.0000   1.0000
     1.0000   1.0000   1.0000   1.0000   1.0000   1.0000   1.0000   0.0000
     0.0000   0.0000   0.0000   0.0000   0.0000   0.0000   0.0000   0.0000
     0.0000   0.0000   0.0000   0.0000   0.0000   0.0000   0.0000   0.0000
     0.0000   0.0000   0.0000   0.0000

          k =-0.4615-0.0888 0.0000 ( 23823 PWs)   bands (ev):

   -35.4504 -35.4502 -35.4430 -35.4430 -35.4247 -35.4246 -35.4139 -35.4137
   -35.3967 -35.3965 -35.0120 -35.0063 -34.9953 -34.9449 -34.9429 -28.3844
   -28.3833 -28.3751 -28.3742 -28.3614 -28.3608 -28.3578 -28.3572 -28.3427
   -28.3421 -10.6348 -10.3660  -9.8103  -8.3032  -7.9460  -3.6141  -2.8779
    -2.3640  -2.2424  -1.5913  -1.1229   0.3529   0.6801   1.2852   3.3543
     3.9587   4.0293   5.4302   6.0823   6.4471   7.1805   8.2096   8.5057
     8.9841   9.1776   9.6164   9.8919  10.4467  10.6500  11.0105  11.2859
    11.6600  11.7483  12.2558  12.2729

     occupation numbers 
     1.0000   1.0000   1.0000   1.0000   1.0000   1.0000   1.0000   1.0000
     1.0000   1.0000   1.0000   1.0000   1.0000   1.0000   1.0000   1.0000
     1.0000   1.0000   1.0000   1.0000   1.0000   1.0000   1.0000   1.0000
     1.0000   1.0000   1.0000   1.0000   1.0000   1.0000   1.0000   1.0000
     1.0000   1.0000   1.0000   1.0000   1.0000   1.0000   1.0000   0.0000
     0.0000   0.0000   0.0000   0.0000   0.0000   0.0000   0.0000   0.0000
     0.0000   0.0000   0.0000   0.0000   0.0000   0.0000   0.0000   0.0000
     0.0000   0.0000   0.0000   0.0000

     highest occupied, lowest unoccupied level (ev):     1.5310    2.8316

!    total energy              =    -804.24491992 Ry
     estimated scf accuracy    <       0.00000035 Ry

     convergence has been achieved in   4 iterations

     Using ACE for calculation of exact exchange
     ACE projected onto    60 (nbndproj) and applied to    60 (nbnd) bands
     BEWARE: negative dexx:  -0.354E-06

!!   total energy              =    -804.24491957 Ry
     Harris-Foulkes estimate   =    -804.24491991 Ry
     est. exchange err (dexx)  =       0.00000035 Ry
     - averaged Fock potential =      27.31406503 Ry
     + Fock energy (ACE)       =     -13.65706954 Ry

     EXX self-consistency reached

     Writing all to output data dir tmp/Sb2Te3-uatsx-c1-0.0.save/ :
     XML data file, charge density, pseudopotentials, collected wavefunctions

     init_run     :      3.63s CPU      3.94s WALL (       1 calls)
     electrons    :    639.40s CPU    648.62s WALL (       6 calls)

     Called by init_run:
     aceinit0     :      0.00s CPU      0.00s WALL (       1 calls)
     wfcinit      :      3.27s CPU      3.37s WALL (       1 calls)
     wfcinit:wfcr :      3.16s CPU      3.26s WALL (      85 calls)
     potinit      :      0.02s CPU      0.02s WALL (       1 calls)
     hinit0       :      0.30s CPU      0.51s WALL (       1 calls)

     Called by electrons:
     c_bands      :    591.29s CPU    599.28s WALL (      35 calls)
     sum_band     :     47.25s CPU     48.11s WALL (      35 calls)
     v_of_rho     :      0.58s CPU      0.59s WALL (      36 calls)
     v_h          :      0.06s CPU      0.06s WALL (      36 calls)
     v_xc         :      0.52s CPU      0.54s WALL (      36 calls)
     mix_rho      :      0.07s CPU      0.07s WALL (      35 calls)
     energy_londo :      0.06s CPU      0.06s WALL (       6 calls)

     Called by c_bands:
     init_us_2    :      1.72s CPU      1.79s WALL (    6035 calls)
     cegterg      :    585.38s CPU    593.14s WALL (    2975 calls)

     Called by sum_band:
     sum_band:wei :      0.00s CPU      0.00s WALL (      35 calls)
     sum_band:loo :     47.14s CPU     48.00s WALL (      35 calls)
     sum_band:buf :      0.62s CPU      0.65s WALL (    2975 calls)
     sum_band:ini :      0.91s CPU      0.93s WALL (    2975 calls)

     Called by *egterg:
     cdiaghg      :    155.55s CPU    156.38s WALL (   31039 calls)
     cegterg:over :     35.12s CPU     35.47s WALL (   28574 calls)
     cegterg:upda :      9.09s CPU      9.20s WALL (   28574 calls)
     cegterg:last :      9.97s CPU     10.07s WALL (    8527 calls)
     h_psi        :    357.50s CPU    363.87s WALL (   31634 calls)
     g_psi        :      1.58s CPU      1.60s WALL (   28574 calls)

     Called by h_psi:
     h_psi:calbec :     24.11s CPU     24.44s WALL (   31634 calls)
     vloc_psi     :    311.65s CPU    317.42s WALL (   31634 calls)
     add_vuspsi   :      6.33s CPU      6.42s WALL (   31634 calls)

     General routines
     calbec       :     37.60s CPU     38.18s WALL (   57094 calls)
     fft          :      0.86s CPU      1.08s WALL (     353 calls)
     ffts         :      0.05s CPU      0.05s WALL (      35 calls)
     fftw         :    339.53s CPU    345.70s WALL ( 1396110 calls)
     fftc         :   5897.71s CPU   5941.27s WALL ( 3672000 calls)
     fftcw        :     23.85s CPU     24.24s WALL (   91800 calls)

     Parallel routines

     EXX routines
     exx_grid     :      0.00s CPU      0.00s WALL (       1 calls)
     exxinit      :    132.51s CPU    133.89s WALL (       6 calls)
     vexx         :   6207.02s CPU   6253.67s WALL (     510 calls)
     matcalc      :     13.68s CPU     13.90s WALL (   25460 calls)
     aceupdate    :      0.17s CPU      0.18s WALL (     510 calls)
     vexxace      :     16.76s CPU     16.99s WALL (   24015 calls)
     aceinit      :   6207.87s CPU   6254.56s WALL (     510 calls)

     PWSCF        :      1h56m CPU      1h58m WALL


   This run was terminated on:  17:17:44  14May2025            

=------------------------------------------------------------------------------=
   JOB DONE.
=------------------------------------------------------------------------------=
