
     Program PWSCF v.7.3.1 starts on 14May2025 at 20: 0:39 

     This program is part of the open-source Quantum ESPRESSO suite
     for quantum simulation of materials; please cite
         "P. Giannozzi et al., J. Phys.:Condens. Matter 21 395502 (2009);
         "P. Giannozzi et al., J. Phys.:Condens. Matter 29 465901 (2017);
         "P. Giannozzi et al., J. Chem. Phys. 152 154105 (2020);
          URL http://www.quantum-espresso.org", 
     in publications or presentations arising from this work. More details at
     http://www.quantum-espresso.org/quote

     Parallel version (MPI & OpenMP), running on      72 processor cores
     Number of MPI processes:                72
     Threads/MPI process:                     1

     MPI processes distributed on     3 nodes
     101700 MiB available memory on the printing compute node when the environment starts

     Waiting for input...
     Reading input from standard input

     Current dimensions of program PWSCF are:
     Max number of different atomic species (ntypx) = 10
     Max number of k-points (npk) =  40000
     Max angular momentum in pseudopotentials (lmaxx) =  4

     IMPORTANT: XC functional enforced from input :
     Exchange-correlation= B3LYP-V1R
                           (   7  13   9   7   0   0   0)
     EXX-fraction              =        0.20
     Any further DFT definition will be discarded
     Please, verify this is what you really want

     EXX fraction changed:   0.20

     R & G space division:  proc/nbgrp/npool/nimage =      72
     Subspace diagonalization in iterative solution of the eigenvalue problem:
     a serial algorithm will be used

     EXX: q-point mesh:     1    1    1
     EXX: setup a grid of 85 q-points centered on each k-point
     (k+q)-points:
   0.0000000   0.0000000   0.0000000         1    1
   0.0000000   0.0906005   0.0000000         2    1
   0.0000000   0.1812009   0.0000000         3    1
   0.0000000   0.2718014   0.0000000         4    1
   0.0000000   0.3624018   0.0000000         5    1
   0.0000000   0.4530023   0.0000000         6    1
   0.0000000   0.5436027   0.0000000         7    1
   0.0769231   0.0444120   0.0000000         8    1
   0.0769231   0.1350124   0.0000000         9    1
   0.0769231   0.2256129   0.0000000        10    1
   0.0769231   0.3162134   0.0000000        11    1
   0.0769231   0.4068138   0.0000000        12    1
   0.0769231   0.4974143   0.0000000        13    1
   0.0769231   0.5880147   0.0000000        14    1
   0.0769231  -0.4991908   0.0000000        15    1
   0.0769231  -0.4085903   0.0000000        16    1
   0.0769231  -0.3179898   0.0000000        17    1
   0.0769231  -0.2273894   0.0000000        18    1
   0.0769231  -0.1367889   0.0000000        19    1
   0.0769231  -0.0461885   0.0000000        20    1
   0.1538462   0.0888240   0.0000000        21    1
   0.1538462   0.1794244   0.0000000        22    1
   0.1538462   0.2700249   0.0000000        23    1
   0.1538462   0.3606253   0.0000000        24    1
   0.1538462   0.4512258   0.0000000        25    1
   0.1538462   0.5418263   0.0000000        26    1
   0.1538462   0.6324267   0.0000000        27    1
   0.1538462  -0.4547788   0.0000000        28    1
   0.1538462  -0.3641783   0.0000000        29    1
   0.1538462  -0.2735779   0.0000000        30    1
   0.1538462  -0.1829774   0.0000000        31    1
   0.1538462  -0.0923769   0.0000000        32    1
   0.1538462  -0.0017765   0.0000000        33    1
   0.2307692   0.1332360   0.0000000        34    1
   0.2307692   0.2238364   0.0000000        35    1
   0.2307692   0.3144369   0.0000000        36    1
   0.2307692   0.4050373   0.0000000        37    1
   0.2307692   0.4956378   0.0000000        38    1
   0.2307692   0.5862383   0.0000000        39    1
   0.2307692   0.6768387   0.0000000        40    1
   0.2307692  -0.4103668   0.0000000        41    1
   0.2307692  -0.3197663   0.0000000        42    1
   0.2307692  -0.2291659   0.0000000        43    1
   0.2307692  -0.1385654   0.0000000        44    1
   0.2307692  -0.0479649   0.0000000        45    1
   0.2307692   0.0426355   0.0000000        46    1
   0.3076923   0.1776480   0.0000000        47    1
   0.3076923   0.2682484   0.0000000        48    1
   0.3076923   0.3588489   0.0000000        49    1
   0.3076923   0.4494493   0.0000000        50    1
   0.3076923   0.5400498   0.0000000        51    1
   0.3076923   0.6306502   0.0000000        52    1
   0.3076923   0.7212507   0.0000000        53    1
   0.3076923  -0.3659548   0.0000000        54    1
   0.3076923  -0.2753543   0.0000000        55    1
   0.3076923  -0.1847539   0.0000000        56    1
   0.3076923  -0.0941534   0.0000000        57    1
   0.3076923  -0.0035530   0.0000000        58    1
   0.3076923   0.0870475   0.0000000        59    1
   0.3846154   0.2220599   0.0000000        60    1
   0.3846154   0.3126604   0.0000000        61    1
   0.3846154   0.4032609   0.0000000        62    1
   0.3846154   0.4938613   0.0000000        63    1
   0.3846154   0.5844618   0.0000000        64    1
   0.3846154   0.6750622   0.0000000        65    1
   0.3846154   0.7656627   0.0000000        66    1
   0.3846154  -0.3215428   0.0000000        67    1
   0.3846154  -0.2309423   0.0000000        68    1
   0.3846154  -0.1403419   0.0000000        69    1
   0.3846154  -0.0497414   0.0000000        70    1
   0.3846154   0.0408590   0.0000000        71    1
   0.3846154   0.1314595   0.0000000        72    1
   0.4615385   0.2664719   0.0000000        73    1
   0.4615385   0.3570724   0.0000000        74    1
   0.4615385   0.4476728   0.0000000        75    1
   0.4615385   0.5382733   0.0000000        76    1
   0.4615385   0.6288738   0.0000000        77    1
   0.4615385   0.7194742   0.0000000        78    1
   0.4615385   0.8100747   0.0000000        79    1
   0.4615385  -0.2771308   0.0000000        80    1
   0.4615385  -0.1865304   0.0000000        81    1
   0.4615385  -0.0959299   0.0000000        82    1
   0.4615385  -0.0053294   0.0000000        83    1
   0.4615385   0.0852710   0.0000000        84    1
   0.4615385   0.1758715   0.0000000        85    1

     Parallelization info
     --------------------
     sticks:   dense  smooth     PW     G-vecs:    dense   smooth      PW
     Min          18      18      5                 2684     2684     421
     Max          19      19      6                 2704     2704     446
     Sum        1305    1305    379               194215   194215   30887

     Using Slab Decomposition



     bravais-lattice index     =            0
     lattice parameter (alat)  =       8.3085  a.u.
     unit-cell volume          =    2454.7283 (a.u.)^3
     number of atoms/cell      =            5
     number of atomic types    =            2
     number of electrons       =        78.00
     number of Kohn-Sham states=           60
     kinetic-energy cutoff     =      70.0000  Ry
     charge density cutoff     =     280.0000  Ry
     cutoff for Fock operator  =     280.0000  Ry
     scf convergence threshold =      1.0E-06
     mixing beta               =       0.7000
     number of iterations used =            8  plain     mixing
     Exchange-correlation= B3LYP-V1R
                           (   7  13   9   7   0   0   0)
     EXX-fraction              =        0.20

     celldm(1)=   8.308546  celldm(2)=   0.000000  celldm(3)=   0.000000
     celldm(4)=   0.000000  celldm(5)=   0.000000  celldm(6)=   0.000000

     crystal axes: (cart. coord. in units of alat)
               a(1) = (   1.000000   0.000000   0.000000 )  
               a(2) = (  -0.490196   0.849036   0.000000 )  
               a(3) = (   0.000000   0.000000   5.040830 )  

     reciprocal axes: (cart. coord. in units 2 pi/alat)
               b(1) = (  1.000000  0.577356 -0.000000 )  
               b(2) = (  0.000000  1.177806  0.000000 )  
               b(3) = (  0.000000 -0.000000  0.198380 )  


     PseudoPot. # 1 for Sb read from file:
     /zfs-home/202401017n/pseudos/Sb_ONCV_PBE-1.2.upf
     MD5 check sum: 0417cd6c0fe8ce4611e2b23135f1abd9
     Pseudo is Norm-conserving, Zval = 15.0
     Generated using ONCVPSP code by D. R. Hamann
     Using radial grid of  602 points,  6 beta functions with: 
                l(1) =   0
                l(2) =   0
                l(3) =   1
                l(4) =   1
                l(5) =   2
                l(6) =   2

     PseudoPot. # 2 for Te read from file:
     /zfs-home/202401017n/pseudos/Te_ONCV_PBE-1.2.upf
     MD5 check sum: dd4de4dac1e38587f63aaf3700bb29d3
     Pseudo is Norm-conserving, Zval = 16.0
     Generated using ONCVPSP code by D. R. Hamann
     Using radial grid of  602 points,  6 beta functions with: 
                l(1) =   0
                l(2) =   0
                l(3) =   1
                l(4) =   1
                l(5) =   2
                l(6) =   2

     atomic species   valence    mass     pseudopotential
     Sb               15.00   121.76000     Sb( 1.00)
     Te               16.00   127.60000     Te( 1.00)

     No symmetry found


                                    s                        frac. trans.

      isym =  1     identity                                     

 cryst.   s( 1) = (     1          0          0      )
                  (     0          1          0      )
                  (     0          0          1      )

 cart.    s( 1) = (  1.0000000  0.0000000  0.0000000 )
                  (  0.0000000  1.0000000  0.0000000 )
                  (  0.0000000  0.0000000  1.0000000 )


   Cartesian axes

     site n.     atom                  positions (alat units)
         1        Sb     tau(   1) = (   0.5829733   0.4189608   2.9724649  )
         2        Te     tau(   2) = (   0.5752175   0.4057666   1.6850437  )
         3        Sb     tau(   3) = (   0.0736071   0.1257310   2.0683360  )
         4        Te     tau(   4) = (   0.0811854   0.1390911   3.3558017  )
         5        Te     tau(   5) = (   0.0831178   0.6970014   2.5203330  )

     -------------------------------------------------
     Parameters for Dispersion (Grimme-D2) Correction:
     -------------------------------------------------
       atom      VdW radius       C_6     

        Sb         3.555       1333.532
        Te         3.575       1101.101

   Crystallographic axes

     site n.     atom                  positions (cryst. coord.)
         1        Sb     tau(   1) = (  0.8248627  0.4934545  0.5896776  )
         2        Te     tau(   2) = (  0.8094892  0.4779143  0.3342790  )
         3        Sb     tau(   3) = (  0.1461986  0.1480867  0.4103165  )
         4        Te     tau(   4) = (  0.1614904  0.1638223  0.6657240  )
         5        Te     tau(   5) = (  0.4855356  0.8209324  0.4999837  )

     number of k points=    85
                       cart. coord. in units 2pi/alat
        k(    1) = (   0.0000000   0.0000000   0.0000000), wk =   0.0118343
        k(    2) = (   0.0000000   0.0906005   0.0000000), wk =   0.0236686
        k(    3) = (   0.0000000   0.1812009   0.0000000), wk =   0.0236686
        k(    4) = (   0.0000000   0.2718014   0.0000000), wk =   0.0236686
        k(    5) = (   0.0000000   0.3624018   0.0000000), wk =   0.0236686
        k(    6) = (   0.0000000   0.4530023   0.0000000), wk =   0.0236686
        k(    7) = (   0.0000000   0.5436027   0.0000000), wk =   0.0236686
        k(    8) = (   0.0769231   0.0444120   0.0000000), wk =   0.0236686
        k(    9) = (   0.0769231   0.1350124   0.0000000), wk =   0.0236686
        k(   10) = (   0.0769231   0.2256129   0.0000000), wk =   0.0236686
        k(   11) = (   0.0769231   0.3162134   0.0000000), wk =   0.0236686
        k(   12) = (   0.0769231   0.4068138   0.0000000), wk =   0.0236686
        k(   13) = (   0.0769231   0.4974143   0.0000000), wk =   0.0236686
        k(   14) = (   0.0769231   0.5880147   0.0000000), wk =   0.0236686
        k(   15) = (   0.0769231  -0.4991908   0.0000000), wk =   0.0236686
        k(   16) = (   0.0769231  -0.4085903   0.0000000), wk =   0.0236686
        k(   17) = (   0.0769231  -0.3179898   0.0000000), wk =   0.0236686
        k(   18) = (   0.0769231  -0.2273894   0.0000000), wk =   0.0236686
        k(   19) = (   0.0769231  -0.1367889   0.0000000), wk =   0.0236686
        k(   20) = (   0.0769231  -0.0461885   0.0000000), wk =   0.0236686
        k(   21) = (   0.1538462   0.0888240   0.0000000), wk =   0.0236686
        k(   22) = (   0.1538462   0.1794244   0.0000000), wk =   0.0236686
        k(   23) = (   0.1538462   0.2700249   0.0000000), wk =   0.0236686
        k(   24) = (   0.1538462   0.3606253   0.0000000), wk =   0.0236686
        k(   25) = (   0.1538462   0.4512258   0.0000000), wk =   0.0236686
        k(   26) = (   0.1538462   0.5418263   0.0000000), wk =   0.0236686
        k(   27) = (   0.1538462   0.6324267   0.0000000), wk =   0.0236686
        k(   28) = (   0.1538462  -0.4547788   0.0000000), wk =   0.0236686
        k(   29) = (   0.1538462  -0.3641783   0.0000000), wk =   0.0236686
        k(   30) = (   0.1538462  -0.2735779   0.0000000), wk =   0.0236686
        k(   31) = (   0.1538462  -0.1829774   0.0000000), wk =   0.0236686
        k(   32) = (   0.1538462  -0.0923769   0.0000000), wk =   0.0236686
        k(   33) = (   0.1538462  -0.0017765   0.0000000), wk =   0.0236686
        k(   34) = (   0.2307692   0.1332360   0.0000000), wk =   0.0236686
        k(   35) = (   0.2307692   0.2238364   0.0000000), wk =   0.0236686
        k(   36) = (   0.2307692   0.3144369   0.0000000), wk =   0.0236686
        k(   37) = (   0.2307692   0.4050373   0.0000000), wk =   0.0236686
        k(   38) = (   0.2307692   0.4956378   0.0000000), wk =   0.0236686
        k(   39) = (   0.2307692   0.5862383   0.0000000), wk =   0.0236686
        k(   40) = (   0.2307692   0.6768387   0.0000000), wk =   0.0236686
        k(   41) = (   0.2307692  -0.4103668   0.0000000), wk =   0.0236686
        k(   42) = (   0.2307692  -0.3197663   0.0000000), wk =   0.0236686
        k(   43) = (   0.2307692  -0.2291659   0.0000000), wk =   0.0236686
        k(   44) = (   0.2307692  -0.1385654   0.0000000), wk =   0.0236686
        k(   45) = (   0.2307692  -0.0479649   0.0000000), wk =   0.0236686
        k(   46) = (   0.2307692   0.0426355   0.0000000), wk =   0.0236686
        k(   47) = (   0.3076923   0.1776480   0.0000000), wk =   0.0236686
        k(   48) = (   0.3076923   0.2682484   0.0000000), wk =   0.0236686
        k(   49) = (   0.3076923   0.3588489   0.0000000), wk =   0.0236686
        k(   50) = (   0.3076923   0.4494493   0.0000000), wk =   0.0236686
        k(   51) = (   0.3076923   0.5400498   0.0000000), wk =   0.0236686
        k(   52) = (   0.3076923   0.6306502   0.0000000), wk =   0.0236686
        k(   53) = (   0.3076923   0.7212507   0.0000000), wk =   0.0236686
        k(   54) = (   0.3076923  -0.3659548   0.0000000), wk =   0.0236686
        k(   55) = (   0.3076923  -0.2753543   0.0000000), wk =   0.0236686
        k(   56) = (   0.3076923  -0.1847539   0.0000000), wk =   0.0236686
        k(   57) = (   0.3076923  -0.0941534   0.0000000), wk =   0.0236686
        k(   58) = (   0.3076923  -0.0035530   0.0000000), wk =   0.0236686
        k(   59) = (   0.3076923   0.0870475   0.0000000), wk =   0.0236686
        k(   60) = (   0.3846154   0.2220599   0.0000000), wk =   0.0236686
        k(   61) = (   0.3846154   0.3126604   0.0000000), wk =   0.0236686
        k(   62) = (   0.3846154   0.4032609   0.0000000), wk =   0.0236686
        k(   63) = (   0.3846154   0.4938613   0.0000000), wk =   0.0236686
        k(   64) = (   0.3846154   0.5844618   0.0000000), wk =   0.0236686
        k(   65) = (   0.3846154   0.6750622   0.0000000), wk =   0.0236686
        k(   66) = (   0.3846154   0.7656627   0.0000000), wk =   0.0236686
        k(   67) = (   0.3846154  -0.3215428   0.0000000), wk =   0.0236686
        k(   68) = (   0.3846154  -0.2309423   0.0000000), wk =   0.0236686
        k(   69) = (   0.3846154  -0.1403419   0.0000000), wk =   0.0236686
        k(   70) = (   0.3846154  -0.0497414   0.0000000), wk =   0.0236686
        k(   71) = (   0.3846154   0.0408590   0.0000000), wk =   0.0236686
        k(   72) = (   0.3846154   0.1314595   0.0000000), wk =   0.0236686
        k(   73) = (   0.4615385   0.2664719   0.0000000), wk =   0.0236686
        k(   74) = (   0.4615385   0.3570724   0.0000000), wk =   0.0236686
        k(   75) = (   0.4615385   0.4476728   0.0000000), wk =   0.0236686
        k(   76) = (   0.4615385   0.5382733   0.0000000), wk =   0.0236686
        k(   77) = (   0.4615385   0.6288738   0.0000000), wk =   0.0236686
        k(   78) = (   0.4615385   0.7194742   0.0000000), wk =   0.0236686
        k(   79) = (   0.4615385   0.8100747   0.0000000), wk =   0.0236686
        k(   80) = (   0.4615385  -0.2771308   0.0000000), wk =   0.0236686
        k(   81) = (   0.4615385  -0.1865304   0.0000000), wk =   0.0236686
        k(   82) = (   0.4615385  -0.0959299   0.0000000), wk =   0.0236686
        k(   83) = (   0.4615385  -0.0053294   0.0000000), wk =   0.0236686
        k(   84) = (   0.4615385   0.0852710   0.0000000), wk =   0.0236686
        k(   85) = (   0.4615385   0.1758715   0.0000000), wk =   0.0236686

                       cryst. coord.
        k(    1) = (   0.0000000   0.0000000   0.0000000), wk =   0.0118343
        k(    2) = (   0.0000000   0.0769231   0.0000000), wk =   0.0236686
        k(    3) = (   0.0000000   0.1538462   0.0000000), wk =   0.0236686
        k(    4) = (   0.0000000   0.2307692   0.0000000), wk =   0.0236686
        k(    5) = (   0.0000000   0.3076923   0.0000000), wk =   0.0236686
        k(    6) = (   0.0000000   0.3846154   0.0000000), wk =   0.0236686
        k(    7) = (   0.0000000   0.4615385   0.0000000), wk =   0.0236686
        k(    8) = (   0.0769231   0.0000000   0.0000000), wk =   0.0236686
        k(    9) = (   0.0769231   0.0769231   0.0000000), wk =   0.0236686
        k(   10) = (   0.0769231   0.1538462   0.0000000), wk =   0.0236686
        k(   11) = (   0.0769231   0.2307692   0.0000000), wk =   0.0236686
        k(   12) = (   0.0769231   0.3076923   0.0000000), wk =   0.0236686
        k(   13) = (   0.0769231   0.3846154   0.0000000), wk =   0.0236686
        k(   14) = (   0.0769231   0.4615385   0.0000000), wk =   0.0236686
        k(   15) = (   0.0769231  -0.4615385   0.0000000), wk =   0.0236686
        k(   16) = (   0.0769231  -0.3846154   0.0000000), wk =   0.0236686
        k(   17) = (   0.0769231  -0.3076923   0.0000000), wk =   0.0236686
        k(   18) = (   0.0769231  -0.2307692   0.0000000), wk =   0.0236686
        k(   19) = (   0.0769231  -0.1538462   0.0000000), wk =   0.0236686
        k(   20) = (   0.0769231  -0.0769231   0.0000000), wk =   0.0236686
        k(   21) = (   0.1538462   0.0000000   0.0000000), wk =   0.0236686
        k(   22) = (   0.1538462   0.0769231   0.0000000), wk =   0.0236686
        k(   23) = (   0.1538462   0.1538462   0.0000000), wk =   0.0236686
        k(   24) = (   0.1538462   0.2307692   0.0000000), wk =   0.0236686
        k(   25) = (   0.1538462   0.3076923   0.0000000), wk =   0.0236686
        k(   26) = (   0.1538462   0.3846154   0.0000000), wk =   0.0236686
        k(   27) = (   0.1538462   0.4615385   0.0000000), wk =   0.0236686
        k(   28) = (   0.1538462  -0.4615385   0.0000000), wk =   0.0236686
        k(   29) = (   0.1538462  -0.3846154   0.0000000), wk =   0.0236686
        k(   30) = (   0.1538462  -0.3076923   0.0000000), wk =   0.0236686
        k(   31) = (   0.1538462  -0.2307692   0.0000000), wk =   0.0236686
        k(   32) = (   0.1538462  -0.1538462   0.0000000), wk =   0.0236686
        k(   33) = (   0.1538462  -0.0769231   0.0000000), wk =   0.0236686
        k(   34) = (   0.2307692   0.0000000   0.0000000), wk =   0.0236686
        k(   35) = (   0.2307692   0.0769231   0.0000000), wk =   0.0236686
        k(   36) = (   0.2307692   0.1538462   0.0000000), wk =   0.0236686
        k(   37) = (   0.2307692   0.2307692   0.0000000), wk =   0.0236686
        k(   38) = (   0.2307692   0.3076923   0.0000000), wk =   0.0236686
        k(   39) = (   0.2307692   0.3846154   0.0000000), wk =   0.0236686
        k(   40) = (   0.2307692   0.4615385   0.0000000), wk =   0.0236686
        k(   41) = (   0.2307692  -0.4615385   0.0000000), wk =   0.0236686
        k(   42) = (   0.2307692  -0.3846154   0.0000000), wk =   0.0236686
        k(   43) = (   0.2307692  -0.3076923   0.0000000), wk =   0.0236686
        k(   44) = (   0.2307692  -0.2307692   0.0000000), wk =   0.0236686
        k(   45) = (   0.2307692  -0.1538462   0.0000000), wk =   0.0236686
        k(   46) = (   0.2307692  -0.0769231   0.0000000), wk =   0.0236686
        k(   47) = (   0.3076923   0.0000000   0.0000000), wk =   0.0236686
        k(   48) = (   0.3076923   0.0769231   0.0000000), wk =   0.0236686
        k(   49) = (   0.3076923   0.1538462   0.0000000), wk =   0.0236686
        k(   50) = (   0.3076923   0.2307692   0.0000000), wk =   0.0236686
        k(   51) = (   0.3076923   0.3076923   0.0000000), wk =   0.0236686
        k(   52) = (   0.3076923   0.3846154   0.0000000), wk =   0.0236686
        k(   53) = (   0.3076923   0.4615385   0.0000000), wk =   0.0236686
        k(   54) = (   0.3076923  -0.4615385   0.0000000), wk =   0.0236686
        k(   55) = (   0.3076923  -0.3846154   0.0000000), wk =   0.0236686
        k(   56) = (   0.3076923  -0.3076923   0.0000000), wk =   0.0236686
        k(   57) = (   0.3076923  -0.2307692   0.0000000), wk =   0.0236686
        k(   58) = (   0.3076923  -0.1538462   0.0000000), wk =   0.0236686
        k(   59) = (   0.3076923  -0.0769231   0.0000000), wk =   0.0236686
        k(   60) = (   0.3846154   0.0000000   0.0000000), wk =   0.0236686
        k(   61) = (   0.3846154   0.0769231   0.0000000), wk =   0.0236686
        k(   62) = (   0.3846154   0.1538462   0.0000000), wk =   0.0236686
        k(   63) = (   0.3846154   0.2307692   0.0000000), wk =   0.0236686
        k(   64) = (   0.3846154   0.3076923   0.0000000), wk =   0.0236686
        k(   65) = (   0.3846154   0.3846154   0.0000000), wk =   0.0236686
        k(   66) = (   0.3846154   0.4615385   0.0000000), wk =   0.0236686
        k(   67) = (   0.3846154  -0.4615385   0.0000000), wk =   0.0236686
        k(   68) = (   0.3846154  -0.3846154   0.0000000), wk =   0.0236686
        k(   69) = (   0.3846154  -0.3076923   0.0000000), wk =   0.0236686
        k(   70) = (   0.3846154  -0.2307692   0.0000000), wk =   0.0236686
        k(   71) = (   0.3846154  -0.1538462   0.0000000), wk =   0.0236686
        k(   72) = (   0.3846154  -0.0769231   0.0000000), wk =   0.0236686
        k(   73) = (   0.4615385   0.0000000   0.0000000), wk =   0.0236686
        k(   74) = (   0.4615385   0.0769231   0.0000000), wk =   0.0236686
        k(   75) = (   0.4615385   0.1538462   0.0000000), wk =   0.0236686
        k(   76) = (   0.4615385   0.2307692   0.0000000), wk =   0.0236686
        k(   77) = (   0.4615385   0.3076923   0.0000000), wk =   0.0236686
        k(   78) = (   0.4615385   0.3846154   0.0000000), wk =   0.0236686
        k(   79) = (   0.4615385   0.4615385   0.0000000), wk =   0.0236686
        k(   80) = (   0.4615385  -0.4615385   0.0000000), wk =   0.0236686
        k(   81) = (   0.4615385  -0.3846154   0.0000000), wk =   0.0236686
        k(   82) = (   0.4615385  -0.3076923   0.0000000), wk =   0.0236686
        k(   83) = (   0.4615385  -0.2307692   0.0000000), wk =   0.0236686
        k(   84) = (   0.4615385  -0.1538462   0.0000000), wk =   0.0236686
        k(   85) = (   0.4615385  -0.0769231   0.0000000), wk =   0.0236686

     Dense  grid:   194215 G-vectors     FFT dimensions: (  45,  45, 225)

     Dynamical RAM for                 wfc:       0.31 MB

     Dynamical RAM for     wfc (w. buffer):      26.53 MB

     Dynamical RAM for                 EXX:     458.00 MB

     Dynamical RAM for           str. fact:       0.08 MB

     Dynamical RAM for           local pot:       0.00 MB

     Dynamical RAM for          nlocal pot:       0.46 MB

     Dynamical RAM for                qrad:       2.85 MB

     Dynamical RAM for          rho,v,vnew:       0.31 MB

     Dynamical RAM for               rhoin:       0.10 MB

     Dynamical RAM for            rho*nmix:       0.66 MB

     Dynamical RAM for           G-vectors:       0.17 MB

     Dynamical RAM for          h,s,v(r/c):       0.66 MB

     Dynamical RAM for          <psi|beta>:       0.08 MB

     Dynamical RAM for                 psi:       0.62 MB

     Dynamical RAM for                hpsi:       0.62 MB

     Dynamical RAM for      wfcinit/wfcrot:       0.70 MB

     Estimated static dynamical RAM per process >     488.95 MB

     Estimated max dynamical RAM per process >     491.59 MB

     Estimated total dynamical RAM >      34.56 GB
     EXX: ACE will be initialized later

     Initial potential from superposition of free atoms

     starting charge      77.7638, renormalised to      78.0000

     negative rho (up, down):  6.521E-04 0.000E+00
     Starting wfcs are random

     total cpu time spent up to now is        4.0 secs

     Self-consistent Calculation

     iteration #  1     ecut=    70.00 Ry     beta= 0.70
     Davidson diagonalization with overlap

---- Real-time Memory Report at c_bands before calling an iterative solver
           221 MiB given to the printing process from OS
             0 MiB allocation reported by mallinfo(arena+hblkhd)
        100822 MiB available memory on the node where the printing process lives
------------------
     ethr =  1.00E-02,  avg # of iterations = 10.2

     Threshold (ethr) on eigenvalues was too large:
     Diagonalizing with lowered threshold

     Davidson diagonalization with overlap

---- Real-time Memory Report at c_bands before calling an iterative solver
           224 MiB given to the printing process from OS
             0 MiB allocation reported by mallinfo(arena+hblkhd)
        100776 MiB available memory on the node where the printing process lives
------------------
     ethr =  1.50E-04,  avg # of iterations =  9.8

     negative rho (up, down):  4.743E-05 0.000E+00

     total cpu time spent up to now is       56.8 secs

     total energy              =    -807.02807689 Ry
     estimated scf accuracy    <       0.10442949 Ry

     iteration #  2     ecut=    70.00 Ry     beta= 0.70
     Davidson diagonalization with overlap

---- Real-time Memory Report at c_bands before calling an iterative solver
           225 MiB given to the printing process from OS
             0 MiB allocation reported by mallinfo(arena+hblkhd)
        100776 MiB available memory on the node where the printing process lives
------------------
     ethr =  1.34E-04,  avg # of iterations = 11.5

     negative rho (up, down):  3.992E-05 0.000E+00

     total cpu time spent up to now is       76.6 secs

     total energy              =    -806.92461936 Ry
     estimated scf accuracy    <       1.02958373 Ry

     iteration #  3     ecut=    70.00 Ry     beta= 0.70
     Davidson diagonalization with overlap

---- Real-time Memory Report at c_bands before calling an iterative solver
           236 MiB given to the printing process from OS
             0 MiB allocation reported by mallinfo(arena+hblkhd)
        100536 MiB available memory on the node where the printing process lives
------------------
     ethr =  1.34E-04,  avg # of iterations = 12.5

     negative rho (up, down):  2.537E-05 0.000E+00

     total cpu time spent up to now is       95.6 secs

     total energy              =    -807.04933764 Ry
     estimated scf accuracy    <       0.28865307 Ry

     iteration #  4     ecut=    70.00 Ry     beta= 0.70
     Davidson diagonalization with overlap

---- Real-time Memory Report at c_bands before calling an iterative solver
           236 MiB given to the printing process from OS
             0 MiB allocation reported by mallinfo(arena+hblkhd)
        100528 MiB available memory on the node where the printing process lives
------------------
     ethr =  1.34E-04,  avg # of iterations =  5.9

     negative rho (up, down):  1.932E-06 0.000E+00

     total cpu time spent up to now is      108.7 secs

     total energy              =    -807.07965654 Ry
     estimated scf accuracy    <       0.00191536 Ry

     iteration #  5     ecut=    70.00 Ry     beta= 0.70
     Davidson diagonalization with overlap

---- Real-time Memory Report at c_bands before calling an iterative solver
           237 MiB given to the printing process from OS
             0 MiB allocation reported by mallinfo(arena+hblkhd)
        100415 MiB available memory on the node where the printing process lives
------------------
     ethr =  2.46E-06,  avg # of iterations = 12.4

     negative rho (up, down):  1.249E-06 0.000E+00

     total cpu time spent up to now is      128.5 secs

     total energy              =    -807.07895140 Ry
     estimated scf accuracy    <       0.01259109 Ry

     iteration #  6     ecut=    70.00 Ry     beta= 0.70
     Davidson diagonalization with overlap

---- Real-time Memory Report at c_bands before calling an iterative solver
           248 MiB given to the printing process from OS
             0 MiB allocation reported by mallinfo(arena+hblkhd)
        100273 MiB available memory on the node where the printing process lives
------------------
     ethr =  2.46E-06,  avg # of iterations =  9.5

     total cpu time spent up to now is      144.5 secs

     total energy              =    -807.07994181 Ry
     estimated scf accuracy    <       0.00130017 Ry

     iteration #  7     ecut=    70.00 Ry     beta= 0.70
     Davidson diagonalization with overlap

---- Real-time Memory Report at c_bands before calling an iterative solver
           248 MiB given to the printing process from OS
             0 MiB allocation reported by mallinfo(arena+hblkhd)
        100271 MiB available memory on the node where the printing process lives
------------------
     ethr =  1.67E-06,  avg # of iterations =  6.8

     total cpu time spent up to now is      156.6 secs

     total energy              =    -807.08001782 Ry
     estimated scf accuracy    <       0.00000635 Ry

     iteration #  8     ecut=    70.00 Ry     beta= 0.70
     Davidson diagonalization with overlap

---- Real-time Memory Report at c_bands before calling an iterative solver
           249 MiB given to the printing process from OS
             0 MiB allocation reported by mallinfo(arena+hblkhd)
        100268 MiB available memory on the node where the printing process lives
------------------
     ethr =  8.14E-09,  avg # of iterations = 11.0

     total cpu time spent up to now is      176.7 secs

     total energy              =    -807.08001911 Ry
     estimated scf accuracy    <       0.00000196 Ry

     iteration #  9     ecut=    70.00 Ry     beta= 0.70
     Davidson diagonalization with overlap

---- Real-time Memory Report at c_bands before calling an iterative solver
           249 MiB given to the printing process from OS
             0 MiB allocation reported by mallinfo(arena+hblkhd)
        100265 MiB available memory on the node where the printing process lives
------------------
     ethr =  2.51E-09,  avg # of iterations =  7.0

     total cpu time spent up to now is      191.9 secs

     total energy              =    -807.08001965 Ry
     estimated scf accuracy    <       0.00000161 Ry

     iteration # 10     ecut=    70.00 Ry     beta= 0.70
     Davidson diagonalization with overlap

---- Real-time Memory Report at c_bands before calling an iterative solver
           250 MiB given to the printing process from OS
             0 MiB allocation reported by mallinfo(arena+hblkhd)
        100264 MiB available memory on the node where the printing process lives
------------------
     ethr =  2.07E-09,  avg # of iterations =  4.5

     total cpu time spent up to now is      204.0 secs

     End of self-consistent calculation

          k = 0.0000 0.0000 0.0000 ( 24159 PWs)   bands (ev):

   -34.6538 -34.6535 -34.6532 -34.6528 -34.6238 -34.6233 -34.6198 -34.6194
   -34.6089 -34.6084 -34.5216 -34.5153 -34.5083 -34.4747 -34.4742 -27.4605
   -27.4599 -27.4590 -27.4585 -27.4490 -27.4487 -27.4487 -27.4483 -27.4454
   -27.4450 -10.5693 -10.0436  -8.9786  -6.2554  -4.9026  -0.0800   0.1887
     0.3548   0.4304   0.5530   0.8649   1.0572   1.1522   1.3861   2.4252
     2.8560   2.9230   3.8194   3.9206   3.9823   6.4262   6.6187   7.2600
     7.7771   7.8435   8.1204   8.6369   8.9692   9.0161   9.1076   9.3949
     9.8155   9.9164  10.3555  10.3942

     occupation numbers 
     1.0000   1.0000   1.0000   1.0000   1.0000   1.0000   1.0000   1.0000
     1.0000   1.0000   1.0000   1.0000   1.0000   1.0000   1.0000   1.0000
     1.0000   1.0000   1.0000   1.0000   1.0000   1.0000   1.0000   1.0000
     1.0000   1.0000   1.0000   1.0000   1.0000   1.0000   1.0000   1.0000
     1.0000   1.0000   1.0000   1.0000   1.0000   1.0000   1.0000   0.0000
     0.0000   0.0000   0.0000   0.0000   0.0000   0.0000   0.0000   0.0000
     0.0000   0.0000   0.0000   0.0000   0.0000   0.0000   0.0000   0.0000
     0.0000   0.0000   0.0000   0.0000

          k = 0.0000 0.0906 0.0000 ( 24176 PWs)   bands (ev):

   -34.6538 -34.6535 -34.6531 -34.6528 -34.6238 -34.6233 -34.6198 -34.6194
   -34.6088 -34.6084 -34.5215 -34.5153 -34.5084 -34.4746 -34.4742 -27.4603
   -27.4597 -27.4591 -27.4586 -27.4492 -27.4488 -27.4487 -27.4483 -27.4453
   -27.4449 -10.5183  -9.9966  -8.9502  -6.2632  -4.9861  -0.2929   0.0057
     0.0243   0.2129   0.3688   0.6413   1.1162   1.2602   1.7187   2.5282
     2.9414   3.0684   3.7660   4.0056   4.2990   6.5100   6.6458   7.2810
     7.7192   7.8279   7.9787   8.7197   8.8408   9.0323   9.1119   9.5069
     9.9639  10.0291  10.5731  10.6725

     occupation numbers 
     1.0000   1.0000   1.0000   1.0000   1.0000   1.0000   1.0000   1.0000
     1.0000   1.0000   1.0000   1.0000   1.0000   1.0000   1.0000   1.0000
     1.0000   1.0000   1.0000   1.0000   1.0000   1.0000   1.0000   1.0000
     1.0000   1.0000   1.0000   1.0000   1.0000   1.0000   1.0000   1.0000
     1.0000   1.0000   1.0000   1.0000   1.0000   1.0000   1.0000   0.0000
     0.0000   0.0000   0.0000   0.0000   0.0000   0.0000   0.0000   0.0000
     0.0000   0.0000   0.0000   0.0000   0.0000   0.0000   0.0000   0.0000
     0.0000   0.0000   0.0000   0.0000

          k = 0.0000 0.1812 0.0000 ( 24196 PWs)   bands (ev):

   -34.6538 -34.6535 -34.6529 -34.6525 -34.6238 -34.6233 -34.6199 -34.6195
   -34.6087 -34.6083 -34.5214 -34.5153 -34.5084 -34.4744 -34.4741 -27.4599
   -27.4594 -27.4591 -27.4586 -27.4496 -27.4490 -27.4487 -27.4482 -27.4450
   -27.4446 -10.3667  -9.8586  -8.8705  -6.2998  -5.2334  -1.0112  -0.3555
    -0.3269  -0.2117   0.1476   0.2827   1.1513   1.3708   1.6759   2.7898
     3.1547   3.4409   4.0122   4.2539   4.7436   6.6400   6.7344   7.1255
     7.7055   7.8228   8.2763   8.6289   8.8821   9.0239   9.3015   9.7662
     9.9384  10.2315  10.8705  11.0679

     occupation numbers 
     1.0000   1.0000   1.0000   1.0000   1.0000   1.0000   1.0000   1.0000
     1.0000   1.0000   1.0000   1.0000   1.0000   1.0000   1.0000   1.0000
     1.0000   1.0000   1.0000   1.0000   1.0000   1.0000   1.0000   1.0000
     1.0000   1.0000   1.0000   1.0000   1.0000   1.0000   1.0000   1.0000
     1.0000   1.0000   1.0000   1.0000   1.0000   1.0000   1.0000   0.0000
     0.0000   0.0000   0.0000   0.0000   0.0000   0.0000   0.0000   0.0000
     0.0000   0.0000   0.0000   0.0000   0.0000   0.0000   0.0000   0.0000
     0.0000   0.0000   0.0000   0.0000

          k = 0.0000 0.2718 0.0000 ( 24250 PWs)   bands (ev):

   -34.6538 -34.6535 -34.6526 -34.6522 -34.6238 -34.6233 -34.6199 -34.6195
   -34.6085 -34.6081 -34.5213 -34.5154 -34.5085 -34.4743 -34.4739 -27.4598
   -27.4594 -27.4587 -27.4582 -27.4501 -27.4495 -27.4488 -27.4482 -27.4445
   -27.4441 -10.1204  -9.6388  -8.7577  -6.4020  -5.6175  -1.7130  -0.8754
    -0.6730  -0.5873  -0.1205   0.2947   0.7937   1.1014   1.7668   2.8553
     3.3547   3.8032   4.3717   4.5645   5.2140   6.3470   6.9905   7.2705
     7.8805   8.1531   8.5627   8.7816   8.9472   9.1497   9.7842   9.9999
    10.2311  10.3781  10.7679  11.5692

     occupation numbers 
     1.0000   1.0000   1.0000   1.0000   1.0000   1.0000   1.0000   1.0000
     1.0000   1.0000   1.0000   1.0000   1.0000   1.0000   1.0000   1.0000
     1.0000   1.0000   1.0000   1.0000   1.0000   1.0000   1.0000   1.0000
     1.0000   1.0000   1.0000   1.0000   1.0000   1.0000   1.0000   1.0000
     1.0000   1.0000   1.0000   1.0000   1.0000   1.0000   1.0000   0.0000
     0.0000   0.0000   0.0000   0.0000   0.0000   0.0000   0.0000   0.0000
     0.0000   0.0000   0.0000   0.0000   0.0000   0.0000   0.0000   0.0000
     0.0000   0.0000   0.0000   0.0000

          k = 0.0000 0.3624 0.0000 ( 24287 PWs)   bands (ev):

   -34.6538 -34.6534 -34.6522 -34.6519 -34.6238 -34.6233 -34.6200 -34.6196
   -34.6084 -34.6079 -34.5212 -34.5154 -34.5086 -34.4742 -34.4737 -27.4602
   -27.4597 -27.4580 -27.4575 -27.4506 -27.4499 -27.4487 -27.4481 -27.4440
   -27.4436  -9.7914  -9.3578  -8.6478  -6.6152  -6.0606  -2.2604  -1.3391
    -0.9614  -0.7827  -0.3631   0.1136   0.5670   1.0055   1.5098   2.9308
     3.4798   3.8884   4.5722   4.8579   5.6710   6.0053   7.2914   7.5550
     8.0976   8.6001   8.7446   9.2774   9.5298   9.5785  10.1276  10.3368
    10.4234  10.9014  10.9074  11.3237

     occupation numbers 
     1.0000   1.0000   1.0000   1.0000   1.0000   1.0000   1.0000   1.0000
     1.0000   1.0000   1.0000   1.0000   1.0000   1.0000   1.0000   1.0000
     1.0000   1.0000   1.0000   1.0000   1.0000   1.0000   1.0000   1.0000
     1.0000   1.0000   1.0000   1.0000   1.0000   1.0000   1.0000   1.0000
     1.0000   1.0000   1.0000   1.0000   1.0000   1.0000   1.0000   0.0000
     0.0000   0.0000   0.0000   0.0000   0.0000   0.0000   0.0000   0.0000
     0.0000   0.0000   0.0000   0.0000   0.0000   0.0000   0.0000   0.0000
     0.0000   0.0000   0.0000   0.0000

          k = 0.0000 0.4530 0.0000 ( 24287 PWs)   bands (ev):

   -34.6538 -34.6534 -34.6520 -34.6516 -34.6239 -34.6234 -34.6201 -34.6197
   -34.6082 -34.6078 -34.5211 -34.5154 -34.5087 -34.4742 -34.4734 -27.4605
   -27.4601 -27.4575 -27.4569 -27.4509 -27.4503 -27.4487 -27.4480 -27.4436
   -27.4431  -9.4047  -9.0598  -8.6046  -6.9316  -6.4466  -2.6328  -1.5705
    -1.1646  -1.0016  -0.5416  -0.1325   0.6272   0.9139   1.1991   2.9554
     3.5289   3.7874   4.7292   5.0679   5.6840   5.9804   7.3290   8.0453
     8.4078   9.0465   9.3489   9.5681   9.8054  10.2228  10.5246  10.5657
    10.8594  11.0821  11.2530  11.5302

     occupation numbers 
     1.0000   1.0000   1.0000   1.0000   1.0000   1.0000   1.0000   1.0000
     1.0000   1.0000   1.0000   1.0000   1.0000   1.0000   1.0000   1.0000
     1.0000   1.0000   1.0000   1.0000   1.0000   1.0000   1.0000   1.0000
     1.0000   1.0000   1.0000   1.0000   1.0000   1.0000   1.0000   1.0000
     1.0000   1.0000   1.0000   1.0000   1.0000   1.0000   1.0000   0.0000
     0.0000   0.0000   0.0000   0.0000   0.0000   0.0000   0.0000   0.0000
     0.0000   0.0000   0.0000   0.0000   0.0000   0.0000   0.0000   0.0000
     0.0000   0.0000   0.0000   0.0000

          k = 0.0000 0.5436 0.0000 ( 24293 PWs)   bands (ev):

   -34.6538 -34.6534 -34.6518 -34.6515 -34.6239 -34.6234 -34.6201 -34.6197
   -34.6081 -34.6077 -34.5210 -34.5154 -34.5087 -34.4741 -34.4732 -27.4607
   -27.4603 -27.4572 -27.4566 -27.4511 -27.4505 -27.4487 -27.4479 -27.4433
   -27.4429  -9.0133  -8.8411  -8.7160  -7.1932  -6.6796  -2.8271  -1.5691
    -1.2783  -1.2532  -0.6350  -0.1874   0.6444   0.8587   1.0384   2.9041
     3.5405   3.7667   4.7591   5.1704   5.6046   5.9783   7.3942   8.5699
     8.7858   9.1350   9.3346   9.7025   9.9077  10.3825  10.7425  11.0404
    11.1949  11.3848  11.6442  11.7547

     occupation numbers 
     1.0000   1.0000   1.0000   1.0000   1.0000   1.0000   1.0000   1.0000
     1.0000   1.0000   1.0000   1.0000   1.0000   1.0000   1.0000   1.0000
     1.0000   1.0000   1.0000   1.0000   1.0000   1.0000   1.0000   1.0000
     1.0000   1.0000   1.0000   1.0000   1.0000   1.0000   1.0000   1.0000
     1.0000   1.0000   1.0000   1.0000   1.0000   1.0000   1.0000   0.0000
     0.0000   0.0000   0.0000   0.0000   0.0000   0.0000   0.0000   0.0000
     0.0000   0.0000   0.0000   0.0000   0.0000   0.0000   0.0000   0.0000
     0.0000   0.0000   0.0000   0.0000

          k = 0.0769 0.0444 0.0000 ( 24182 PWs)   bands (ev):

   -34.6538 -34.6534 -34.6531 -34.6528 -34.6238 -34.6233 -34.6198 -34.6194
   -34.6088 -34.6084 -34.5215 -34.5153 -34.5084 -34.4746 -34.4742 -27.4605
   -27.4599 -27.4588 -27.4583 -27.4491 -27.4488 -27.4487 -27.4483 -27.4453
   -27.4449 -10.5202  -9.9987  -8.9520  -6.2658  -4.9922  -0.3386  -0.1401
     0.1472   0.2152   0.4837   0.6024   1.2035   1.2499   1.6954   2.6161
     2.9094   3.0143   3.8428   4.0037   4.2248   6.5078   6.6393   7.2799
     7.6087   7.7839   8.2051   8.6694   8.8218   8.9598   9.3167   9.3905
     9.9758  10.1152  10.4516  10.6414

     occupation numbers 
     1.0000   1.0000   1.0000   1.0000   1.0000   1.0000   1.0000   1.0000
     1.0000   1.0000   1.0000   1.0000   1.0000   1.0000   1.0000   1.0000
     1.0000   1.0000   1.0000   1.0000   1.0000   1.0000   1.0000   1.0000
     1.0000   1.0000   1.0000   1.0000   1.0000   1.0000   1.0000   1.0000
     1.0000   1.0000   1.0000   1.0000   1.0000   1.0000   1.0000   0.0000
     0.0000   0.0000   0.0000   0.0000   0.0000   0.0000   0.0000   0.0000
     0.0000   0.0000   0.0000   0.0000   0.0000   0.0000   0.0000   0.0000
     0.0000   0.0000   0.0000   0.0000

          k = 0.0769 0.1350 0.0000 ( 24189 PWs)   bands (ev):

   -34.6538 -34.6534 -34.6530 -34.6527 -34.6238 -34.6233 -34.6198 -34.6194
   -34.6087 -34.6083 -34.5215 -34.5153 -34.5084 -34.4745 -34.4742 -27.4604
   -27.4598 -27.4588 -27.4583 -27.4494 -27.4489 -27.4487 -27.4483 -27.4451
   -27.4447 -10.4198  -9.9073  -8.8988  -6.2891  -5.1603  -0.7876  -0.4425
    -0.2132  -0.0370   0.2453   0.5570   0.9337   1.6100   1.6964   2.7804
     3.0256   3.3133   4.0033   4.1483   4.5741   6.6528   6.6853   7.2190
     7.4758   7.7645   8.4100   8.6909   8.7461   8.9779   9.2141   9.7453
    10.0524  10.2711  10.6617  10.9474

     occupation numbers 
     1.0000   1.0000   1.0000   1.0000   1.0000   1.0000   1.0000   1.0000
     1.0000   1.0000   1.0000   1.0000   1.0000   1.0000   1.0000   1.0000
     1.0000   1.0000   1.0000   1.0000   1.0000   1.0000   1.0000   1.0000
     1.0000   1.0000   1.0000   1.0000   1.0000   1.0000   1.0000   1.0000
     1.0000   1.0000   1.0000   1.0000   1.0000   1.0000   1.0000   0.0000
     0.0000   0.0000   0.0000   0.0000   0.0000   0.0000   0.0000   0.0000
     0.0000   0.0000   0.0000   0.0000   0.0000   0.0000   0.0000   0.0000
     0.0000   0.0000   0.0000   0.0000

          k = 0.0769 0.2256 0.0000 ( 24224 PWs)   bands (ev):

   -34.6538 -34.6534 -34.6527 -34.6524 -34.6238 -34.6233 -34.6199 -34.6195
   -34.6086 -34.6082 -34.5213 -34.5154 -34.5085 -34.4742 -34.4741 -27.4602
   -27.4597 -27.4585 -27.4581 -27.4498 -27.4492 -27.4488 -27.4482 -27.4447
   -27.4443 -10.2216  -9.7290  -8.8024  -6.3575  -5.4795  -1.3814  -0.9660
    -0.5473  -0.3463  -0.0290   0.3087   0.8532   1.3929   1.7899   2.9505
     3.1787   3.7141   4.1878   4.5924   4.9886   6.6306   6.8806   7.1239
     7.5338   7.9785   8.5749   8.6564   8.8847   9.0980   9.6094   9.9896
    10.1420  10.4120  10.9878  11.1234

     occupation numbers 
     1.0000   1.0000   1.0000   1.0000   1.0000   1.0000   1.0000   1.0000
     1.0000   1.0000   1.0000   1.0000   1.0000   1.0000   1.0000   1.0000
     1.0000   1.0000   1.0000   1.0000   1.0000   1.0000   1.0000   1.0000
     1.0000   1.0000   1.0000   1.0000   1.0000   1.0000   1.0000   1.0000
     1.0000   1.0000   1.0000   1.0000   1.0000   1.0000   1.0000   0.0000
     0.0000   0.0000   0.0000   0.0000   0.0000   0.0000   0.0000   0.0000
     0.0000   0.0000   0.0000   0.0000   0.0000   0.0000   0.0000   0.0000
     0.0000   0.0000   0.0000   0.0000

          k = 0.0769 0.3162 0.0000 ( 24264 PWs)   bands (ev):

   -34.6537 -34.6534 -34.6524 -34.6521 -34.6239 -34.6233 -34.6200 -34.6196
   -34.6084 -34.6080 -34.5212 -34.5154 -34.5086 -34.4741 -34.4739 -27.4601
   -27.4598 -27.4581 -27.4577 -27.4503 -27.4496 -27.4488 -27.4482 -27.4443
   -27.4438  -9.9340  -9.4777  -8.6879  -6.5105  -5.9020  -1.9773  -1.3453
    -0.8432  -0.6762  -0.4023   0.1987   0.7909   1.0161   1.7088   3.1185
     3.2745   3.8749   4.5428   4.8471   5.4658   6.2964   7.1645   7.4216
     7.8771   8.2222   8.4288   8.9547   9.3586   9.6223   9.9719  10.2489
    10.3595  10.5822  11.2228  11.3957

     occupation numbers 
     1.0000   1.0000   1.0000   1.0000   1.0000   1.0000   1.0000   1.0000
     1.0000   1.0000   1.0000   1.0000   1.0000   1.0000   1.0000   1.0000
     1.0000   1.0000   1.0000   1.0000   1.0000   1.0000   1.0000   1.0000
     1.0000   1.0000   1.0000   1.0000   1.0000   1.0000   1.0000   1.0000
     1.0000   1.0000   1.0000   1.0000   1.0000   1.0000   1.0000   0.0000
     0.0000   0.0000   0.0000   0.0000   0.0000   0.0000   0.0000   0.0000
     0.0000   0.0000   0.0000   0.0000   0.0000   0.0000   0.0000   0.0000
     0.0000   0.0000   0.0000   0.0000

          k = 0.0769 0.4068 0.0000 ( 24275 PWs)   bands (ev):

   -34.6537 -34.6534 -34.6521 -34.6518 -34.6239 -34.6234 -34.6200 -34.6196
   -34.6083 -34.6079 -34.5211 -34.5154 -34.5086 -34.4741 -34.4736 -27.4603
   -27.4599 -27.4577 -27.4572 -27.4507 -27.4501 -27.4488 -27.4481 -27.4438
   -27.4434  -9.5743  -9.1830  -8.6016  -6.7776  -6.3291  -2.4375  -1.5363
    -1.2058  -0.9750  -0.5180  -0.0011   0.6148   0.9169   1.4870   3.1689
     3.3225   3.9002   4.7737   5.0255   5.7798   6.0357   7.3777   7.7999
     8.2438   8.5859   8.9050   9.3819   9.7204   9.8481  10.4531  10.5168
    10.8260  10.9694  11.3601  11.5130

     occupation numbers 
     1.0000   1.0000   1.0000   1.0000   1.0000   1.0000   1.0000   1.0000
     1.0000   1.0000   1.0000   1.0000   1.0000   1.0000   1.0000   1.0000
     1.0000   1.0000   1.0000   1.0000   1.0000   1.0000   1.0000   1.0000
     1.0000   1.0000   1.0000   1.0000   1.0000   1.0000   1.0000   1.0000
     1.0000   1.0000   1.0000   1.0000   1.0000   1.0000   1.0000   0.0000
     0.0000   0.0000   0.0000   0.0000   0.0000   0.0000   0.0000   0.0000
     0.0000   0.0000   0.0000   0.0000   0.0000   0.0000   0.0000   0.0000
     0.0000   0.0000   0.0000   0.0000

          k = 0.0769 0.4974 0.0000 ( 24291 PWs)   bands (ev):

   -34.6537 -34.6534 -34.6519 -34.6516 -34.6239 -34.6234 -34.6201 -34.6197
   -34.6082 -34.6077 -34.5210 -34.5154 -34.5087 -34.4741 -34.4734 -27.4605
   -27.4601 -27.4573 -27.4568 -27.4510 -27.4504 -27.4487 -27.4480 -27.4434
   -27.4430  -9.1791  -8.9098  -8.6196  -7.0917  -6.6472  -2.7213  -1.5779
    -1.4459  -1.1864  -0.6090  -0.2010   0.5882   0.8738   1.2731   3.2215
     3.2890   3.8265   4.9588   5.0783   5.7526   6.0218   7.3991   8.3426
     8.5928   9.2046   9.3707   9.4286   9.9457  10.1171  10.5551  10.8248
    11.0614  11.1621  11.5575  11.6404

     occupation numbers 
     1.0000   1.0000   1.0000   1.0000   1.0000   1.0000   1.0000   1.0000
     1.0000   1.0000   1.0000   1.0000   1.0000   1.0000   1.0000   1.0000
     1.0000   1.0000   1.0000   1.0000   1.0000   1.0000   1.0000   1.0000
     1.0000   1.0000   1.0000   1.0000   1.0000   1.0000   1.0000   1.0000
     1.0000   1.0000   1.0000   1.0000   1.0000   1.0000   1.0000   0.0000
     0.0000   0.0000   0.0000   0.0000   0.0000   0.0000   0.0000   0.0000
     0.0000   0.0000   0.0000   0.0000   0.0000   0.0000   0.0000   0.0000
     0.0000   0.0000   0.0000   0.0000

          k = 0.0769 0.5880 0.0000 ( 24285 PWs)   bands (ev):

   -34.6537 -34.6534 -34.6518 -34.6515 -34.6239 -34.6234 -34.6201 -34.6197
   -34.6081 -34.6077 -34.5210 -34.5154 -34.5087 -34.4741 -34.4732 -27.4605
   -27.4601 -27.4572 -27.4567 -27.4511 -27.4505 -27.4487 -27.4480 -27.4433
   -27.4429  -8.8278  -8.8163  -8.7846  -7.2420  -6.7703  -2.8188  -1.6038
    -1.4628  -1.2889  -0.6880  -0.2465   0.6410   0.7989   1.2004   3.1939
     3.3282   3.7644   5.0370   5.0711   5.7487   5.9644   7.4466   8.6996
     8.9699   9.0071   9.2013   9.8713  10.0251  10.0598  10.6976  10.9088
    11.1019  11.3547  11.4556  11.7420

     occupation numbers 
     1.0000   1.0000   1.0000   1.0000   1.0000   1.0000   1.0000   1.0000
     1.0000   1.0000   1.0000   1.0000   1.0000   1.0000   1.0000   1.0000
     1.0000   1.0000   1.0000   1.0000   1.0000   1.0000   1.0000   1.0000
     1.0000   1.0000   1.0000   1.0000   1.0000   1.0000   1.0000   1.0000
     1.0000   1.0000   1.0000   1.0000   1.0000   1.0000   1.0000   0.0000
     0.0000   0.0000   0.0000   0.0000   0.0000   0.0000   0.0000   0.0000
     0.0000   0.0000   0.0000   0.0000   0.0000   0.0000   0.0000   0.0000
     0.0000   0.0000   0.0000   0.0000

          k = 0.0769-0.4992 0.0000 ( 24292 PWs)   bands (ev):

   -34.6537 -34.6534 -34.6519 -34.6516 -34.6239 -34.6234 -34.6201 -34.6197
   -34.6082 -34.6077 -34.5210 -34.5154 -34.5087 -34.4741 -34.4733 -27.4604
   -27.4600 -27.4574 -27.4569 -27.4510 -27.4504 -27.4487 -27.4480 -27.4434
   -27.4429  -9.1722  -8.9050  -8.6207  -7.0942  -6.6457  -2.7247  -1.5765
    -1.4634  -1.1643  -0.6276  -0.1840   0.5959   0.8503   1.2761   3.2173
     3.2830   3.8111   4.9613   5.0570   5.7460   6.0040   7.3897   8.3483
     8.6073   9.1450   9.2969   9.4228   9.9473  10.0148  10.5378  10.7613
    11.0170  11.1766  11.6691  11.7179

     occupation numbers 
     1.0000   1.0000   1.0000   1.0000   1.0000   1.0000   1.0000   1.0000
     1.0000   1.0000   1.0000   1.0000   1.0000   1.0000   1.0000   1.0000
     1.0000   1.0000   1.0000   1.0000   1.0000   1.0000   1.0000   1.0000
     1.0000   1.0000   1.0000   1.0000   1.0000   1.0000   1.0000   1.0000
     1.0000   1.0000   1.0000   1.0000   1.0000   1.0000   1.0000   0.0000
     0.0000   0.0000   0.0000   0.0000   0.0000   0.0000   0.0000   0.0000
     0.0000   0.0000   0.0000   0.0000   0.0000   0.0000   0.0000   0.0000
     0.0000   0.0000   0.0000   0.0000

          k = 0.0769-0.4086 0.0000 ( 24291 PWs)   bands (ev):

   -34.6538 -34.6534 -34.6521 -34.6518 -34.6239 -34.6233 -34.6201 -34.6197
   -34.6083 -34.6078 -34.5211 -34.5154 -34.5087 -34.4742 -34.4734 -27.4601
   -27.4597 -27.4579 -27.4573 -27.4508 -27.4502 -27.4487 -27.4481 -27.4437
   -27.4433  -9.5673  -9.1764  -8.5992  -6.7792  -6.3248  -2.4440  -1.5454
    -1.2113  -0.9495  -0.5416   0.0245   0.6170   0.8865   1.4784   3.1742
     3.2997   3.8624   4.7509   5.0256   5.7576   6.0136   7.3625   7.8029
     8.2451   8.4629   8.8934   9.3294   9.7174   9.8390  10.5168  10.5912
    10.8185  11.0401  11.4071  11.4904

     occupation numbers 
     1.0000   1.0000   1.0000   1.0000   1.0000   1.0000   1.0000   1.0000
     1.0000   1.0000   1.0000   1.0000   1.0000   1.0000   1.0000   1.0000
     1.0000   1.0000   1.0000   1.0000   1.0000   1.0000   1.0000   1.0000
     1.0000   1.0000   1.0000   1.0000   1.0000   1.0000   1.0000   1.0000
     1.0000   1.0000   1.0000   1.0000   1.0000   1.0000   1.0000   0.0000
     0.0000   0.0000   0.0000   0.0000   0.0000   0.0000   0.0000   0.0000
     0.0000   0.0000   0.0000   0.0000   0.0000   0.0000   0.0000   0.0000
     0.0000   0.0000   0.0000   0.0000

          k = 0.0769-0.3180 0.0000 ( 24268 PWs)   bands (ev):

   -34.6538 -34.6534 -34.6524 -34.6521 -34.6238 -34.6233 -34.6200 -34.6196
   -34.6084 -34.6080 -34.5212 -34.5154 -34.5086 -34.4743 -34.4737 -27.4598
   -27.4594 -27.4585 -27.4580 -27.4504 -27.4498 -27.4488 -27.4482 -27.4442
   -27.4437  -9.9279  -9.4714  -8.6840  -6.5087  -5.8951  -1.9866  -1.3441
    -0.8546  -0.6552  -0.4136   0.2273   0.7568   0.9994   1.6865   3.0920
     3.2555   3.8499   4.4870   4.8754   5.4505   6.2740   7.1536   7.4086
     7.8368   8.1923   8.4254   8.9205   9.3870   9.7354  10.0197  10.2563
    10.3631  10.6034  11.2777  11.4121

     occupation numbers 
     1.0000   1.0000   1.0000   1.0000   1.0000   1.0000   1.0000   1.0000
     1.0000   1.0000   1.0000   1.0000   1.0000   1.0000   1.0000   1.0000
     1.0000   1.0000   1.0000   1.0000   1.0000   1.0000   1.0000   1.0000
     1.0000   1.0000   1.0000   1.0000   1.0000   1.0000   1.0000   1.0000
     1.0000   1.0000   1.0000   1.0000   1.0000   1.0000   1.0000   0.0000
     0.0000   0.0000   0.0000   0.0000   0.0000   0.0000   0.0000   0.0000
     0.0000   0.0000   0.0000   0.0000   0.0000   0.0000   0.0000   0.0000
     0.0000   0.0000   0.0000   0.0000

          k = 0.0769-0.2274 0.0000 ( 24219 PWs)   bands (ev):

   -34.6538 -34.6534 -34.6527 -34.6524 -34.6238 -34.6233 -34.6199 -34.6195
   -34.6086 -34.6082 -34.5214 -34.5153 -34.5085 -34.4744 -34.4739 -27.4595
   -27.4593 -27.4589 -27.4587 -27.4499 -27.4494 -27.4487 -27.4483 -27.4446
   -27.4442 -10.2170  -9.7240  -8.7986  -6.3535  -5.4707  -1.3864  -0.9523
    -0.5538  -0.3254  -0.0494   0.3144   0.8253   1.3528   1.7777   2.8678
     3.1777   3.7315   4.1244   4.6478   4.9816   6.6137   6.8848   7.0984
     7.5268   7.9782   8.5698   8.6532   8.9500   9.1129   9.6221  10.0113
    10.1106  10.4318  10.9539  11.1558

     occupation numbers 
     1.0000   1.0000   1.0000   1.0000   1.0000   1.0000   1.0000   1.0000
     1.0000   1.0000   1.0000   1.0000   1.0000   1.0000   1.0000   1.0000
     1.0000   1.0000   1.0000   1.0000   1.0000   1.0000   1.0000   1.0000
     1.0000   1.0000   1.0000   1.0000   1.0000   1.0000   1.0000   1.0000
     1.0000   1.0000   1.0000   1.0000   1.0000   1.0000   1.0000   0.0000
     0.0000   0.0000   0.0000   0.0000   0.0000   0.0000   0.0000   0.0000
     0.0000   0.0000   0.0000   0.0000   0.0000   0.0000   0.0000   0.0000
     0.0000   0.0000   0.0000   0.0000

          k = 0.0769-0.1368 0.0000 ( 24184 PWs)   bands (ev):

   -34.6538 -34.6534 -34.6530 -34.6526 -34.6238 -34.6233 -34.6199 -34.6195
   -34.6087 -34.6083 -34.5215 -34.5153 -34.5084 -34.4745 -34.4741 -27.4600
   -27.4594 -27.4591 -27.4586 -27.4494 -27.4490 -27.4487 -27.4483 -27.4451
   -27.4446 -10.4169  -9.9041  -8.8961  -6.2856  -5.1523  -0.7648  -0.4290
    -0.1820  -0.0421   0.1890   0.5447   0.8928   1.6190   1.6554   2.6938
     3.0791   3.2816   3.9768   4.2092   4.5811   6.6569   6.6882   7.2028
     7.5017   7.7735   8.3883   8.6728   8.7609   9.0114   9.1804   9.7725
    10.0076  10.2685  10.6297  10.9516

     occupation numbers 
     1.0000   1.0000   1.0000   1.0000   1.0000   1.0000   1.0000   1.0000
     1.0000   1.0000   1.0000   1.0000   1.0000   1.0000   1.0000   1.0000
     1.0000   1.0000   1.0000   1.0000   1.0000   1.0000   1.0000   1.0000
     1.0000   1.0000   1.0000   1.0000   1.0000   1.0000   1.0000   1.0000
     1.0000   1.0000   1.0000   1.0000   1.0000   1.0000   1.0000   0.0000
     0.0000   0.0000   0.0000   0.0000   0.0000   0.0000   0.0000   0.0000
     0.0000   0.0000   0.0000   0.0000   0.0000   0.0000   0.0000   0.0000
     0.0000   0.0000   0.0000   0.0000

          k = 0.0769-0.0462 0.0000 ( 24165 PWs)   bands (ev):

   -34.6538 -34.6534 -34.6531 -34.6528 -34.6238 -34.6233 -34.6198 -34.6194
   -34.6088 -34.6084 -34.5215 -34.5153 -34.5084 -34.4746 -34.4741 -27.4604
   -27.4598 -27.4590 -27.4585 -27.4491 -27.4488 -27.4486 -27.4483 -27.4453
   -27.4449 -10.5192  -9.9976  -8.9511  -6.2644  -4.9890  -0.3158  -0.0613
     0.0630   0.2219   0.4308   0.6266   1.1497   1.2624   1.7079   2.5663
     2.9291   3.0425   3.8100   3.9929   4.2688   6.5088   6.6427   7.2782
     7.6634   7.7963   8.1045   8.6982   8.8194   9.0032   9.2057   9.4525
     9.9779  10.0643  10.5159  10.6550

     occupation numbers 
     1.0000   1.0000   1.0000   1.0000   1.0000   1.0000   1.0000   1.0000
     1.0000   1.0000   1.0000   1.0000   1.0000   1.0000   1.0000   1.0000
     1.0000   1.0000   1.0000   1.0000   1.0000   1.0000   1.0000   1.0000
     1.0000   1.0000   1.0000   1.0000   1.0000   1.0000   1.0000   1.0000
     1.0000   1.0000   1.0000   1.0000   1.0000   1.0000   1.0000   0.0000
     0.0000   0.0000   0.0000   0.0000   0.0000   0.0000   0.0000   0.0000
     0.0000   0.0000   0.0000   0.0000   0.0000   0.0000   0.0000   0.0000
     0.0000   0.0000   0.0000   0.0000

          k = 0.1538 0.0888 0.0000 ( 24247 PWs)   bands (ev):

   -34.6536 -34.6533 -34.6531 -34.6527 -34.6238 -34.6233 -34.6198 -34.6194
   -34.6087 -34.6083 -34.5214 -34.5154 -34.5084 -34.4746 -34.4741 -27.4607
   -27.4601 -27.4584 -27.4579 -27.4492 -27.4490 -27.4487 -27.4484 -27.4451
   -27.4447 -10.3743  -9.8668  -8.8777  -6.3101  -5.2536  -1.0895  -0.4711
    -0.2450  -0.1693   0.2699   0.3082   1.2558   1.4159   1.6649   2.9034
     3.2138   3.3694   4.0548   4.2477   4.6487   6.6132   6.7147   7.0980
     7.6675   7.8063   8.4840   8.5682   8.7934   9.0139   9.5083   9.7022
     9.9078  10.3242  10.7748  10.9340

     occupation numbers 
     1.0000   1.0000   1.0000   1.0000   1.0000   1.0000   1.0000   1.0000
     1.0000   1.0000   1.0000   1.0000   1.0000   1.0000   1.0000   1.0000
     1.0000   1.0000   1.0000   1.0000   1.0000   1.0000   1.0000   1.0000
     1.0000   1.0000   1.0000   1.0000   1.0000   1.0000   1.0000   1.0000
     1.0000   1.0000   1.0000   1.0000   1.0000   1.0000   1.0000   0.0000
     0.0000   0.0000   0.0000   0.0000   0.0000   0.0000   0.0000   0.0000
     0.0000   0.0000   0.0000   0.0000   0.0000   0.0000   0.0000   0.0000
     0.0000   0.0000   0.0000   0.0000

          k = 0.1538 0.1794 0.0000 ( 24252 PWs)   bands (ev):

   -34.6536 -34.6533 -34.6529 -34.6525 -34.6239 -34.6233 -34.6199 -34.6195
   -34.6086 -34.6082 -34.5213 -34.5154 -34.5084 -34.4744 -34.4740 -27.4607
   -27.4601 -27.4581 -27.4577 -27.4496 -27.4492 -27.4488 -27.4484 -27.4448
   -27.4444 -10.2273  -9.7352  -8.8081  -6.3663  -5.4927  -1.4465  -0.9072
    -0.6149  -0.2514  -0.0262   0.3526   0.9042   1.4102   1.8162   2.9296
     3.3211   3.6648   4.1284   4.7379   4.8618   6.5891   6.8751   7.1027
     7.5492   7.9584   8.5053   8.6361   9.0205   9.1453   9.6020   9.9785
    10.2114  10.3495  10.9580  11.1509

     occupation numbers 
     1.0000   1.0000   1.0000   1.0000   1.0000   1.0000   1.0000   1.0000
     1.0000   1.0000   1.0000   1.0000   1.0000   1.0000   1.0000   1.0000
     1.0000   1.0000   1.0000   1.0000   1.0000   1.0000   1.0000   1.0000
     1.0000   1.0000   1.0000   1.0000   1.0000   1.0000   1.0000   1.0000
     1.0000   1.0000   1.0000   1.0000   1.0000   1.0000   1.0000   0.0000
     0.0000   0.0000   0.0000   0.0000   0.0000   0.0000   0.0000   0.0000
     0.0000   0.0000   0.0000   0.0000   0.0000   0.0000   0.0000   0.0000
     0.0000   0.0000   0.0000   0.0000

          k = 0.1538 0.2700 0.0000 ( 24267 PWs)   bands (ev):

   -34.6536 -34.6533 -34.6526 -34.6523 -34.6239 -34.6234 -34.6199 -34.6195
   -34.6085 -34.6081 -34.5212 -34.5154 -34.5085 -34.4742 -34.4739 -27.4605
   -27.4600 -27.4579 -27.4575 -27.4500 -27.4494 -27.4489 -27.4484 -27.4444
   -27.4440  -9.9873  -9.5246  -8.7082  -6.4828  -5.8571  -1.7108  -1.5802
    -0.7472  -0.6368  -0.3500   0.1044   0.8338   1.4856   1.5837   3.0339
     3.6196   3.7528   4.2707   5.1344   5.2590   6.7637   6.8358   7.2421
     7.6059   8.2140   8.2680   8.6261   9.4230   9.7709  10.0554  10.1298
    10.3492  10.7864  11.1115  11.1706

     occupation numbers 
     1.0000   1.0000   1.0000   1.0000   1.0000   1.0000   1.0000   1.0000
     1.0000   1.0000   1.0000   1.0000   1.0000   1.0000   1.0000   1.0000
     1.0000   1.0000   1.0000   1.0000   1.0000   1.0000   1.0000   1.0000
     1.0000   1.0000   1.0000   1.0000   1.0000   1.0000   1.0000   1.0000
     1.0000   1.0000   1.0000   1.0000   1.0000   1.0000   1.0000   0.0000
     0.0000   0.0000   0.0000   0.0000   0.0000   0.0000   0.0000   0.0000
     0.0000   0.0000   0.0000   0.0000   0.0000   0.0000   0.0000   0.0000
     0.0000   0.0000   0.0000   0.0000

          k = 0.1538 0.3606 0.0000 ( 24275 PWs)   bands (ev):

   -34.6536 -34.6533 -34.6523 -34.6520 -34.6239 -34.6234 -34.6200 -34.6196
   -34.6083 -34.6079 -34.5211 -34.5155 -34.5086 -34.4740 -34.4738 -27.4603
   -27.4600 -27.4577 -27.4574 -27.4504 -27.4498 -27.4489 -27.4483 -27.4440
   -27.4436  -9.6668  -9.2549  -8.6081  -6.6835  -6.2876  -2.1450  -1.8185
    -1.1179  -0.9031  -0.6249  -0.1231   0.8724   1.1139   1.5543   3.1676
     3.7075   3.7786   4.6148   5.3053   5.6094   6.5152   7.2386   7.6727
     7.7701   8.1941   8.7034   8.8574   9.6199   9.7600  10.4811  10.5878
    10.8872  11.1478  11.1702  11.8845

     occupation numbers 
     1.0000   1.0000   1.0000   1.0000   1.0000   1.0000   1.0000   1.0000
     1.0000   1.0000   1.0000   1.0000   1.0000   1.0000   1.0000   1.0000
     1.0000   1.0000   1.0000   1.0000   1.0000   1.0000   1.0000   1.0000
     1.0000   1.0000   1.0000   1.0000   1.0000   1.0000   1.0000   1.0000
     1.0000   1.0000   1.0000   1.0000   1.0000   1.0000   1.0000   0.0000
     0.0000   0.0000   0.0000   0.0000   0.0000   0.0000   0.0000   0.0000
     0.0000   0.0000   0.0000   0.0000   0.0000   0.0000   0.0000   0.0000
     0.0000   0.0000   0.0000   0.0000

          k = 0.1538 0.4512 0.0000 ( 24292 PWs)   bands (ev):

   -34.6536 -34.6533 -34.6521 -34.6517 -34.6239 -34.6234 -34.6200 -34.6196
   -34.6082 -34.6078 -34.5210 -34.5155 -34.5087 -34.4740 -34.4736 -27.4602
   -27.4599 -27.4576 -27.4572 -27.4507 -27.4501 -27.4489 -27.4482 -27.4436
   -27.4432  -9.2917  -8.9686  -8.5591  -6.9708  -6.6738  -2.5159  -1.8452
    -1.3843  -1.2701  -0.6848  -0.2834   0.6670   0.9956   1.5037   3.1317
     3.7112   3.9207   4.7646   5.3923   5.8591   6.3055   7.5361   8.0653
     8.3975   8.4546   9.1100   9.2230   9.8019   9.9031  10.3500  10.7707
    11.0552  11.2806  11.5120  11.7859

     occupation numbers 
     1.0000   1.0000   1.0000   1.0000   1.0000   1.0000   1.0000   1.0000
     1.0000   1.0000   1.0000   1.0000   1.0000   1.0000   1.0000   1.0000
     1.0000   1.0000   1.0000   1.0000   1.0000   1.0000   1.0000   1.0000
     1.0000   1.0000   1.0000   1.0000   1.0000   1.0000   1.0000   1.0000
     1.0000   1.0000   1.0000   1.0000   1.0000   1.0000   1.0000   0.0000
     0.0000   0.0000   0.0000   0.0000   0.0000   0.0000   0.0000   0.0000
     0.0000   0.0000   0.0000   0.0000   0.0000   0.0000   0.0000   0.0000
     0.0000   0.0000   0.0000   0.0000

          k = 0.1538 0.5418 0.0000 ( 24318 PWs)   bands (ev):

   -34.6536 -34.6533 -34.6519 -34.6516 -34.6239 -34.6234 -34.6201 -34.6197
   -34.6081 -34.6077 -34.5210 -34.5155 -34.5087 -34.4740 -34.4734 -27.4601
   -27.4598 -27.4576 -27.4571 -27.4509 -27.4503 -27.4488 -27.4482 -27.4433
   -27.4429  -8.9180  -8.7562  -8.6404  -7.2281  -6.9021  -2.6998  -1.8165
    -1.6787  -1.2806  -0.6821  -0.5171   0.6108   0.9536   1.4095   3.2014
     3.6866   3.8233   4.9306   5.4054   5.9451   6.1820   7.5688   8.5875
     8.8891   9.0428   9.1889   9.6670   9.8875   9.9832  10.4921  10.5895
    10.7349  10.8419  11.2040  11.6993

     occupation numbers 
     1.0000   1.0000   1.0000   1.0000   1.0000   1.0000   1.0000   1.0000
     1.0000   1.0000   1.0000   1.0000   1.0000   1.0000   1.0000   1.0000
     1.0000   1.0000   1.0000   1.0000   1.0000   1.0000   1.0000   1.0000
     1.0000   1.0000   1.0000   1.0000   1.0000   1.0000   1.0000   1.0000
     1.0000   1.0000   1.0000   1.0000   1.0000   1.0000   1.0000   0.0000
     0.0000   0.0000   0.0000   0.0000   0.0000   0.0000   0.0000   0.0000
     0.0000   0.0000   0.0000   0.0000   0.0000   0.0000   0.0000   0.0000
     0.0000   0.0000   0.0000   0.0000

          k = 0.1538 0.6324 0.0000 ( 24284 PWs)   bands (ev):

   -34.6536 -34.6533 -34.6519 -34.6516 -34.6239 -34.6234 -34.6201 -34.6197
   -34.6081 -34.6077 -34.5210 -34.5155 -34.5087 -34.4740 -34.4733 -27.4600
   -27.4597 -27.4577 -27.4572 -27.4510 -27.4504 -27.4488 -27.4482 -27.4433
   -27.4429  -8.9061  -8.7508  -8.6459  -7.2313  -6.9011  -2.7029  -1.8355
    -1.6630  -1.2735  -0.7190  -0.4836   0.6157   0.9350   1.4112   3.2043
     3.6762   3.8067   4.9249   5.3941   5.9321   6.1695   7.5578   8.5997
     8.9135   9.0027   9.0609   9.6170   9.9144   9.9532  10.4942  10.5680
    10.7066  10.9794  11.2421  11.6986

     occupation numbers 
     1.0000   1.0000   1.0000   1.0000   1.0000   1.0000   1.0000   1.0000
     1.0000   1.0000   1.0000   1.0000   1.0000   1.0000   1.0000   1.0000
     1.0000   1.0000   1.0000   1.0000   1.0000   1.0000   1.0000   1.0000
     1.0000   1.0000   1.0000   1.0000   1.0000   1.0000   1.0000   1.0000
     1.0000   1.0000   1.0000   1.0000   1.0000   1.0000   1.0000   0.0000
     0.0000   0.0000   0.0000   0.0000   0.0000   0.0000   0.0000   0.0000
     0.0000   0.0000   0.0000   0.0000   0.0000   0.0000   0.0000   0.0000
     0.0000   0.0000   0.0000   0.0000

          k = 0.1538-0.4548 0.0000 ( 24294 PWs)   bands (ev):

   -34.6537 -34.6533 -34.6520 -34.6517 -34.6239 -34.6234 -34.6201 -34.6197
   -34.6082 -34.6078 -34.5210 -34.5154 -34.5087 -34.4741 -34.4733 -27.4599
   -27.4595 -27.4579 -27.4574 -27.4508 -27.4503 -27.4488 -27.4483 -27.4434
   -27.4430  -9.2776  -8.9565  -8.5568  -6.9758  -6.6687  -2.5256  -1.8570
    -1.3927  -1.2494  -0.7166  -0.2450   0.6607   0.9632   1.4973   3.1298
     3.6880   3.8699   4.7461   5.3692   5.8190   6.2755   7.5072   8.0034
     8.3195   8.4726   9.0507   9.2403   9.7450   9.9181  10.3378  10.7753
    11.0791  11.2676  11.5191  11.7919

     occupation numbers 
     1.0000   1.0000   1.0000   1.0000   1.0000   1.0000   1.0000   1.0000
     1.0000   1.0000   1.0000   1.0000   1.0000   1.0000   1.0000   1.0000
     1.0000   1.0000   1.0000   1.0000   1.0000   1.0000   1.0000   1.0000
     1.0000   1.0000   1.0000   1.0000   1.0000   1.0000   1.0000   1.0000
     1.0000   1.0000   1.0000   1.0000   1.0000   1.0000   1.0000   0.0000
     0.0000   0.0000   0.0000   0.0000   0.0000   0.0000   0.0000   0.0000
     0.0000   0.0000   0.0000   0.0000   0.0000   0.0000   0.0000   0.0000
     0.0000   0.0000   0.0000   0.0000

          k = 0.1538-0.3642 0.0000 ( 24301 PWs)   bands (ev):

   -34.6537 -34.6533 -34.6522 -34.6519 -34.6239 -34.6233 -34.6200 -34.6196
   -34.6083 -34.6079 -34.5211 -34.5154 -34.5086 -34.4743 -34.4734 -27.4597
   -27.4595 -27.4581 -27.4578 -27.4505 -27.4501 -27.4488 -27.4483 -27.4438
   -27.4434  -9.6536  -9.2416  -8.6009  -6.6823  -6.2781  -2.1613  -1.8195
    -1.1274  -0.8978  -0.6458  -0.0831   0.8418   1.0802   1.5314   3.1396
     3.6763   3.7247   4.5642   5.2980   5.5649   6.4754   7.1643   7.6746
     7.7365   8.1888   8.7116   8.8246   9.6164   9.7833  10.5150  10.6188
    10.9308  11.1527  11.3125  11.9138

     occupation numbers 
     1.0000   1.0000   1.0000   1.0000   1.0000   1.0000   1.0000   1.0000
     1.0000   1.0000   1.0000   1.0000   1.0000   1.0000   1.0000   1.0000
     1.0000   1.0000   1.0000   1.0000   1.0000   1.0000   1.0000   1.0000
     1.0000   1.0000   1.0000   1.0000   1.0000   1.0000   1.0000   1.0000
     1.0000   1.0000   1.0000   1.0000   1.0000   1.0000   1.0000   0.0000
     0.0000   0.0000   0.0000   0.0000   0.0000   0.0000   0.0000   0.0000
     0.0000   0.0000   0.0000   0.0000   0.0000   0.0000   0.0000   0.0000
     0.0000   0.0000   0.0000   0.0000

          k = 0.1538-0.2736 0.0000 ( 24277 PWs)   bands (ev):

   -34.6537 -34.6534 -34.6525 -34.6522 -34.6238 -34.6233 -34.6200 -34.6196
   -34.6085 -34.6080 -34.5212 -34.5154 -34.5086 -34.4744 -34.4736 -27.4598
   -27.4594 -27.4585 -27.4581 -27.4501 -27.4497 -27.4488 -27.4484 -27.4442
   -27.4438  -9.9765  -9.5130  -8.6999  -6.4756  -5.8430  -1.7038  -1.5944
    -0.7362  -0.6659  -0.3457   0.1156   0.7885   1.4453   1.5454   2.9557
     3.5818   3.7476   4.2054   5.1464   5.2456   6.7253   6.7976   7.2368
     7.6134   8.2166   8.2718   8.6011   9.4502   9.8433  10.1204  10.1522
    10.4002  10.7587  11.0849  11.1891

     occupation numbers 
     1.0000   1.0000   1.0000   1.0000   1.0000   1.0000   1.0000   1.0000
     1.0000   1.0000   1.0000   1.0000   1.0000   1.0000   1.0000   1.0000
     1.0000   1.0000   1.0000   1.0000   1.0000   1.0000   1.0000   1.0000
     1.0000   1.0000   1.0000   1.0000   1.0000   1.0000   1.0000   1.0000
     1.0000   1.0000   1.0000   1.0000   1.0000   1.0000   1.0000   0.0000
     0.0000   0.0000   0.0000   0.0000   0.0000   0.0000   0.0000   0.0000
     0.0000   0.0000   0.0000   0.0000   0.0000   0.0000   0.0000   0.0000
     0.0000   0.0000   0.0000   0.0000

          k = 0.1538-0.1830 0.0000 ( 24254 PWs)   bands (ev):

   -34.6537 -34.6534 -34.6528 -34.6525 -34.6238 -34.6233 -34.6199 -34.6195
   -34.6086 -34.6082 -34.5214 -34.5154 -34.5085 -34.4745 -34.4738 -27.4600
   -27.4595 -27.4587 -27.4582 -27.4497 -27.4494 -27.4487 -27.4484 -27.4447
   -27.4442 -10.2197  -9.7269  -8.8013  -6.3578  -5.4769  -1.4191  -0.9212
    -0.5861  -0.2792  -0.0508   0.3363   0.8506   1.3637   1.7884   2.8549
     3.2456   3.7051   4.0994   4.7157   4.9220   6.5909   6.8822   7.0899
     7.5376   7.9681   8.5291   8.6504   9.0243   9.1296   9.6211  10.0040
    10.1440  10.3944  10.9487  11.1643

     occupation numbers 
     1.0000   1.0000   1.0000   1.0000   1.0000   1.0000   1.0000   1.0000
     1.0000   1.0000   1.0000   1.0000   1.0000   1.0000   1.0000   1.0000
     1.0000   1.0000   1.0000   1.0000   1.0000   1.0000   1.0000   1.0000
     1.0000   1.0000   1.0000   1.0000   1.0000   1.0000   1.0000   1.0000
     1.0000   1.0000   1.0000   1.0000   1.0000   1.0000   1.0000   0.0000
     0.0000   0.0000   0.0000   0.0000   0.0000   0.0000   0.0000   0.0000
     0.0000   0.0000   0.0000   0.0000   0.0000   0.0000   0.0000   0.0000
     0.0000   0.0000   0.0000   0.0000

          k = 0.1538-0.0924 0.0000 ( 24203 PWs)   bands (ev):

   -34.6537 -34.6533 -34.6530 -34.6527 -34.6238 -34.6233 -34.6199 -34.6195
   -34.6087 -34.6083 -34.5214 -34.5153 -34.5084 -34.4746 -34.4740 -27.4603
   -27.4598 -27.4587 -27.4582 -27.4494 -27.4491 -27.4487 -27.4484 -27.4450
   -27.4446 -10.3704  -9.8625  -8.8739  -6.3047  -5.2429  -1.0501  -0.4110
    -0.2535  -0.2303   0.2029   0.3046   1.1981   1.3995   1.6677   2.8338
     3.1884   3.4109   4.0190   4.2644   4.6959   6.6272   6.7238   7.1095
     7.6909   7.8150   8.3792   8.5994   8.8438   9.0134   9.3991   9.7372
     9.9316  10.2738  10.8217  10.9875

     occupation numbers 
     1.0000   1.0000   1.0000   1.0000   1.0000   1.0000   1.0000   1.0000
     1.0000   1.0000   1.0000   1.0000   1.0000   1.0000   1.0000   1.0000
     1.0000   1.0000   1.0000   1.0000   1.0000   1.0000   1.0000   1.0000
     1.0000   1.0000   1.0000   1.0000   1.0000   1.0000   1.0000   1.0000
     1.0000   1.0000   1.0000   1.0000   1.0000   1.0000   1.0000   0.0000
     0.0000   0.0000   0.0000   0.0000   0.0000   0.0000   0.0000   0.0000
     0.0000   0.0000   0.0000   0.0000   0.0000   0.0000   0.0000   0.0000
     0.0000   0.0000   0.0000   0.0000

          k = 0.1538-0.0018 0.0000 ( 24210 PWs)   bands (ev):

   -34.6537 -34.6533 -34.6531 -34.6528 -34.6238 -34.6233 -34.6198 -34.6194
   -34.6088 -34.6083 -34.5214 -34.5154 -34.5084 -34.4746 -34.4740 -27.4606
   -27.4600 -27.4585 -27.4581 -27.4491 -27.4490 -27.4487 -27.4485 -27.4451
   -27.4447 -10.4226  -9.9101  -8.9012  -6.2922  -5.1671  -0.8016  -0.4464
    -0.2194  -0.0787   0.2991   0.5751   0.9693   1.6154   1.7230   2.8572
     3.0121   3.3043   4.0263   4.1097   4.5526   6.6508   6.6812   7.2346
     7.4536   7.7531   8.4394   8.7264   8.7473   8.9275   9.2413   9.6972
    10.1346  10.2560  10.7031  10.9254

     occupation numbers 
     1.0000   1.0000   1.0000   1.0000   1.0000   1.0000   1.0000   1.0000
     1.0000   1.0000   1.0000   1.0000   1.0000   1.0000   1.0000   1.0000
     1.0000   1.0000   1.0000   1.0000   1.0000   1.0000   1.0000   1.0000
     1.0000   1.0000   1.0000   1.0000   1.0000   1.0000   1.0000   1.0000
     1.0000   1.0000   1.0000   1.0000   1.0000   1.0000   1.0000   0.0000
     0.0000   0.0000   0.0000   0.0000   0.0000   0.0000   0.0000   0.0000
     0.0000   0.0000   0.0000   0.0000   0.0000   0.0000   0.0000   0.0000
     0.0000   0.0000   0.0000   0.0000

          k = 0.2308 0.1332 0.0000 ( 24272 PWs)   bands (ev):

   -34.6535 -34.6532 -34.6530 -34.6526 -34.6239 -34.6234 -34.6198 -34.6194
   -34.6086 -34.6082 -34.5213 -34.5154 -34.5084 -34.4745 -34.4738 -27.4610
   -27.4605 -27.4577 -27.4572 -27.4495 -27.4492 -27.4489 -27.4485 -27.4447
   -27.4443 -10.1371  -9.6571  -8.7736  -6.4250  -5.6492  -1.7718  -0.8964
    -0.7002  -0.5008   0.0307   0.3157   0.8502   1.2251   1.8097   3.0105
     3.4252   3.7510   4.4838   4.5658   5.1023   6.3073   6.9660   7.2452
     7.8487   8.1320   8.5090   8.8785   8.9555   9.1619   9.9317   9.9724
    10.1139  10.4562  10.6962  11.4576

     occupation numbers 
     1.0000   1.0000   1.0000   1.0000   1.0000   1.0000   1.0000   1.0000
     1.0000   1.0000   1.0000   1.0000   1.0000   1.0000   1.0000   1.0000
     1.0000   1.0000   1.0000   1.0000   1.0000   1.0000   1.0000   1.0000
     1.0000   1.0000   1.0000   1.0000   1.0000   1.0000   1.0000   1.0000
     1.0000   1.0000   1.0000   1.0000   1.0000   1.0000   1.0000   0.0000
     0.0000   0.0000   0.0000   0.0000   0.0000   0.0000   0.0000   0.0000
     0.0000   0.0000   0.0000   0.0000   0.0000   0.0000   0.0000   0.0000
     0.0000   0.0000   0.0000   0.0000

          k = 0.2308 0.2238 0.0000 ( 24290 PWs)   bands (ev):

   -34.6535 -34.6532 -34.6527 -34.6524 -34.6239 -34.6234 -34.6199 -34.6195
   -34.6085 -34.6081 -34.5212 -34.5155 -34.5084 -34.4744 -34.4738 -27.4610
   -27.4605 -27.4574 -27.4570 -27.4498 -27.4495 -27.4489 -27.4485 -27.4444
   -27.4440  -9.9487  -9.4944  -8.7035  -6.5347  -5.9229  -2.0276  -1.3187
    -0.8514  -0.6126  -0.3486   0.2786   0.8253   1.0837   1.7743   3.2065
     3.3802   3.8326   4.4976   4.9810   5.3775   6.2619   7.1302   7.3883
     7.8556   8.1499   8.4007   8.9031   9.3752   9.8180   9.9714  10.1865
    10.3746  10.5782  11.3366  11.3865

     occupation numbers 
     1.0000   1.0000   1.0000   1.0000   1.0000   1.0000   1.0000   1.0000
     1.0000   1.0000   1.0000   1.0000   1.0000   1.0000   1.0000   1.0000
     1.0000   1.0000   1.0000   1.0000   1.0000   1.0000   1.0000   1.0000
     1.0000   1.0000   1.0000   1.0000   1.0000   1.0000   1.0000   1.0000
     1.0000   1.0000   1.0000   1.0000   1.0000   1.0000   1.0000   0.0000
     0.0000   0.0000   0.0000   0.0000   0.0000   0.0000   0.0000   0.0000
     0.0000   0.0000   0.0000   0.0000   0.0000   0.0000   0.0000   0.0000
     0.0000   0.0000   0.0000   0.0000

          k = 0.2308 0.3144 0.0000 ( 24272 PWs)   bands (ev):

   -34.6535 -34.6532 -34.6525 -34.6521 -34.6239 -34.6234 -34.6199 -34.6195
   -34.6084 -34.6080 -34.5211 -34.5155 -34.5085 -34.4742 -34.4737 -27.4608
   -27.4603 -27.4573 -27.4570 -27.4501 -27.4497 -27.4490 -27.4485 -27.4441
   -27.4437  -9.6758  -9.2657  -8.6189  -6.7005  -6.2922  -2.1799  -1.7797
    -1.1087  -0.8569  -0.6607  -0.0524   0.8802   1.1328   1.6112   3.2571
     3.6971   3.8088   4.5988   5.3887   5.5480   6.5312   7.1804   7.6552
     7.7317   8.1745   8.6903   8.8197   9.5759   9.7861  10.4732  10.5534
    10.9167  11.1471  11.2926  11.8474

     occupation numbers 
     1.0000   1.0000   1.0000   1.0000   1.0000   1.0000   1.0000   1.0000
     1.0000   1.0000   1.0000   1.0000   1.0000   1.0000   1.0000   1.0000
     1.0000   1.0000   1.0000   1.0000   1.0000   1.0000   1.0000   1.0000
     1.0000   1.0000   1.0000   1.0000   1.0000   1.0000   1.0000   1.0000
     1.0000   1.0000   1.0000   1.0000   1.0000   1.0000   1.0000   0.0000
     0.0000   0.0000   0.0000   0.0000   0.0000   0.0000   0.0000   0.0000
     0.0000   0.0000   0.0000   0.0000   0.0000   0.0000   0.0000   0.0000
     0.0000   0.0000   0.0000   0.0000

          k = 0.2308 0.4050 0.0000 ( 24289 PWs)   bands (ev):

   -34.6534 -34.6531 -34.6523 -34.6519 -34.6239 -34.6234 -34.6200 -34.6196
   -34.6083 -34.6078 -34.5210 -34.5155 -34.5086 -34.4740 -34.4737 -27.4603
   -27.4600 -27.4574 -27.4571 -27.4504 -27.4498 -27.4491 -27.4485 -27.4437
   -27.4433  -9.3377  -8.9996  -8.5480  -6.9144  -6.7052  -2.2711  -2.1589
    -1.3017  -1.1065  -0.9809  -0.2837   0.8288   1.1609   1.4082   3.5084
     3.6168   3.8992   4.9433   5.4735   5.7366   6.9993   7.1549   7.7399
     8.1356   8.4737   8.7017   9.1616   9.6419   9.8237  10.5164  10.7876
    10.8819  11.2360  11.7013  11.8587

     occupation numbers 
     1.0000   1.0000   1.0000   1.0000   1.0000   1.0000   1.0000   1.0000
     1.0000   1.0000   1.0000   1.0000   1.0000   1.0000   1.0000   1.0000
     1.0000   1.0000   1.0000   1.0000   1.0000   1.0000   1.0000   1.0000
     1.0000   1.0000   1.0000   1.0000   1.0000   1.0000   1.0000   1.0000
     1.0000   1.0000   1.0000   1.0000   1.0000   1.0000   1.0000   0.0000
     0.0000   0.0000   0.0000   0.0000   0.0000   0.0000   0.0000   0.0000
     0.0000   0.0000   0.0000   0.0000   0.0000   0.0000   0.0000   0.0000
     0.0000   0.0000   0.0000   0.0000

          k = 0.2308 0.4956 0.0000 ( 24294 PWs)   bands (ev):

   -34.6534 -34.6531 -34.6521 -34.6518 -34.6239 -34.6234 -34.6200 -34.6196
   -34.6082 -34.6077 -34.5209 -34.5155 -34.5087 -34.4738 -34.4736 -27.4599
   -27.4596 -27.4577 -27.4573 -27.4506 -27.4500 -27.4491 -27.4485 -27.4434
   -27.4431  -8.9760  -8.7546  -8.5363  -7.1621  -7.0393  -2.4908  -2.1878
    -1.5945  -1.2806  -1.0182  -0.4354   0.6146   1.1403   1.3994   3.4571
     3.7306   3.9646   5.1181   5.5537   5.8581   6.8584   7.8678   8.0221
     8.6121   8.7449   8.9341   9.5583   9.8286   9.9654  10.0398  10.4726
    10.7923  10.8986  11.2906  11.5000

     occupation numbers 
     1.0000   1.0000   1.0000   1.0000   1.0000   1.0000   1.0000   1.0000
     1.0000   1.0000   1.0000   1.0000   1.0000   1.0000   1.0000   1.0000
     1.0000   1.0000   1.0000   1.0000   1.0000   1.0000   1.0000   1.0000
     1.0000   1.0000   1.0000   1.0000   1.0000   1.0000   1.0000   1.0000
     1.0000   1.0000   1.0000   1.0000   1.0000   1.0000   1.0000   0.0000
     0.0000   0.0000   0.0000   0.0000   0.0000   0.0000   0.0000   0.0000
     0.0000   0.0000   0.0000   0.0000   0.0000   0.0000   0.0000   0.0000
     0.0000   0.0000   0.0000   0.0000

          k = 0.2308 0.5862 0.0000 ( 24300 PWs)   bands (ev):

   -34.6534 -34.6531 -34.6520 -34.6517 -34.6239 -34.6234 -34.6201 -34.6197
   -34.6081 -34.6077 -34.5209 -34.5155 -34.5087 -34.4739 -34.4734 -27.4595
   -27.4592 -27.4580 -27.4576 -27.4508 -27.4502 -27.4490 -27.4485 -27.4433
   -27.4429  -8.6957  -8.6572  -8.6255  -7.3131  -7.1548  -2.5927  -2.0835
    -1.8591  -1.3237  -0.8460  -0.6261   0.5179   1.1883   1.3499   3.5505
     3.5899   4.0126   5.2702   5.4247   5.9412   6.7920   7.8979   8.7572
     8.8035   9.0320   9.1480   9.3916   9.6824   9.8412  10.0411  10.3338
    10.6005  10.7928  10.8429  11.3984

     occupation numbers 
     1.0000   1.0000   1.0000   1.0000   1.0000   1.0000   1.0000   1.0000
     1.0000   1.0000   1.0000   1.0000   1.0000   1.0000   1.0000   1.0000
     1.0000   1.0000   1.0000   1.0000   1.0000   1.0000   1.0000   1.0000
     1.0000   1.0000   1.0000   1.0000   1.0000   1.0000   1.0000   1.0000
     1.0000   1.0000   1.0000   1.0000   1.0000   1.0000   1.0000   0.0000
     0.0000   0.0000   0.0000   0.0000   0.0000   0.0000   0.0000   0.0000
     0.0000   0.0000   0.0000   0.0000   0.0000   0.0000   0.0000   0.0000
     0.0000   0.0000   0.0000   0.0000

          k = 0.2308 0.6768 0.0000 ( 24305 PWs)   bands (ev):

   -34.6535 -34.6531 -34.6520 -34.6517 -34.6239 -34.6234 -34.6201 -34.6197
   -34.6081 -34.6077 -34.5209 -34.5155 -34.5087 -34.4740 -34.4733 -27.4595
   -27.4592 -27.4581 -27.4577 -27.4507 -27.4503 -27.4489 -27.4485 -27.4433
[...]

   -35.5969 -35.5968 -35.5837 -35.5836 -35.5582 -35.5579 -35.5530 -35.5530
   -35.5337 -35.5335 -35.1644 -35.1538 -35.1410 -35.1081 -35.0993 -28.5391
   -28.5371 -28.5295 -28.5278 -28.5231 -28.5215 -28.5081 -28.5064 -28.4914
   -28.4898 -10.5302 -10.4146 -10.1485  -8.6926  -8.1022  -4.0226  -2.6147
    -2.3321  -2.2958  -1.5877  -1.1025   0.2666   0.4555   0.7776   3.0744
     3.7377   3.7961   5.4599   5.6418   6.2713   6.4733   7.9218   8.7566
     9.0691   9.3640   9.6357   9.8221  10.4175  10.4312  10.9870  11.6093
    11.6884  12.1528  12.2880  12.4990

     occupation numbers 
     1.0000   1.0000   1.0000   1.0000   1.0000   1.0000   1.0000   1.0000
     1.0000   1.0000   1.0000   1.0000   1.0000   1.0000   1.0000   1.0000
     1.0000   1.0000   1.0000   1.0000   1.0000   1.0000   1.0000   1.0000
     1.0000   1.0000   1.0000   1.0000   1.0000   1.0000   1.0000   1.0000
     1.0000   1.0000   1.0000   1.0000   1.0000   1.0000   1.0000   0.0000
     0.0000   0.0000   0.0000   0.0000   0.0000   0.0000   0.0000   0.0000
     0.0000   0.0000   0.0000   0.0000   0.0000   0.0000   0.0000   0.0000
     0.0000   0.0000   0.0000   0.0000

          k = 0.4615 0.3571 0.0000 ( 24308 PWs)   bands (ev):

   -35.5946 -35.5945 -35.5823 -35.5823 -35.5566 -35.5563 -35.5533 -35.5532
   -35.5338 -35.5337 -35.1613 -35.1544 -35.1446 -35.1035 -35.0971 -28.5388
   -28.5368 -28.5280 -28.5263 -28.5208 -28.5191 -28.5094 -28.5077 -28.4940
   -28.4924 -10.3931 -10.3533 -10.1874  -8.7393  -8.1935  -4.0104  -2.6478
    -2.5592  -2.3124  -1.6698  -1.1538   0.2660   0.3801   0.9510   3.3715
     3.5179   3.8079   5.5532   5.7064   6.4445   6.4535   8.0103   8.9686
     9.1832   9.2699   9.4665  10.0522  10.1950  10.4278  10.9717  11.4848
    11.5483  11.8454  12.2875  12.3901

     occupation numbers 
     1.0000   1.0000   1.0000   1.0000   1.0000   1.0000   1.0000   1.0000
     1.0000   1.0000   1.0000   1.0000   1.0000   1.0000   1.0000   1.0000
     1.0000   1.0000   1.0000   1.0000   1.0000   1.0000   1.0000   1.0000
     1.0000   1.0000   1.0000   1.0000   1.0000   1.0000   1.0000   1.0000
     1.0000   1.0000   1.0000   1.0000   1.0000   1.0000   1.0000   0.0000
     0.0000   0.0000   0.0000   0.0000   0.0000   0.0000   0.0000   0.0000
     0.0000   0.0000   0.0000   0.0000   0.0000   0.0000   0.0000   0.0000
     0.0000   0.0000   0.0000   0.0000

          k = 0.4615 0.4477 0.0000 ( 24304 PWs)   bands (ev):

   -35.5931 -35.5930 -35.5842 -35.5841 -35.5568 -35.5566 -35.5507 -35.5506
   -35.5313 -35.5312 -35.1592 -35.1574 -35.1517 -35.1026 -35.0991 -28.5337
   -28.5318 -28.5255 -28.5238 -28.5131 -28.5115 -28.5083 -28.5067 -28.4958
   -28.4941 -10.4085 -10.3012 -10.0511  -8.7201  -8.3272  -3.8813  -2.9484
    -2.7750  -2.3014  -1.6832  -1.4771   0.2290   0.5379   1.1290   3.3687
     3.8171   3.8894   5.4629   5.9915   6.4238   6.9600   8.1917   8.8598
     9.1501   9.4272   9.6040   9.8670  10.2191  10.4453  10.8005  10.9166
    11.1763  11.4554  11.6400  12.2090

     occupation numbers 
     1.0000   1.0000   1.0000   1.0000   1.0000   1.0000   1.0000   1.0000
     1.0000   1.0000   1.0000   1.0000   1.0000   1.0000   1.0000   1.0000
     1.0000   1.0000   1.0000   1.0000   1.0000   1.0000   1.0000   1.0000
     1.0000   1.0000   1.0000   1.0000   1.0000   1.0000   1.0000   1.0000
     1.0000   1.0000   1.0000   1.0000   1.0000   1.0000   1.0000   0.0000
     0.0000   0.0000   0.0000   0.0000   0.0000   0.0000   0.0000   0.0000
     0.0000   0.0000   0.0000   0.0000   0.0000   0.0000   0.0000   0.0000
     0.0000   0.0000   0.0000   0.0000

          k = 0.4615 0.5383 0.0000 ( 24285 PWs)   bands (ev):

   -35.5895 -35.5894 -35.5773 -35.5773 -35.5560 -35.5557 -35.5501 -35.5499
   -35.5317 -35.5315 -35.1557 -35.1529 -35.1499 -35.1005 -35.0980 -28.5315
   -28.5297 -28.5265 -28.5250 -28.5092 -28.5075 -28.5069 -28.5053 -28.5001
   -28.4985 -10.4386 -10.2669  -9.9112  -8.6477  -8.4750  -3.6658  -3.3564
    -2.7342  -2.3184  -2.0294  -1.4459   0.1972   0.7795   1.0120   3.5748
     3.7941   3.9840   5.6764   6.0924   6.3126   7.7601   8.4999   8.6131
     8.9301   9.1739   9.4513   9.7852  10.2023  10.3853  10.6297  10.9248
    11.0360  11.2626  11.4959  11.8087

     occupation numbers 
     1.0000   1.0000   1.0000   1.0000   1.0000   1.0000   1.0000   1.0000
     1.0000   1.0000   1.0000   1.0000   1.0000   1.0000   1.0000   1.0000
     1.0000   1.0000   1.0000   1.0000   1.0000   1.0000   1.0000   1.0000
     1.0000   1.0000   1.0000   1.0000   1.0000   1.0000   1.0000   1.0000
     1.0000   1.0000   1.0000   1.0000   1.0000   1.0000   1.0000   0.0000
     0.0000   0.0000   0.0000   0.0000   0.0000   0.0000   0.0000   0.0000
     0.0000   0.0000   0.0000   0.0000   0.0000   0.0000   0.0000   0.0000
     0.0000   0.0000   0.0000   0.0000

          k = 0.4615 0.6289 0.0000 ( 24309 PWs)   bands (ev):

   -35.5889 -35.5888 -35.5778 -35.5777 -35.5575 -35.5573 -35.5484 -35.5480
   -35.5313 -35.5311 -35.1568 -35.1530 -35.1486 -35.1005 -35.0982 -28.5322
   -28.5304 -28.5260 -28.5244 -28.5097 -28.5080 -28.5066 -28.5050 -28.5003
   -28.4987 -10.4317 -10.2573  -9.9016  -8.6382  -8.4852  -3.6718  -3.3571
    -2.7418  -2.3313  -2.0343  -1.4390   0.1794   0.7724   0.9923   3.5107
     3.7919   4.0035   5.6344   6.0619   6.3325   7.6748   8.4918   8.6753
     8.9899   9.1607   9.5170   9.7921  10.2658  10.3813  10.6034  10.9676
    11.0291  11.3002  11.4937  11.7543

     occupation numbers 
     1.0000   1.0000   1.0000   1.0000   1.0000   1.0000   1.0000   1.0000
     1.0000   1.0000   1.0000   1.0000   1.0000   1.0000   1.0000   1.0000
     1.0000   1.0000   1.0000   1.0000   1.0000   1.0000   1.0000   1.0000
     1.0000   1.0000   1.0000   1.0000   1.0000   1.0000   1.0000   1.0000
     1.0000   1.0000   1.0000   1.0000   1.0000   1.0000   1.0000   0.0000
     0.0000   0.0000   0.0000   0.0000   0.0000   0.0000   0.0000   0.0000
     0.0000   0.0000   0.0000   0.0000   0.0000   0.0000   0.0000   0.0000
     0.0000   0.0000   0.0000   0.0000

          k = 0.4615 0.7195 0.0000 ( 24282 PWs)   bands (ev):

   -35.5912 -35.5910 -35.5840 -35.5840 -35.5586 -35.5585 -35.5486 -35.5482
   -35.5306 -35.5304 -35.1617 -35.1570 -35.1480 -35.1019 -35.0986 -28.5352
   -28.5332 -28.5248 -28.5231 -28.5135 -28.5118 -28.5092 -28.5075 -28.4964
   -28.4947 -10.3869 -10.2746 -10.0283  -8.7100  -8.3361  -3.8880  -2.9504
    -2.8104  -2.3234  -1.6609  -1.5195   0.1994   0.5125   1.0637   3.2954
     3.8123   3.8205   5.4305   5.9269   6.4169   6.9094   8.1978   8.8757
     9.1670   9.4853   9.6879   9.8906  10.3028  10.4736  10.8637  10.9389
    11.2009  11.4629  11.6391  12.2109

     occupation numbers 
     1.0000   1.0000   1.0000   1.0000   1.0000   1.0000   1.0000   1.0000
     1.0000   1.0000   1.0000   1.0000   1.0000   1.0000   1.0000   1.0000
     1.0000   1.0000   1.0000   1.0000   1.0000   1.0000   1.0000   1.0000
     1.0000   1.0000   1.0000   1.0000   1.0000   1.0000   1.0000   1.0000
     1.0000   1.0000   1.0000   1.0000   1.0000   1.0000   1.0000   0.0000
     0.0000   0.0000   0.0000   0.0000   0.0000   0.0000   0.0000   0.0000
     0.0000   0.0000   0.0000   0.0000   0.0000   0.0000   0.0000   0.0000
     0.0000   0.0000   0.0000   0.0000

          k = 0.4615 0.8101 0.0000 ( 24295 PWs)   bands (ev):

   -35.5919 -35.5917 -35.5812 -35.5812 -35.5586 -35.5584 -35.5512 -35.5509
   -35.5335 -35.5333 -35.1637 -35.1547 -35.1402 -35.1021 -35.0955 -28.5402
   -28.5382 -28.5276 -28.5259 -28.5201 -28.5185 -28.5108 -28.5092 -28.4944
   -28.4928 -10.3548 -10.3163 -10.1669  -8.7277  -8.1960  -4.0151  -2.6945
    -2.5309  -2.3620  -1.7155  -1.1753   0.2465   0.3176   0.8674   3.2760
     3.4537   3.7816   5.5293   5.6165   6.4252   6.4314   8.0355   9.0125
     9.2213   9.3000   9.5063  10.0941  10.2342  10.4294  11.0098  11.4552
    11.6079  11.9193  12.2439  12.3973

     occupation numbers 
     1.0000   1.0000   1.0000   1.0000   1.0000   1.0000   1.0000   1.0000
     1.0000   1.0000   1.0000   1.0000   1.0000   1.0000   1.0000   1.0000
     1.0000   1.0000   1.0000   1.0000   1.0000   1.0000   1.0000   1.0000
     1.0000   1.0000   1.0000   1.0000   1.0000   1.0000   1.0000   1.0000
     1.0000   1.0000   1.0000   1.0000   1.0000   1.0000   1.0000   0.0000
     0.0000   0.0000   0.0000   0.0000   0.0000   0.0000   0.0000   0.0000
     0.0000   0.0000   0.0000   0.0000   0.0000   0.0000   0.0000   0.0000
     0.0000   0.0000   0.0000   0.0000

          k = 0.4615-0.2771 0.0000 ( 24291 PWs)   bands (ev):

   -35.5940 -35.5938 -35.5828 -35.5828 -35.5605 -35.5604 -35.5505 -35.5502
   -35.5329 -35.5328 -35.1667 -35.1547 -35.1369 -35.1065 -35.0972 -28.5404
   -28.5384 -28.5291 -28.5275 -28.5219 -28.5203 -28.5095 -28.5079 -28.4918
   -28.4902 -10.4961 -10.3774 -10.1225  -8.6779  -8.1005  -4.0256  -2.6149
    -2.4080  -2.2769  -1.6860  -1.1032   0.2496   0.3689   0.7053   2.9777
     3.6706   3.7780   5.3599   5.6215   6.2561   6.4598   7.9547   8.7945
     9.1005   9.4098   9.6778   9.8504  10.4201  10.4873  11.0225  11.6468
    11.6929  12.1278  12.2129  12.5099

     occupation numbers 
     1.0000   1.0000   1.0000   1.0000   1.0000   1.0000   1.0000   1.0000
     1.0000   1.0000   1.0000   1.0000   1.0000   1.0000   1.0000   1.0000
     1.0000   1.0000   1.0000   1.0000   1.0000   1.0000   1.0000   1.0000
     1.0000   1.0000   1.0000   1.0000   1.0000   1.0000   1.0000   1.0000
     1.0000   1.0000   1.0000   1.0000   1.0000   1.0000   1.0000   0.0000
     0.0000   0.0000   0.0000   0.0000   0.0000   0.0000   0.0000   0.0000
     0.0000   0.0000   0.0000   0.0000   0.0000   0.0000   0.0000   0.0000
     0.0000   0.0000   0.0000   0.0000

          k = 0.4615-0.1865 0.0000 ( 24268 PWs)   bands (ev):

   -35.5933 -35.5931 -35.5831 -35.5831 -35.5578 -35.5577 -35.5535 -35.5531
   -35.5333 -35.5331 -35.1631 -35.1539 -35.1414 -35.1042 -35.0979 -28.5408
   -28.5388 -28.5284 -28.5267 -28.5202 -28.5186 -28.5119 -28.5102 -28.4954
   -28.4938 -10.6581 -10.4439 -10.0151  -8.5747  -8.0744  -3.9171  -2.6479
    -2.5416  -2.2648  -1.6208  -1.1421   0.1698   0.4146   0.9349   3.3361
     3.3844   3.8546   5.4468   5.6285   6.3383   6.5875   7.9480   8.5283
     8.9227   9.4834   9.7798   9.8586  10.3857  10.6629  10.9942  11.0782
    11.5913  11.7300  12.1100  12.3342

     occupation numbers 
     1.0000   1.0000   1.0000   1.0000   1.0000   1.0000   1.0000   1.0000
     1.0000   1.0000   1.0000   1.0000   1.0000   1.0000   1.0000   1.0000
     1.0000   1.0000   1.0000   1.0000   1.0000   1.0000   1.0000   1.0000
     1.0000   1.0000   1.0000   1.0000   1.0000   1.0000   1.0000   1.0000
     1.0000   1.0000   1.0000   1.0000   1.0000   1.0000   1.0000   0.0000
     0.0000   0.0000   0.0000   0.0000   0.0000   0.0000   0.0000   0.0000
     0.0000   0.0000   0.0000   0.0000   0.0000   0.0000   0.0000   0.0000
     0.0000   0.0000   0.0000   0.0000

          k = 0.4615-0.0959 0.0000 ( 24293 PWs)   bands (ev):

   -35.5934 -35.5933 -35.5863 -35.5863 -35.5611 -35.5610 -35.5509 -35.5505
   -35.5325 -35.5322 -35.1641 -35.1586 -35.1513 -35.1052 -35.1027 -28.5358
   -28.5339 -28.5261 -28.5243 -28.5130 -28.5114 -28.5093 -28.5076 -28.4971
   -28.4955 -10.7690 -10.4925  -9.9460  -8.4435  -8.1049  -3.7026  -2.9787
    -2.4709  -2.3756  -1.6607  -1.2806   0.2437   0.5670   1.1312   3.2162
     3.8264   3.9634   5.2664   5.9114   6.3364   7.0456   8.0861   8.3333
     8.8371   9.0729   9.4349   9.7565  10.2589  10.4677  10.8658  11.1163
    11.4987  11.5691  11.9971  12.0635

     occupation numbers 
     1.0000   1.0000   1.0000   1.0000   1.0000   1.0000   1.0000   1.0000
     1.0000   1.0000   1.0000   1.0000   1.0000   1.0000   1.0000   1.0000
     1.0000   1.0000   1.0000   1.0000   1.0000   1.0000   1.0000   1.0000
     1.0000   1.0000   1.0000   1.0000   1.0000   1.0000   1.0000   1.0000
     1.0000   1.0000   1.0000   1.0000   1.0000   1.0000   1.0000   0.0000
     0.0000   0.0000   0.0000   0.0000   0.0000   0.0000   0.0000   0.0000
     0.0000   0.0000   0.0000   0.0000   0.0000   0.0000   0.0000   0.0000
     0.0000   0.0000   0.0000   0.0000

          k = 0.4615-0.0053 0.0000 ( 24295 PWs)   bands (ev):

   -35.5940 -35.5939 -35.5802 -35.5801 -35.5583 -35.5582 -35.5519 -35.5516
   -35.5315 -35.5313 -35.1624 -35.1569 -35.1517 -35.1024 -35.1003 -28.5353
   -28.5336 -28.5278 -28.5262 -28.5112 -28.5096 -28.5087 -28.5070 -28.5018
   -28.5001 -10.8078 -10.5110  -9.9186  -8.3759  -8.1427  -3.4391  -3.3362
    -2.4469  -2.1312  -2.0315  -1.2724   0.3871   0.8099   0.9516   3.5632
     3.6516   4.0006   5.4438   5.9777   6.2348   7.7618   7.9302   8.2931
     8.3595   8.9470   9.3187   9.4267  10.2305  10.3517  11.0328  11.1272
    11.3960  11.6353  11.9542  12.1052

     occupation numbers 
     1.0000   1.0000   1.0000   1.0000   1.0000   1.0000   1.0000   1.0000
     1.0000   1.0000   1.0000   1.0000   1.0000   1.0000   1.0000   1.0000
     1.0000   1.0000   1.0000   1.0000   1.0000   1.0000   1.0000   1.0000
     1.0000   1.0000   1.0000   1.0000   1.0000   1.0000   1.0000   1.0000
     1.0000   1.0000   1.0000   1.0000   1.0000   1.0000   1.0000   0.0000
     0.0000   0.0000   0.0000   0.0000   0.0000   0.0000   0.0000   0.0000
     0.0000   0.0000   0.0000   0.0000   0.0000   0.0000   0.0000   0.0000
     0.0000   0.0000   0.0000   0.0000

          k = 0.4615 0.0853 0.0000 ( 24293 PWs)   bands (ev):

   -35.5950 -35.5950 -35.5863 -35.5862 -35.5595 -35.5593 -35.5529 -35.5527
   -35.5331 -35.5329 -35.1633 -35.1592 -35.1534 -35.1055 -35.1029 -28.5347
   -28.5329 -28.5267 -28.5250 -28.5134 -28.5118 -28.5082 -28.5066 -28.4966
   -28.4950 -10.7810 -10.5079  -9.9617  -8.4583  -8.1011  -3.7045  -2.9674
    -2.4568  -2.3500  -1.6695  -1.2516   0.2676   0.5835   1.1830   3.2848
     3.8715   3.9529   5.2884   5.9643   6.3198   7.0817   8.0739   8.3167
     8.8313   8.9889   9.4092   9.6885  10.2215  10.4560  10.8304  11.0855
    11.4457  11.5603  11.9902  12.0307

     occupation numbers 
     1.0000   1.0000   1.0000   1.0000   1.0000   1.0000   1.0000   1.0000
     1.0000   1.0000   1.0000   1.0000   1.0000   1.0000   1.0000   1.0000
     1.0000   1.0000   1.0000   1.0000   1.0000   1.0000   1.0000   1.0000
     1.0000   1.0000   1.0000   1.0000   1.0000   1.0000   1.0000   1.0000
     1.0000   1.0000   1.0000   1.0000   1.0000   1.0000   1.0000   0.0000
     0.0000   0.0000   0.0000   0.0000   0.0000   0.0000   0.0000   0.0000
     0.0000   0.0000   0.0000   0.0000   0.0000   0.0000   0.0000   0.0000
     0.0000   0.0000   0.0000   0.0000

          k = 0.4615 0.1759 0.0000 ( 24323 PWs)   bands (ev):

   -35.5961 -35.5960 -35.5843 -35.5842 -35.5562 -35.5562 -35.5552 -35.5548
   -35.5337 -35.5336 -35.1613 -35.1539 -35.1457 -35.1055 -35.0995 -28.5394
   -28.5375 -28.5289 -28.5271 -28.5211 -28.5195 -28.5101 -28.5085 -28.4948
   -28.4932 -10.6821 -10.4729 -10.0411  -8.5913  -8.0748  -3.9160  -2.6607
    -2.4972  -2.2222  -1.5940  -1.1132   0.2100   0.4504   1.0157   3.4238
     3.4527   3.8639   5.4687   5.7033   6.3486   6.5981   7.9201   8.5020
     8.9058   9.4460   9.7250   9.7931  10.3664  10.5830  10.9545  11.0137
    11.5111  11.7268  12.0941  12.4282

     occupation numbers 
     1.0000   1.0000   1.0000   1.0000   1.0000   1.0000   1.0000   1.0000
     1.0000   1.0000   1.0000   1.0000   1.0000   1.0000   1.0000   1.0000
     1.0000   1.0000   1.0000   1.0000   1.0000   1.0000   1.0000   1.0000
     1.0000   1.0000   1.0000   1.0000   1.0000   1.0000   1.0000   1.0000
     1.0000   1.0000   1.0000   1.0000   1.0000   1.0000   1.0000   0.0000
     0.0000   0.0000   0.0000   0.0000   0.0000   0.0000   0.0000   0.0000
     0.0000   0.0000   0.0000   0.0000   0.0000   0.0000   0.0000   0.0000
     0.0000   0.0000   0.0000   0.0000

     highest occupied, lowest unoccupied level (ev):     1.3720    2.5574

!    total energy              =    -804.24446991 Ry
     estimated scf accuracy    <       0.00000034 Ry

     convergence has been achieved in   4 iterations

     Using ACE for calculation of exact exchange
     ACE projected onto    60 (nbndproj) and applied to    60 (nbnd) bands
     BEWARE: negative dexx:  -0.996E-06

!!   total energy              =    -804.24446891 Ry
     Harris-Foulkes estimate   =    -804.24446918 Ry
     est. exchange err (dexx)  =       0.00000100 Ry
     - averaged Fock potential =      27.30488990 Ry
     + Fock energy (ACE)       =     -13.65240684 Ry

     EXX self-consistency reached

     Writing all to output data dir tmp/Sb2Te3-uatsx-c1-2.0.save/ :
     XML data file, charge density, pseudopotentials, collected wavefunctions

     init_run     :      3.70s CPU      3.90s WALL (       1 calls)
     electrons    :    593.35s CPU    601.20s WALL (       5 calls)

     Called by init_run:
     aceinit0     :      0.00s CPU      0.00s WALL (       1 calls)
     wfcinit      :      3.30s CPU      3.35s WALL (       1 calls)
     wfcinit:wfcr :      3.19s CPU      3.23s WALL (      85 calls)
     potinit      :      0.03s CPU      0.03s WALL (       1 calls)
     hinit0       :      0.34s CPU      0.48s WALL (       1 calls)

     Called by electrons:
     c_bands      :    548.06s CPU    554.79s WALL (      33 calls)
     sum_band     :     44.47s CPU     45.32s WALL (      33 calls)
     v_of_rho     :      0.56s CPU      0.57s WALL (      34 calls)
     v_h          :      0.06s CPU      0.06s WALL (      34 calls)
     v_xc         :      0.50s CPU      0.51s WALL (      34 calls)
     mix_rho      :      0.07s CPU      0.08s WALL (      33 calls)
     energy_londo :      0.05s CPU      0.05s WALL (       5 calls)

     Called by c_bands:
     init_us_2    :      1.71s CPU      1.76s WALL (    5695 calls)
     cegterg      :    542.32s CPU    548.88s WALL (    2805 calls)

     Called by sum_band:
     sum_band:wei :      0.00s CPU      0.00s WALL (      33 calls)
     sum_band:loo :     44.37s CPU     45.22s WALL (      33 calls)
     sum_band:buf :      0.57s CPU      0.59s WALL (    2805 calls)
     sum_band:ini :      0.89s CPU      0.91s WALL (    2805 calls)

     Called by *egterg:
     cdiaghg      :    143.84s CPU    144.53s WALL (   28897 calls)
     cegterg:over :     32.37s CPU     32.67s WALL (   26517 calls)
     cegterg:upda :      8.74s CPU      8.83s WALL (   26517 calls)
     cegterg:last :      9.46s CPU      9.54s WALL (    7879 calls)
     h_psi        :    331.74s CPU    337.11s WALL (   29407 calls)
     g_psi        :      1.54s CPU      1.55s WALL (   26517 calls)

     Called by h_psi:
     h_psi:calbec :     22.18s CPU     22.44s WALL (   29407 calls)
     vloc_psi     :    290.31s CPU    295.21s WALL (   29407 calls)
     add_vuspsi   :      6.07s CPU      6.15s WALL (   29407 calls)

     General routines
     calbec       :     33.58s CPU     34.01s WALL (   51146 calls)
     fft          :      0.87s CPU      1.03s WALL (     334 calls)
     ffts         :      0.04s CPU      0.05s WALL (      33 calls)
     fftw         :    316.95s CPU    322.37s WALL ( 1301736 calls)
     fftc         :   4940.20s CPU   4968.57s WALL ( 3060000 calls)
     fftcw        :     19.79s CPU     20.07s WALL (   76500 calls)

     Parallel routines

     EXX routines
     exx_grid     :      0.00s CPU      0.00s WALL (       1 calls)
     exxinit      :    108.80s CPU    109.73s WALL (       5 calls)
     vexx         :   5199.29s CPU   5229.64s WALL (     425 calls)
     matcalc      :     11.58s CPU     11.71s WALL (   21739 calls)
     aceupdate    :      0.14s CPU      0.14s WALL (     425 calls)
     vexxace      :     14.23s CPU     14.38s WALL (   20549 calls)
     aceinit      :   5199.99s CPU   5230.37s WALL (     425 calls)

     PWSCF        :      1h38m CPU      1h40m WALL


   This run was terminated on:  21:40:55  14May2025            

=------------------------------------------------------------------------------=
   JOB DONE.
=------------------------------------------------------------------------------=
