
     Program PWSCF v.7.3.1 starts on 14May2025 at 22: 3:49 

     This program is part of the open-source Quantum ESPRESSO suite
     for quantum simulation of materials; please cite
         "P. Giannozzi et al., J. Phys.:Condens. Matter 21 395502 (2009);
         "P. Giannozzi et al., J. Phys.:Condens. Matter 29 465901 (2017);
         "P. Giannozzi et al., J. Chem. Phys. 152 154105 (2020);
          URL http://www.quantum-espresso.org", 
     in publications or presentations arising from this work. More details at
     http://www.quantum-espresso.org/quote

     Parallel version (MPI & OpenMP), running on      72 processor cores
     Number of MPI processes:                72
     Threads/MPI process:                     1

     MPI processes distributed on     3 nodes
     97177 MiB available memory on the printing compute node when the environment starts

     Waiting for input...
     Reading input from standard input

     Current dimensions of program PWSCF are:
     Max number of different atomic species (ntypx) = 10
     Max number of k-points (npk) =  40000
     Max angular momentum in pseudopotentials (lmaxx) =  4

     IMPORTANT: XC functional enforced from input :
     Exchange-correlation= B3LYP-V1R
                           (   7  13   9   7   0   0   0)
     EXX-fraction              =        0.20
     Any further DFT definition will be discarded
     Please, verify this is what you really want

     EXX fraction changed:   0.20

     R & G space division:  proc/nbgrp/npool/nimage =      72
     Subspace diagonalization in iterative solution of the eigenvalue problem:
     a serial algorithm will be used

     EXX: q-point mesh:     1    1    1
     EXX: setup a grid of 85 q-points centered on each k-point
     (k+q)-points:
   0.0000000   0.0000000   0.0000000         1    1
   0.0000000   0.0914887   0.0000000         2    1
   0.0000000   0.1829774   0.0000000         3    1
   0.0000000   0.2744661   0.0000000         4    1
   0.0000000   0.3659548   0.0000000         5    1
   0.0000000   0.4574435   0.0000000         6    1
   0.0000000   0.5489322   0.0000000         7    1
   0.0769231   0.0444120   0.0000000         8    1
   0.0769231   0.1359007   0.0000000         9    1
   0.0769231   0.2273894   0.0000000        10    1
   0.0769231   0.3188781   0.0000000        11    1
   0.0769231   0.4103668   0.0000000        12    1
   0.0769231   0.5018555   0.0000000        13    1
   0.0769231   0.5933442   0.0000000        14    1
   0.0769231  -0.5045202   0.0000000        15    1
   0.0769231  -0.4130315   0.0000000        16    1
   0.0769231  -0.3215428   0.0000000        17    1
   0.0769231  -0.2300541   0.0000000        18    1
   0.0769231  -0.1385654   0.0000000        19    1
   0.0769231  -0.0470767   0.0000000        20    1
   0.1538462   0.0888240   0.0000000        21    1
   0.1538462   0.1803127   0.0000000        22    1
   0.1538462   0.2718014   0.0000000        23    1
   0.1538462   0.3632901   0.0000000        24    1
   0.1538462   0.4547788   0.0000000        25    1
   0.1538462   0.5462675   0.0000000        26    1
   0.1538462   0.6377562   0.0000000        27    1
   0.1538462  -0.4601082   0.0000000        28    1
   0.1538462  -0.3686195   0.0000000        29    1
   0.1538462  -0.2771308   0.0000000        30    1
   0.1538462  -0.1856421   0.0000000        31    1
   0.1538462  -0.0941534   0.0000000        32    1
   0.1538462  -0.0026647   0.0000000        33    1
   0.2307692   0.1332360   0.0000000        34    1
   0.2307692   0.2247247   0.0000000        35    1
   0.2307692   0.3162134   0.0000000        36    1
   0.2307692   0.4077021   0.0000000        37    1
   0.2307692   0.4991908   0.0000000        38    1
   0.2307692   0.5906795   0.0000000        39    1
   0.2307692   0.6821681   0.0000000        40    1
   0.2307692  -0.4156962   0.0000000        41    1
   0.2307692  -0.3242075   0.0000000        42    1
   0.2307692  -0.2327188   0.0000000        43    1
   0.2307692  -0.1412301   0.0000000        44    1
   0.2307692  -0.0497414   0.0000000        45    1
   0.2307692   0.0417473   0.0000000        46    1
   0.3076923   0.1776480   0.0000000        47    1
   0.3076923   0.2691367   0.0000000        48    1
   0.3076923   0.3606253   0.0000000        49    1
   0.3076923   0.4521140   0.0000000        50    1
   0.3076923   0.5436027   0.0000000        51    1
   0.3076923   0.6350914   0.0000000        52    1
   0.3076923   0.7265801   0.0000000        53    1
   0.3076923  -0.3712842   0.0000000        54    1
   0.3076923  -0.2797955   0.0000000        55    1
   0.3076923  -0.1883068   0.0000000        56    1
   0.3076923  -0.0968181   0.0000000        57    1
   0.3076923  -0.0053294   0.0000000        58    1
   0.3076923   0.0861593   0.0000000        59    1
   0.3846154   0.2220599   0.0000000        60    1
   0.3846154   0.3135486   0.0000000        61    1
   0.3846154   0.4050373   0.0000000        62    1
   0.3846154   0.4965260   0.0000000        63    1
   0.3846154   0.5880147   0.0000000        64    1
   0.3846154   0.6795034   0.0000000        65    1
   0.3846154   0.7709921   0.0000000        66    1
   0.3846154  -0.3268722   0.0000000        67    1
   0.3846154  -0.2353835   0.0000000        68    1
   0.3846154  -0.1438948   0.0000000        69    1
   0.3846154  -0.0524061   0.0000000        70    1
   0.3846154   0.0390826   0.0000000        71    1
   0.3846154   0.1305712   0.0000000        72    1
   0.4615385   0.2664719   0.0000000        73    1
   0.4615385   0.3579606   0.0000000        74    1
   0.4615385   0.4494493   0.0000000        75    1
   0.4615385   0.5409380   0.0000000        76    1
   0.4615385   0.6324267   0.0000000        77    1
   0.4615385   0.7239154   0.0000000        78    1
   0.4615385   0.8154041   0.0000000        79    1
   0.4615385  -0.2824602   0.0000000        80    1
   0.4615385  -0.1909716   0.0000000        81    1
   0.4615385  -0.0994829   0.0000000        82    1
   0.4615385  -0.0079942   0.0000000        83    1
   0.4615385   0.0834945   0.0000000        84    1
   0.4615385   0.1749832   0.0000000        85    1

     Parallelization info
     --------------------
     sticks:   dense  smooth     PW     G-vecs:    dense   smooth      PW
     Min          18      18      5                 2714     2714     423
     Max          19      19      6                 2741     2741     448
     Sum        1319    1319    385               196125   196125   31161

     Using Slab Decomposition



     bravais-lattice index     =            0
     lattice parameter (alat)  =       8.3900  a.u.
     unit-cell volume          =    2478.7943 (a.u.)^3
     number of atoms/cell      =            5
     number of atomic types    =            2
     number of electrons       =        78.00
     number of Kohn-Sham states=           60
     kinetic-energy cutoff     =      70.0000  Ry
     charge density cutoff     =     280.0000  Ry
     cutoff for Fock operator  =     280.0000  Ry
     scf convergence threshold =      1.0E-06
     mixing beta               =       0.7000
     number of iterations used =            8  plain     mixing
     Exchange-correlation= B3LYP-V1R
                           (   7  13   9   7   0   0   0)
     EXX-fraction              =        0.20

     celldm(1)=   8.390002  celldm(2)=   0.000000  celldm(3)=   0.000000
     celldm(4)=   0.000000  celldm(5)=   0.000000  celldm(6)=   0.000000

     crystal axes: (cart. coord. in units of alat)
               a(1) = (   1.000000   0.000000   0.000000 )  
               a(2) = (  -0.485437   0.840793   0.000000 )  
               a(3) = (   0.000000   0.000000   4.991890 )  

     reciprocal axes: (cart. coord. in units 2 pi/alat)
               b(1) = (  1.000000  0.577356 -0.000000 )  
               b(2) = (  0.000000  1.189353  0.000000 )  
               b(3) = (  0.000000 -0.000000  0.200325 )  


     PseudoPot. # 1 for Sb read from file:
     /zfs-home/202401017n/pseudos/Sb_ONCV_PBE-1.2.upf
     MD5 check sum: 0417cd6c0fe8ce4611e2b23135f1abd9
     Pseudo is Norm-conserving, Zval = 15.0
     Generated using ONCVPSP code by D. R. Hamann
     Using radial grid of  602 points,  6 beta functions with: 
                l(1) =   0
                l(2) =   0
                l(3) =   1
                l(4) =   1
                l(5) =   2
                l(6) =   2

     PseudoPot. # 2 for Te read from file:
     /zfs-home/202401017n/pseudos/Te_ONCV_PBE-1.2.upf
     MD5 check sum: dd4de4dac1e38587f63aaf3700bb29d3
     Pseudo is Norm-conserving, Zval = 16.0
     Generated using ONCVPSP code by D. R. Hamann
     Using radial grid of  602 points,  6 beta functions with: 
                l(1) =   0
                l(2) =   0
                l(3) =   1
                l(4) =   1
                l(5) =   2
                l(6) =   2

     atomic species   valence    mass     pseudopotential
     Sb               15.00   121.76000     Sb( 1.00)
     Te               16.00   127.60000     Te( 1.00)

     No symmetry found


                                    s                        frac. trans.

      isym =  1     identity                                     

 cryst.   s( 1) = (     1          0          0      )
                  (     0          1          0      )
                  (     0          0          1      )

 cart.    s( 1) = (  1.0000000  0.0000000  0.0000000 )
                  (  0.0000000  1.0000000  0.0000000 )
                  (  0.0000000  0.0000000  1.0000000 )


   Cartesian axes

     site n.     atom                  positions (alat units)
         1        Sb     tau(   1) = (   0.5867812   0.4172984   2.9417443  )
         2        Te     tau(   2) = (   0.5754457   0.3979752   1.6726131  )
         3        Sb     tau(   3) = (   0.0727921   0.1220272   2.0501240  )
         4        Te     tau(   4) = (   0.0840698   0.1416820   3.3192296  )
         5        Te     tau(   5) = (   0.0870265   0.6902229   2.4959189  )

     -------------------------------------------------
     Parameters for Dispersion (Grimme-D2) Correction:
     -------------------------------------------------
       atom      VdW radius       C_6     

        Sb         3.555       1333.532
        Te         3.575       1101.101

   Crystallographic axes

     site n.     atom                  positions (cryst. coord.)
         1        Sb     tau(   1) = (  0.8277109  0.4963151  0.5893047  )
         2        Te     tau(   2) = (  0.8052190  0.4733330  0.3350661  )
         3        Sb     tau(   3) = (  0.1432452  0.1451335  0.4106909  )
         4        Te     tau(   4) = (  0.1658708  0.1685099  0.6649244  )
         5        Te     tau(   5) = (  0.4855307  0.8209187  0.4999948  )

     number of k points=    85
                       cart. coord. in units 2pi/alat
        k(    1) = (   0.0000000   0.0000000   0.0000000), wk =   0.0118343
        k(    2) = (   0.0000000   0.0914887   0.0000000), wk =   0.0236686
        k(    3) = (   0.0000000   0.1829774   0.0000000), wk =   0.0236686
        k(    4) = (   0.0000000   0.2744661   0.0000000), wk =   0.0236686
        k(    5) = (   0.0000000   0.3659548   0.0000000), wk =   0.0236686
        k(    6) = (   0.0000000   0.4574435   0.0000000), wk =   0.0236686
        k(    7) = (   0.0000000   0.5489322   0.0000000), wk =   0.0236686
        k(    8) = (   0.0769231   0.0444120   0.0000000), wk =   0.0236686
        k(    9) = (   0.0769231   0.1359007   0.0000000), wk =   0.0236686
        k(   10) = (   0.0769231   0.2273894   0.0000000), wk =   0.0236686
        k(   11) = (   0.0769231   0.3188781   0.0000000), wk =   0.0236686
        k(   12) = (   0.0769231   0.4103668   0.0000000), wk =   0.0236686
        k(   13) = (   0.0769231   0.5018555   0.0000000), wk =   0.0236686
        k(   14) = (   0.0769231   0.5933442   0.0000000), wk =   0.0236686
        k(   15) = (   0.0769231  -0.5045202   0.0000000), wk =   0.0236686
        k(   16) = (   0.0769231  -0.4130315   0.0000000), wk =   0.0236686
        k(   17) = (   0.0769231  -0.3215428   0.0000000), wk =   0.0236686
        k(   18) = (   0.0769231  -0.2300541   0.0000000), wk =   0.0236686
        k(   19) = (   0.0769231  -0.1385654   0.0000000), wk =   0.0236686
        k(   20) = (   0.0769231  -0.0470767   0.0000000), wk =   0.0236686
        k(   21) = (   0.1538462   0.0888240   0.0000000), wk =   0.0236686
        k(   22) = (   0.1538462   0.1803127   0.0000000), wk =   0.0236686
        k(   23) = (   0.1538462   0.2718014   0.0000000), wk =   0.0236686
        k(   24) = (   0.1538462   0.3632901   0.0000000), wk =   0.0236686
        k(   25) = (   0.1538462   0.4547788   0.0000000), wk =   0.0236686
        k(   26) = (   0.1538462   0.5462675   0.0000000), wk =   0.0236686
        k(   27) = (   0.1538462   0.6377562   0.0000000), wk =   0.0236686
        k(   28) = (   0.1538462  -0.4601082   0.0000000), wk =   0.0236686
        k(   29) = (   0.1538462  -0.3686195   0.0000000), wk =   0.0236686
        k(   30) = (   0.1538462  -0.2771308   0.0000000), wk =   0.0236686
        k(   31) = (   0.1538462  -0.1856421   0.0000000), wk =   0.0236686
        k(   32) = (   0.1538462  -0.0941534   0.0000000), wk =   0.0236686
        k(   33) = (   0.1538462  -0.0026647   0.0000000), wk =   0.0236686
        k(   34) = (   0.2307692   0.1332360   0.0000000), wk =   0.0236686
        k(   35) = (   0.2307692   0.2247247   0.0000000), wk =   0.0236686
        k(   36) = (   0.2307692   0.3162134   0.0000000), wk =   0.0236686
        k(   37) = (   0.2307692   0.4077021   0.0000000), wk =   0.0236686
        k(   38) = (   0.2307692   0.4991908   0.0000000), wk =   0.0236686
        k(   39) = (   0.2307692   0.5906795   0.0000000), wk =   0.0236686
        k(   40) = (   0.2307692   0.6821681   0.0000000), wk =   0.0236686
        k(   41) = (   0.2307692  -0.4156962   0.0000000), wk =   0.0236686
        k(   42) = (   0.2307692  -0.3242075   0.0000000), wk =   0.0236686
        k(   43) = (   0.2307692  -0.2327188   0.0000000), wk =   0.0236686
        k(   44) = (   0.2307692  -0.1412301   0.0000000), wk =   0.0236686
        k(   45) = (   0.2307692  -0.0497414   0.0000000), wk =   0.0236686
        k(   46) = (   0.2307692   0.0417473   0.0000000), wk =   0.0236686
        k(   47) = (   0.3076923   0.1776480   0.0000000), wk =   0.0236686
        k(   48) = (   0.3076923   0.2691367   0.0000000), wk =   0.0236686
        k(   49) = (   0.3076923   0.3606253   0.0000000), wk =   0.0236686
        k(   50) = (   0.3076923   0.4521140   0.0000000), wk =   0.0236686
        k(   51) = (   0.3076923   0.5436027   0.0000000), wk =   0.0236686
        k(   52) = (   0.3076923   0.6350914   0.0000000), wk =   0.0236686
        k(   53) = (   0.3076923   0.7265801   0.0000000), wk =   0.0236686
        k(   54) = (   0.3076923  -0.3712842   0.0000000), wk =   0.0236686
        k(   55) = (   0.3076923  -0.2797955   0.0000000), wk =   0.0236686
        k(   56) = (   0.3076923  -0.1883068   0.0000000), wk =   0.0236686
        k(   57) = (   0.3076923  -0.0968181   0.0000000), wk =   0.0236686
        k(   58) = (   0.3076923  -0.0053294   0.0000000), wk =   0.0236686
        k(   59) = (   0.3076923   0.0861593   0.0000000), wk =   0.0236686
        k(   60) = (   0.3846154   0.2220599   0.0000000), wk =   0.0236686
        k(   61) = (   0.3846154   0.3135486   0.0000000), wk =   0.0236686
        k(   62) = (   0.3846154   0.4050373   0.0000000), wk =   0.0236686
        k(   63) = (   0.3846154   0.4965260   0.0000000), wk =   0.0236686
        k(   64) = (   0.3846154   0.5880147   0.0000000), wk =   0.0236686
        k(   65) = (   0.3846154   0.6795034   0.0000000), wk =   0.0236686
        k(   66) = (   0.3846154   0.7709921   0.0000000), wk =   0.0236686
        k(   67) = (   0.3846154  -0.3268722   0.0000000), wk =   0.0236686
        k(   68) = (   0.3846154  -0.2353835   0.0000000), wk =   0.0236686
        k(   69) = (   0.3846154  -0.1438948   0.0000000), wk =   0.0236686
        k(   70) = (   0.3846154  -0.0524061   0.0000000), wk =   0.0236686
        k(   71) = (   0.3846154   0.0390826   0.0000000), wk =   0.0236686
        k(   72) = (   0.3846154   0.1305712   0.0000000), wk =   0.0236686
        k(   73) = (   0.4615385   0.2664719   0.0000000), wk =   0.0236686
        k(   74) = (   0.4615385   0.3579606   0.0000000), wk =   0.0236686
        k(   75) = (   0.4615385   0.4494493   0.0000000), wk =   0.0236686
        k(   76) = (   0.4615385   0.5409380   0.0000000), wk =   0.0236686
        k(   77) = (   0.4615385   0.6324267   0.0000000), wk =   0.0236686
        k(   78) = (   0.4615385   0.7239154   0.0000000), wk =   0.0236686
        k(   79) = (   0.4615385   0.8154041   0.0000000), wk =   0.0236686
        k(   80) = (   0.4615385  -0.2824602   0.0000000), wk =   0.0236686
        k(   81) = (   0.4615385  -0.1909716   0.0000000), wk =   0.0236686
        k(   82) = (   0.4615385  -0.0994829   0.0000000), wk =   0.0236686
        k(   83) = (   0.4615385  -0.0079942   0.0000000), wk =   0.0236686
        k(   84) = (   0.4615385   0.0834945   0.0000000), wk =   0.0236686
        k(   85) = (   0.4615385   0.1749832   0.0000000), wk =   0.0236686

                       cryst. coord.
        k(    1) = (   0.0000000   0.0000000   0.0000000), wk =   0.0118343
        k(    2) = (   0.0000000   0.0769231   0.0000000), wk =   0.0236686
        k(    3) = (   0.0000000   0.1538462   0.0000000), wk =   0.0236686
        k(    4) = (   0.0000000   0.2307692   0.0000000), wk =   0.0236686
        k(    5) = (   0.0000000   0.3076923   0.0000000), wk =   0.0236686
        k(    6) = (   0.0000000   0.3846154   0.0000000), wk =   0.0236686
        k(    7) = (   0.0000000   0.4615385   0.0000000), wk =   0.0236686
        k(    8) = (   0.0769231   0.0000000   0.0000000), wk =   0.0236686
        k(    9) = (   0.0769231   0.0769231   0.0000000), wk =   0.0236686
        k(   10) = (   0.0769231   0.1538462   0.0000000), wk =   0.0236686
        k(   11) = (   0.0769231   0.2307692   0.0000000), wk =   0.0236686
        k(   12) = (   0.0769231   0.3076923   0.0000000), wk =   0.0236686
        k(   13) = (   0.0769231   0.3846154   0.0000000), wk =   0.0236686
        k(   14) = (   0.0769231   0.4615385   0.0000000), wk =   0.0236686
        k(   15) = (   0.0769231  -0.4615385   0.0000000), wk =   0.0236686
        k(   16) = (   0.0769231  -0.3846154   0.0000000), wk =   0.0236686
        k(   17) = (   0.0769231  -0.3076923   0.0000000), wk =   0.0236686
        k(   18) = (   0.0769231  -0.2307692   0.0000000), wk =   0.0236686
        k(   19) = (   0.0769231  -0.1538462   0.0000000), wk =   0.0236686
        k(   20) = (   0.0769231  -0.0769231   0.0000000), wk =   0.0236686
        k(   21) = (   0.1538462   0.0000000   0.0000000), wk =   0.0236686
        k(   22) = (   0.1538462   0.0769231   0.0000000), wk =   0.0236686
        k(   23) = (   0.1538462   0.1538462   0.0000000), wk =   0.0236686
        k(   24) = (   0.1538462   0.2307692   0.0000000), wk =   0.0236686
        k(   25) = (   0.1538462   0.3076923   0.0000000), wk =   0.0236686
        k(   26) = (   0.1538462   0.3846154   0.0000000), wk =   0.0236686
        k(   27) = (   0.1538462   0.4615385   0.0000000), wk =   0.0236686
        k(   28) = (   0.1538462  -0.4615385   0.0000000), wk =   0.0236686
        k(   29) = (   0.1538462  -0.3846154   0.0000000), wk =   0.0236686
        k(   30) = (   0.1538462  -0.3076923   0.0000000), wk =   0.0236686
        k(   31) = (   0.1538462  -0.2307692   0.0000000), wk =   0.0236686
        k(   32) = (   0.1538462  -0.1538462   0.0000000), wk =   0.0236686
        k(   33) = (   0.1538462  -0.0769231   0.0000000), wk =   0.0236686
        k(   34) = (   0.2307692  -0.0000000   0.0000000), wk =   0.0236686
        k(   35) = (   0.2307692   0.0769231   0.0000000), wk =   0.0236686
        k(   36) = (   0.2307692   0.1538462   0.0000000), wk =   0.0236686
        k(   37) = (   0.2307692   0.2307692   0.0000000), wk =   0.0236686
        k(   38) = (   0.2307692   0.3076923   0.0000000), wk =   0.0236686
        k(   39) = (   0.2307692   0.3846154   0.0000000), wk =   0.0236686
        k(   40) = (   0.2307692   0.4615385   0.0000000), wk =   0.0236686
        k(   41) = (   0.2307692  -0.4615385   0.0000000), wk =   0.0236686
        k(   42) = (   0.2307692  -0.3846154   0.0000000), wk =   0.0236686
        k(   43) = (   0.2307692  -0.3076923   0.0000000), wk =   0.0236686
        k(   44) = (   0.2307692  -0.2307692   0.0000000), wk =   0.0236686
        k(   45) = (   0.2307692  -0.1538462   0.0000000), wk =   0.0236686
        k(   46) = (   0.2307692  -0.0769231   0.0000000), wk =   0.0236686
        k(   47) = (   0.3076923   0.0000000   0.0000000), wk =   0.0236686
        k(   48) = (   0.3076923   0.0769231   0.0000000), wk =   0.0236686
        k(   49) = (   0.3076923   0.1538462   0.0000000), wk =   0.0236686
        k(   50) = (   0.3076923   0.2307692   0.0000000), wk =   0.0236686
        k(   51) = (   0.3076923   0.3076923   0.0000000), wk =   0.0236686
        k(   52) = (   0.3076923   0.3846154   0.0000000), wk =   0.0236686
        k(   53) = (   0.3076923   0.4615385   0.0000000), wk =   0.0236686
        k(   54) = (   0.3076923  -0.4615385   0.0000000), wk =   0.0236686
        k(   55) = (   0.3076923  -0.3846154   0.0000000), wk =   0.0236686
        k(   56) = (   0.3076923  -0.3076923   0.0000000), wk =   0.0236686
        k(   57) = (   0.3076923  -0.2307692   0.0000000), wk =   0.0236686
        k(   58) = (   0.3076923  -0.1538462   0.0000000), wk =   0.0236686
        k(   59) = (   0.3076923  -0.0769231   0.0000000), wk =   0.0236686
        k(   60) = (   0.3846154  -0.0000000   0.0000000), wk =   0.0236686
        k(   61) = (   0.3846154   0.0769231   0.0000000), wk =   0.0236686
        k(   62) = (   0.3846154   0.1538462   0.0000000), wk =   0.0236686
        k(   63) = (   0.3846154   0.2307692   0.0000000), wk =   0.0236686
        k(   64) = (   0.3846154   0.3076923   0.0000000), wk =   0.0236686
        k(   65) = (   0.3846154   0.3846154   0.0000000), wk =   0.0236686
        k(   66) = (   0.3846154   0.4615385   0.0000000), wk =   0.0236686
        k(   67) = (   0.3846154  -0.4615385   0.0000000), wk =   0.0236686
        k(   68) = (   0.3846154  -0.3846154   0.0000000), wk =   0.0236686
        k(   69) = (   0.3846154  -0.3076923   0.0000000), wk =   0.0236686
        k(   70) = (   0.3846154  -0.2307692   0.0000000), wk =   0.0236686
        k(   71) = (   0.3846154  -0.1538462   0.0000000), wk =   0.0236686
        k(   72) = (   0.3846154  -0.0769231   0.0000000), wk =   0.0236686
        k(   73) = (   0.4615385  -0.0000000   0.0000000), wk =   0.0236686
        k(   74) = (   0.4615385   0.0769231   0.0000000), wk =   0.0236686
        k(   75) = (   0.4615385   0.1538462   0.0000000), wk =   0.0236686
        k(   76) = (   0.4615385   0.2307692   0.0000000), wk =   0.0236686
        k(   77) = (   0.4615385   0.3076923   0.0000000), wk =   0.0236686
        k(   78) = (   0.4615385   0.3846154   0.0000000), wk =   0.0236686
        k(   79) = (   0.4615385   0.4615385   0.0000000), wk =   0.0236686
        k(   80) = (   0.4615385  -0.4615385   0.0000000), wk =   0.0236686
        k(   81) = (   0.4615385  -0.3846154   0.0000000), wk =   0.0236686
        k(   82) = (   0.4615385  -0.3076923   0.0000000), wk =   0.0236686
        k(   83) = (   0.4615385  -0.2307692   0.0000000), wk =   0.0236686
        k(   84) = (   0.4615385  -0.1538462   0.0000000), wk =   0.0236686
        k(   85) = (   0.4615385  -0.0769231   0.0000000), wk =   0.0236686

     Dense  grid:   196125 G-vectors     FFT dimensions: (  45,  45, 225)

     Dynamical RAM for                 wfc:       0.31 MB

     Dynamical RAM for     wfc (w. buffer):      26.77 MB

     Dynamical RAM for                 EXX:     462.48 MB

     Dynamical RAM for           str. fact:       0.08 MB

     Dynamical RAM for           local pot:       0.00 MB

     Dynamical RAM for          nlocal pot:       0.47 MB

     Dynamical RAM for                qrad:       2.85 MB

     Dynamical RAM for          rho,v,vnew:       0.31 MB

     Dynamical RAM for               rhoin:       0.10 MB

     Dynamical RAM for            rho*nmix:       0.66 MB

     Dynamical RAM for           G-vectors:       0.18 MB

     Dynamical RAM for          h,s,v(r/c):       0.66 MB

     Dynamical RAM for          <psi|beta>:       0.08 MB

     Dynamical RAM for                 psi:       0.62 MB

     Dynamical RAM for                hpsi:       0.62 MB

     Dynamical RAM for      wfcinit/wfcrot:       0.71 MB

     Estimated static dynamical RAM per process >     493.67 MB

     Estimated max dynamical RAM per process >     496.32 MB

     Estimated total dynamical RAM >      34.90 GB
     EXX: ACE will be initialized later

     Initial potential from superposition of free atoms

     starting charge      77.7638, renormalised to      78.0000

     negative rho (up, down):  6.597E-04 0.000E+00
     Starting wfcs are random

     total cpu time spent up to now is        4.0 secs

     Self-consistent Calculation

     iteration #  1     ecut=    70.00 Ry     beta= 0.70
     Davidson diagonalization with overlap

---- Real-time Memory Report at c_bands before calling an iterative solver
           226 MiB given to the printing process from OS
             0 MiB allocation reported by mallinfo(arena+hblkhd)
         96287 MiB available memory on the node where the printing process lives
------------------
     ethr =  1.00E-02,  avg # of iterations = 10.2

     Threshold (ethr) on eigenvalues was too large:
     Diagonalizing with lowered threshold

     Davidson diagonalization with overlap

---- Real-time Memory Report at c_bands before calling an iterative solver
           230 MiB given to the printing process from OS
             0 MiB allocation reported by mallinfo(arena+hblkhd)
         96243 MiB available memory on the node where the printing process lives
------------------
     ethr =  1.53E-04,  avg # of iterations =  9.7

     negative rho (up, down):  4.868E-05 0.000E+00

     total cpu time spent up to now is       57.1 secs

     total energy              =    -807.02588981 Ry
     estimated scf accuracy    <       0.10671998 Ry

     iteration #  2     ecut=    70.00 Ry     beta= 0.70
     Davidson diagonalization with overlap

---- Real-time Memory Report at c_bands before calling an iterative solver
           230 MiB given to the printing process from OS
             0 MiB allocation reported by mallinfo(arena+hblkhd)
         96243 MiB available memory on the node where the printing process lives
------------------
     ethr =  1.37E-04,  avg # of iterations = 11.6

     negative rho (up, down):  4.104E-05 0.000E+00

     total cpu time spent up to now is       77.0 secs

     total energy              =    -806.91869898 Ry
     estimated scf accuracy    <       1.07214712 Ry

     iteration #  3     ecut=    70.00 Ry     beta= 0.70
     Davidson diagonalization with overlap

---- Real-time Memory Report at c_bands before calling an iterative solver
           241 MiB given to the printing process from OS
             0 MiB allocation reported by mallinfo(arena+hblkhd)
         95997 MiB available memory on the node where the printing process lives
------------------
     ethr =  1.37E-04,  avg # of iterations = 12.7

     negative rho (up, down):  2.611E-05 0.000E+00

     total cpu time spent up to now is       96.2 secs

     total energy              =    -807.04872517 Ry
     estimated scf accuracy    <       0.28615364 Ry

     iteration #  4     ecut=    70.00 Ry     beta= 0.70
     Davidson diagonalization with overlap

---- Real-time Memory Report at c_bands before calling an iterative solver
           242 MiB given to the printing process from OS
             0 MiB allocation reported by mallinfo(arena+hblkhd)
         95987 MiB available memory on the node where the printing process lives
------------------
     ethr =  1.37E-04,  avg # of iterations =  5.9

     negative rho (up, down):  1.756E-06 0.000E+00

     total cpu time spent up to now is      109.4 secs

     total energy              =    -807.07895528 Ry
     estimated scf accuracy    <       0.00187372 Ry

     iteration #  5     ecut=    70.00 Ry     beta= 0.70
     Davidson diagonalization with overlap

---- Real-time Memory Report at c_bands before calling an iterative solver
           243 MiB given to the printing process from OS
             0 MiB allocation reported by mallinfo(arena+hblkhd)
         95874 MiB available memory on the node where the printing process lives
------------------
     ethr =  2.40E-06,  avg # of iterations = 12.0

     negative rho (up, down):  1.178E-06 0.000E+00

     total cpu time spent up to now is      128.9 secs

     total energy              =    -807.07855414 Ry
     estimated scf accuracy    <       0.00652736 Ry

     iteration #  6     ecut=    70.00 Ry     beta= 0.70
     Davidson diagonalization with overlap

---- Real-time Memory Report at c_bands before calling an iterative solver
           253 MiB given to the printing process from OS
             0 MiB allocation reported by mallinfo(arena+hblkhd)
         95735 MiB available memory on the node where the printing process lives
------------------
     ethr =  2.40E-06,  avg # of iterations =  9.5

     total cpu time spent up to now is      144.6 secs

     total energy              =    -807.07915770 Ry
     estimated scf accuracy    <       0.00223862 Ry

     iteration #  7     ecut=    70.00 Ry     beta= 0.70
     Davidson diagonalization with overlap

---- Real-time Memory Report at c_bands before calling an iterative solver
           255 MiB given to the printing process from OS
             0 MiB allocation reported by mallinfo(arena+hblkhd)
         95732 MiB available memory on the node where the printing process lives
------------------
     ethr =  2.40E-06,  avg # of iterations =  7.1

     total cpu time spent up to now is      156.9 secs

     total energy              =    -807.07928286 Ry
     estimated scf accuracy    <       0.00000605 Ry

     iteration #  8     ecut=    70.00 Ry     beta= 0.70
     Davidson diagonalization with overlap

---- Real-time Memory Report at c_bands before calling an iterative solver
           256 MiB given to the printing process from OS
             0 MiB allocation reported by mallinfo(arena+hblkhd)
         95729 MiB available memory on the node where the printing process lives
------------------
     ethr =  7.76E-09,  avg # of iterations = 11.0

     total cpu time spent up to now is      177.5 secs

     total energy              =    -807.07928412 Ry
     estimated scf accuracy    <       0.00000154 Ry

     iteration #  9     ecut=    70.00 Ry     beta= 0.70
     Davidson diagonalization with overlap

---- Real-time Memory Report at c_bands before calling an iterative solver
           258 MiB given to the printing process from OS
             0 MiB allocation reported by mallinfo(arena+hblkhd)
         95726 MiB available memory on the node where the printing process lives
------------------
     ethr =  1.97E-09,  avg # of iterations =  7.4

     total cpu time spent up to now is      193.4 secs

     total energy              =    -807.07928451 Ry
     estimated scf accuracy    <       0.00000166 Ry

     iteration # 10     ecut=    70.00 Ry     beta= 0.70
     Davidson diagonalization with overlap

---- Real-time Memory Report at c_bands before calling an iterative solver
           258 MiB given to the printing process from OS
             0 MiB allocation reported by mallinfo(arena+hblkhd)
         95725 MiB available memory on the node where the printing process lives
------------------
     ethr =  1.97E-09,  avg # of iterations =  4.7

     total cpu time spent up to now is      205.7 secs

     End of self-consistent calculation

          k = 0.0000 0.0000 0.0000 ( 24437 PWs)   bands (ev):

   -34.7232 -34.7230 -34.7224 -34.7220 -34.6911 -34.6906 -34.6853 -34.6852
   -34.6750 -34.6747 -34.5928 -34.5885 -34.5781 -34.5485 -34.5476 -27.5371
   -27.5365 -27.5349 -27.5345 -27.5259 -27.5256 -27.5252 -27.5250 -27.5219
   -27.5217 -10.6113 -10.0818  -9.0217  -6.3075  -4.9795  -0.1242   0.0628
     0.2962   0.3001   0.4774   0.7950   0.9264   1.0627   1.2849   2.2709
     2.7528   2.8510   3.6670   3.8357   3.9152   6.3695   6.5583   7.2207
     7.6751   7.7098   8.0858   8.5688   8.8787   8.9211   8.9555   9.3734
     9.7048   9.8520  10.2976  10.3145

     occupation numbers 
     1.0000   1.0000   1.0000   1.0000   1.0000   1.0000   1.0000   1.0000
     1.0000   1.0000   1.0000   1.0000   1.0000   1.0000   1.0000   1.0000
     1.0000   1.0000   1.0000   1.0000   1.0000   1.0000   1.0000   1.0000
     1.0000   1.0000   1.0000   1.0000   1.0000   1.0000   1.0000   1.0000
     1.0000   1.0000   1.0000   1.0000   1.0000   1.0000   1.0000   0.0000
     0.0000   0.0000   0.0000   0.0000   0.0000   0.0000   0.0000   0.0000
     0.0000   0.0000   0.0000   0.0000   0.0000   0.0000   0.0000   0.0000
     0.0000   0.0000   0.0000   0.0000

          k = 0.0000 0.0915 0.0000 ( 24432 PWs)   bands (ev):

   -34.7232 -34.7230 -34.7223 -34.7220 -34.6911 -34.6906 -34.6853 -34.6852
   -34.6749 -34.6747 -34.5928 -34.5885 -34.5781 -34.5484 -34.5475 -27.5369
   -27.5363 -27.5350 -27.5346 -27.5260 -27.5256 -27.5253 -27.5249 -27.5218
   -27.5216 -10.5604 -10.0352  -8.9939  -6.3166  -5.0636  -0.3563  -0.1280
    -0.0070   0.1492   0.2486   0.5568   0.9946   1.1706   1.6138   2.3795
     2.8337   2.9854   3.6457   3.9170   4.2088   6.4521   6.5845   7.2369
     7.6519   7.7424   7.8466   8.6427   8.7667   8.9531   8.9903   9.4637
     9.8870   9.9229  10.5135  10.5869

     occupation numbers 
     1.0000   1.0000   1.0000   1.0000   1.0000   1.0000   1.0000   1.0000
     1.0000   1.0000   1.0000   1.0000   1.0000   1.0000   1.0000   1.0000
     1.0000   1.0000   1.0000   1.0000   1.0000   1.0000   1.0000   1.0000
     1.0000   1.0000   1.0000   1.0000   1.0000   1.0000   1.0000   1.0000
     1.0000   1.0000   1.0000   1.0000   1.0000   1.0000   1.0000   0.0000
     0.0000   0.0000   0.0000   0.0000   0.0000   0.0000   0.0000   0.0000
     0.0000   0.0000   0.0000   0.0000   0.0000   0.0000   0.0000   0.0000
     0.0000   0.0000   0.0000   0.0000

          k = 0.0000 0.1830 0.0000 ( 24476 PWs)   bands (ev):

   -34.7232 -34.7230 -34.7221 -34.7217 -34.6911 -34.6906 -34.6853 -34.6852
   -34.6748 -34.6746 -34.5927 -34.5886 -34.5782 -34.5483 -34.5475 -27.5364
   -27.5359 -27.5351 -27.5347 -27.5264 -27.5259 -27.5253 -27.5249 -27.5216
   -27.5213 -10.4095  -9.8980  -8.9159  -6.3566  -5.3115  -1.0677  -0.4636
    -0.3986  -0.2630   0.0231   0.2367   1.0319   1.2620   1.5884   2.6361
     3.0478   3.3620   3.8662   4.1717   4.6597   6.5806   6.6755   7.0679
     7.6301   7.7564   8.1205   8.5619   8.8266   8.9660   9.1579   9.7025
     9.8732  10.1261  10.7940  10.9934

     occupation numbers 
     1.0000   1.0000   1.0000   1.0000   1.0000   1.0000   1.0000   1.0000
     1.0000   1.0000   1.0000   1.0000   1.0000   1.0000   1.0000   1.0000
     1.0000   1.0000   1.0000   1.0000   1.0000   1.0000   1.0000   1.0000
     1.0000   1.0000   1.0000   1.0000   1.0000   1.0000   1.0000   1.0000
     1.0000   1.0000   1.0000   1.0000   1.0000   1.0000   1.0000   0.0000
     0.0000   0.0000   0.0000   0.0000   0.0000   0.0000   0.0000   0.0000
     0.0000   0.0000   0.0000   0.0000   0.0000   0.0000   0.0000   0.0000
     0.0000   0.0000   0.0000   0.0000

          k = 0.0000 0.2745 0.0000 ( 24510 PWs)   bands (ev):

   -34.7232 -34.7230 -34.7218 -34.7214 -34.6911 -34.6906 -34.6854 -34.6853
   -34.6747 -34.6744 -34.5926 -34.5886 -34.5782 -34.5481 -34.5473 -27.5360
   -27.5357 -27.5350 -27.5346 -27.5269 -27.5263 -27.5253 -27.5248 -27.5211
   -27.5208 -10.1641  -9.6794  -8.8055  -6.4629  -5.6950  -1.7615  -0.9336
    -0.8065  -0.6069  -0.2456   0.2474   0.7013   0.9851   1.6703   2.7223
     3.2436   3.7160   4.2260   4.4789   5.1324   6.2959   6.9297   7.2031
     7.8042   8.0780   8.5098   8.6333   8.8711   9.0572   9.6365   9.9444
    10.1913  10.2688  10.7153  11.4803

     occupation numbers 
     1.0000   1.0000   1.0000   1.0000   1.0000   1.0000   1.0000   1.0000
     1.0000   1.0000   1.0000   1.0000   1.0000   1.0000   1.0000   1.0000
     1.0000   1.0000   1.0000   1.0000   1.0000   1.0000   1.0000   1.0000
     1.0000   1.0000   1.0000   1.0000   1.0000   1.0000   1.0000   1.0000
     1.0000   1.0000   1.0000   1.0000   1.0000   1.0000   1.0000   0.0000
     0.0000   0.0000   0.0000   0.0000   0.0000   0.0000   0.0000   0.0000
     0.0000   0.0000   0.0000   0.0000   0.0000   0.0000   0.0000   0.0000
     0.0000   0.0000   0.0000   0.0000

          k = 0.0000 0.3660 0.0000 ( 24538 PWs)   bands (ev):

   -34.7232 -34.7229 -34.7215 -34.7211 -34.6911 -34.6907 -34.6855 -34.6854
   -34.6745 -34.6742 -34.5925 -34.5886 -34.5783 -34.5479 -34.5471 -27.5361
   -27.5359 -27.5345 -27.5341 -27.5274 -27.5268 -27.5253 -27.5247 -27.5206
   -27.5203  -9.8365  -9.4001  -8.6984  -6.6782  -6.1369  -2.3068  -1.3789
    -1.0946  -0.8057  -0.4874   0.0458   0.5047   0.8907   1.4115   2.7998
     3.3724   3.8205   4.4272   4.7700   5.5920   5.9568   7.2394   7.4924
     8.0497   8.5162   8.6342   9.1732   9.3895   9.4915  10.0852  10.2037
    10.3604  10.7869  10.8355  11.2659

     occupation numbers 
     1.0000   1.0000   1.0000   1.0000   1.0000   1.0000   1.0000   1.0000
     1.0000   1.0000   1.0000   1.0000   1.0000   1.0000   1.0000   1.0000
     1.0000   1.0000   1.0000   1.0000   1.0000   1.0000   1.0000   1.0000
     1.0000   1.0000   1.0000   1.0000   1.0000   1.0000   1.0000   1.0000
     1.0000   1.0000   1.0000   1.0000   1.0000   1.0000   1.0000   0.0000
     0.0000   0.0000   0.0000   0.0000   0.0000   0.0000   0.0000   0.0000
     0.0000   0.0000   0.0000   0.0000   0.0000   0.0000   0.0000   0.0000
     0.0000   0.0000   0.0000   0.0000

          k = 0.0000 0.4574 0.0000 ( 24542 PWs)   bands (ev):

   -34.7232 -34.7229 -34.7212 -34.7209 -34.6911 -34.6907 -34.6855 -34.6854
   -34.6743 -34.6741 -34.5924 -34.5886 -34.5784 -34.5478 -34.5469 -27.5364
   -27.5361 -27.5341 -27.5336 -27.5278 -27.5272 -27.5252 -27.5246 -27.5202
   -27.5199  -9.4517  -9.1039  -8.6569  -6.9940  -6.5220  -2.6789  -1.6009
    -1.2974  -1.0293  -0.6663  -0.1918   0.5709   0.7990   1.0990   2.8199
     3.4240   3.7338   4.5908   4.9803   5.6320   5.9148   7.3000   7.9822
     8.3484   8.9739   9.2349   9.4825   9.7276  10.0991  10.3996  10.5058
    10.7279  11.0089  11.1975  11.4568

     occupation numbers 
     1.0000   1.0000   1.0000   1.0000   1.0000   1.0000   1.0000   1.0000
     1.0000   1.0000   1.0000   1.0000   1.0000   1.0000   1.0000   1.0000
     1.0000   1.0000   1.0000   1.0000   1.0000   1.0000   1.0000   1.0000
     1.0000   1.0000   1.0000   1.0000   1.0000   1.0000   1.0000   1.0000
     1.0000   1.0000   1.0000   1.0000   1.0000   1.0000   1.0000   0.0000
     0.0000   0.0000   0.0000   0.0000   0.0000   0.0000   0.0000   0.0000
     0.0000   0.0000   0.0000   0.0000   0.0000   0.0000   0.0000   0.0000
     0.0000   0.0000   0.0000   0.0000

          k = 0.0000 0.5489 0.0000 ( 24555 PWs)   bands (ev):

   -34.7232 -34.7229 -34.7211 -34.7207 -34.6912 -34.6907 -34.6856 -34.6855
   -34.6743 -34.6740 -34.5924 -34.5887 -34.5784 -34.5478 -34.5468 -27.5366
   -27.5363 -27.5338 -27.5333 -27.5280 -27.5274 -27.5252 -27.5245 -27.5200
   -27.5196  -9.0629  -8.8865  -8.7674  -7.2550  -6.7544  -2.8721  -1.6071
    -1.4039  -1.2773  -0.7600  -0.2449   0.5977   0.7407   0.9336   2.7687
     3.4368   3.7206   4.6216   5.0836   5.5575   5.9167   7.3725   8.5114
     8.7167   9.0664   9.2565   9.6338   9.8514  10.3116  10.6674  10.8791
    11.0689  11.3042  11.5134  11.6596

     occupation numbers 
     1.0000   1.0000   1.0000   1.0000   1.0000   1.0000   1.0000   1.0000
     1.0000   1.0000   1.0000   1.0000   1.0000   1.0000   1.0000   1.0000
     1.0000   1.0000   1.0000   1.0000   1.0000   1.0000   1.0000   1.0000
     1.0000   1.0000   1.0000   1.0000   1.0000   1.0000   1.0000   1.0000
     1.0000   1.0000   1.0000   1.0000   1.0000   1.0000   1.0000   0.0000
     0.0000   0.0000   0.0000   0.0000   0.0000   0.0000   0.0000   0.0000
     0.0000   0.0000   0.0000   0.0000   0.0000   0.0000   0.0000   0.0000
     0.0000   0.0000   0.0000   0.0000

          k = 0.0769 0.0444 0.0000 ( 24447 PWs)   bands (ev):

   -34.7232 -34.7229 -34.7224 -34.7220 -34.6911 -34.6906 -34.6853 -34.6852
   -34.6749 -34.6747 -34.5928 -34.5885 -34.5781 -34.5484 -34.5475 -27.5371
   -27.5365 -27.5348 -27.5344 -27.5259 -27.5256 -27.5253 -27.5250 -27.5219
   -27.5216 -10.5632 -10.0382  -8.9965  -6.3203  -5.0724  -0.4284  -0.2503
     0.0728   0.1689   0.4129   0.5031   1.1184   1.1598   1.5774   2.5144
     2.7496   2.9371   3.7634   3.9073   4.1005   6.4486   6.5744   7.2328
     7.4874   7.6990   8.1586   8.5714   8.7501   8.8636   9.2158   9.3365
     9.9042  10.0483  10.3362  10.5447

     occupation numbers 
     1.0000   1.0000   1.0000   1.0000   1.0000   1.0000   1.0000   1.0000
     1.0000   1.0000   1.0000   1.0000   1.0000   1.0000   1.0000   1.0000
     1.0000   1.0000   1.0000   1.0000   1.0000   1.0000   1.0000   1.0000
     1.0000   1.0000   1.0000   1.0000   1.0000   1.0000   1.0000   1.0000
     1.0000   1.0000   1.0000   1.0000   1.0000   1.0000   1.0000   0.0000
     0.0000   0.0000   0.0000   0.0000   0.0000   0.0000   0.0000   0.0000
     0.0000   0.0000   0.0000   0.0000   0.0000   0.0000   0.0000   0.0000
     0.0000   0.0000   0.0000   0.0000

          k = 0.0769 0.1359 0.0000 ( 24471 PWs)   bands (ev):

   -34.7232 -34.7229 -34.7223 -34.7219 -34.6911 -34.6906 -34.6853 -34.6852
   -34.6749 -34.6746 -34.5927 -34.5886 -34.5781 -34.5483 -34.5475 -27.5370
   -27.5364 -27.5347 -27.5343 -27.5262 -27.5257 -27.5253 -27.5249 -27.5217
   -27.5215 -10.4637  -9.9479  -8.9449  -6.3466  -5.2422  -0.8713  -0.5291
    -0.3080  -0.0762   0.1848   0.4645   0.8463   1.4984   1.6070   2.6798
     2.8742   3.2361   3.9099   4.0269   4.4747   6.5888   6.6192   7.1554
     7.3923   7.6960   8.2981   8.6016   8.6589   8.9309   9.1268   9.6801
     9.9546  10.1846  10.5691  10.8644

     occupation numbers 
     1.0000   1.0000   1.0000   1.0000   1.0000   1.0000   1.0000   1.0000
     1.0000   1.0000   1.0000   1.0000   1.0000   1.0000   1.0000   1.0000
     1.0000   1.0000   1.0000   1.0000   1.0000   1.0000   1.0000   1.0000
     1.0000   1.0000   1.0000   1.0000   1.0000   1.0000   1.0000   1.0000
     1.0000   1.0000   1.0000   1.0000   1.0000   1.0000   1.0000   0.0000
     0.0000   0.0000   0.0000   0.0000   0.0000   0.0000   0.0000   0.0000
     0.0000   0.0000   0.0000   0.0000   0.0000   0.0000   0.0000   0.0000
     0.0000   0.0000   0.0000   0.0000

          k = 0.0769 0.2274 0.0000 ( 24488 PWs)   bands (ev):

   -34.7232 -34.7229 -34.7220 -34.7216 -34.6911 -34.6907 -34.6853 -34.6853
   -34.6747 -34.6745 -34.5927 -34.5886 -34.5782 -34.5481 -34.5475 -27.5366
   -27.5362 -27.5346 -27.5343 -27.5266 -27.5260 -27.5253 -27.5249 -27.5214
   -27.5211 -10.2667  -9.7711  -8.8510  -6.4191  -5.5613  -1.4342  -1.0593
    -0.6075  -0.4323  -0.0877   0.2313   0.7665   1.2902   1.6969   2.8534
     3.0430   3.6209   4.1093   4.4441   4.9093   6.5712   6.8160   7.0554
     7.4519   7.9164   8.5262   8.5869   8.7299   8.9934   9.5158   9.9307
    10.0385  10.3448  10.8939  11.0378

     occupation numbers 
     1.0000   1.0000   1.0000   1.0000   1.0000   1.0000   1.0000   1.0000
     1.0000   1.0000   1.0000   1.0000   1.0000   1.0000   1.0000   1.0000
     1.0000   1.0000   1.0000   1.0000   1.0000   1.0000   1.0000   1.0000
     1.0000   1.0000   1.0000   1.0000   1.0000   1.0000   1.0000   1.0000
     1.0000   1.0000   1.0000   1.0000   1.0000   1.0000   1.0000   0.0000
     0.0000   0.0000   0.0000   0.0000   0.0000   0.0000   0.0000   0.0000
     0.0000   0.0000   0.0000   0.0000   0.0000   0.0000   0.0000   0.0000
     0.0000   0.0000   0.0000   0.0000

          k = 0.0769 0.3189 0.0000 ( 24516 PWs)   bands (ev):

   -34.7232 -34.7229 -34.7217 -34.7213 -34.6911 -34.6907 -34.6854 -34.6853
   -34.6746 -34.6743 -34.5925 -34.5886 -34.5783 -34.5479 -34.5473 -27.5364
   -27.5361 -27.5344 -27.5341 -27.5271 -27.5264 -27.5253 -27.5248 -27.5209
   -27.5206  -9.9807  -9.5217  -8.7393  -6.5748  -5.9819  -2.0227  -1.4191
    -0.9078  -0.7702  -0.4575   0.1143   0.7182   0.9220   1.6096   3.0001
     3.1615   3.8004   4.4546   4.7121   5.3868   6.2433   7.1008   7.3552
     7.7995   8.1752   8.3592   8.8776   9.2417   9.4597   9.8763  10.1998
    10.2670  10.4917  11.0974  11.3089

     occupation numbers 
     1.0000   1.0000   1.0000   1.0000   1.0000   1.0000   1.0000   1.0000
     1.0000   1.0000   1.0000   1.0000   1.0000   1.0000   1.0000   1.0000
     1.0000   1.0000   1.0000   1.0000   1.0000   1.0000   1.0000   1.0000
     1.0000   1.0000   1.0000   1.0000   1.0000   1.0000   1.0000   1.0000
     1.0000   1.0000   1.0000   1.0000   1.0000   1.0000   1.0000   0.0000
     0.0000   0.0000   0.0000   0.0000   0.0000   0.0000   0.0000   0.0000
     0.0000   0.0000   0.0000   0.0000   0.0000   0.0000   0.0000   0.0000
     0.0000   0.0000   0.0000   0.0000

          k = 0.0769 0.4104 0.0000 ( 24529 PWs)   bands (ev):

   -34.7232 -34.7229 -34.7214 -34.7210 -34.6912 -34.6907 -34.6855 -34.6854
   -34.6744 -34.6742 -34.5924 -34.5886 -34.5783 -34.5478 -34.5471 -27.5363
   -27.5362 -27.5341 -27.5338 -27.5275 -27.5269 -27.5253 -27.5247 -27.5205
   -27.5202  -9.6229  -9.2290  -8.6550  -6.8413  -6.4071  -2.4833  -1.5832
    -1.2911  -1.0612  -0.5734  -0.0905   0.5450   0.8333   1.3817   3.0493
     3.2070   3.8437   4.6743   4.9043   5.7111   5.9820   7.3368   7.7345
     8.1890   8.5011   8.8313   9.3011   9.6347   9.7733  10.2673  10.4619
    10.7425  10.8713  11.2349  11.4144

     occupation numbers 
     1.0000   1.0000   1.0000   1.0000   1.0000   1.0000   1.0000   1.0000
     1.0000   1.0000   1.0000   1.0000   1.0000   1.0000   1.0000   1.0000
     1.0000   1.0000   1.0000   1.0000   1.0000   1.0000   1.0000   1.0000
     1.0000   1.0000   1.0000   1.0000   1.0000   1.0000   1.0000   1.0000
     1.0000   1.0000   1.0000   1.0000   1.0000   1.0000   1.0000   0.0000
     0.0000   0.0000   0.0000   0.0000   0.0000   0.0000   0.0000   0.0000
     0.0000   0.0000   0.0000   0.0000   0.0000   0.0000   0.0000   0.0000
     0.0000   0.0000   0.0000   0.0000

          k = 0.0769 0.5019 0.0000 ( 24550 PWs)   bands (ev):

   -34.7232 -34.7229 -34.7212 -34.7208 -34.6912 -34.6907 -34.6855 -34.6854
   -34.6743 -34.6741 -34.5924 -34.5887 -34.5784 -34.5477 -34.5469 -27.5364
   -27.5362 -27.5339 -27.5335 -27.5278 -27.5272 -27.5252 -27.5246 -27.5201
   -27.5198  -9.2299  -8.9570  -8.6727  -7.1541  -6.7238  -2.7671  -1.6123
    -1.5321  -1.2709  -0.6786  -0.2816   0.5236   0.7910   1.1609   3.0821
     3.1907   3.7767   4.8450   4.9741   5.6954   5.9612   7.3722   8.2754
     8.5244   9.1453   9.2945   9.3510   9.8770  10.0367  10.4862  10.7585
    10.9942  11.0737  11.3666  11.4941

     occupation numbers 
     1.0000   1.0000   1.0000   1.0000   1.0000   1.0000   1.0000   1.0000
     1.0000   1.0000   1.0000   1.0000   1.0000   1.0000   1.0000   1.0000
     1.0000   1.0000   1.0000   1.0000   1.0000   1.0000   1.0000   1.0000
     1.0000   1.0000   1.0000   1.0000   1.0000   1.0000   1.0000   1.0000
     1.0000   1.0000   1.0000   1.0000   1.0000   1.0000   1.0000   0.0000
     0.0000   0.0000   0.0000   0.0000   0.0000   0.0000   0.0000   0.0000
     0.0000   0.0000   0.0000   0.0000   0.0000   0.0000   0.0000   0.0000
     0.0000   0.0000   0.0000   0.0000

          k = 0.0769 0.5933 0.0000 ( 24545 PWs)   bands (ev):

   -34.7232 -34.7229 -34.7211 -34.7207 -34.6912 -34.6907 -34.6856 -34.6855
   -34.6742 -34.6740 -34.5923 -34.5887 -34.5784 -34.5478 -34.5468 -27.5364
   -27.5362 -27.5339 -27.5334 -27.5280 -27.5274 -27.5252 -27.5246 -27.5200
   -27.5196  -8.8848  -8.8625  -8.8313  -7.3048  -6.8462  -2.8645  -1.6748
    -1.5007  -1.3773  -0.7698  -0.3209   0.5931   0.7000   1.0861   3.0516
     3.2271   3.7178   4.8998   4.9865   5.6938   5.9006   7.4204   8.6471
     8.8888   8.9257   9.1362   9.8197   9.9528   9.9860  10.6236  10.7350
    11.0141  11.2634  11.3306  11.6083

     occupation numbers 
     1.0000   1.0000   1.0000   1.0000   1.0000   1.0000   1.0000   1.0000
     1.0000   1.0000   1.0000   1.0000   1.0000   1.0000   1.0000   1.0000
     1.0000   1.0000   1.0000   1.0000   1.0000   1.0000   1.0000   1.0000
     1.0000   1.0000   1.0000   1.0000   1.0000   1.0000   1.0000   1.0000
     1.0000   1.0000   1.0000   1.0000   1.0000   1.0000   1.0000   0.0000
     0.0000   0.0000   0.0000   0.0000   0.0000   0.0000   0.0000   0.0000
     0.0000   0.0000   0.0000   0.0000   0.0000   0.0000   0.0000   0.0000
     0.0000   0.0000   0.0000   0.0000

          k = 0.0769-0.5045 0.0000 ( 24534 PWs)   bands (ev):

   -34.7232 -34.7229 -34.7212 -34.7208 -34.6912 -34.6907 -34.6856 -34.6855
   -34.6743 -34.6740 -34.5924 -34.5886 -34.5784 -34.5478 -34.5468 -27.5363
   -27.5360 -27.5341 -27.5336 -27.5279 -27.5273 -27.5252 -27.5246 -27.5200
   -27.5197  -9.2196  -8.9497  -8.6743  -7.1581  -6.7215  -2.7721  -1.6080
    -1.5592  -1.2401  -0.7062  -0.2567   0.5380   0.7530   1.1655   3.0720
     3.1840   3.7548   4.8468   4.9448   5.6863   5.9342   7.3583   8.2833
     8.5459   9.0301   9.2011   9.3453   9.8735   9.9028  10.4537  10.6692
    10.9387  11.1003  11.5547  11.6145

     occupation numbers 
     1.0000   1.0000   1.0000   1.0000   1.0000   1.0000   1.0000   1.0000
     1.0000   1.0000   1.0000   1.0000   1.0000   1.0000   1.0000   1.0000
     1.0000   1.0000   1.0000   1.0000   1.0000   1.0000   1.0000   1.0000
     1.0000   1.0000   1.0000   1.0000   1.0000   1.0000   1.0000   1.0000
     1.0000   1.0000   1.0000   1.0000   1.0000   1.0000   1.0000   0.0000
     0.0000   0.0000   0.0000   0.0000   0.0000   0.0000   0.0000   0.0000
     0.0000   0.0000   0.0000   0.0000   0.0000   0.0000   0.0000   0.0000
     0.0000   0.0000   0.0000   0.0000

          k = 0.0769-0.4130 0.0000 ( 24563 PWs)   bands (ev):

   -34.7232 -34.7229 -34.7214 -34.7210 -34.6911 -34.6907 -34.6855 -34.6854
   -34.6744 -34.6741 -34.5925 -34.5886 -34.5784 -34.5479 -34.5469 -27.5361
   -27.5357 -27.5345 -27.5340 -27.5276 -27.5270 -27.5253 -27.5247 -27.5203
   -27.5200  -9.6124  -9.2190  -8.6514  -6.8440  -6.4007  -2.4929  -1.5981
    -1.2973  -1.0254  -0.6100  -0.0518   0.5517   0.7853   1.3681   3.0481
     3.1803   3.7881   4.6391   4.9076   5.6775   5.9504   7.3141   7.7386
     8.1887   8.3188   8.8189   9.2245   9.6284   9.7692  10.4582  10.4955
    10.7333  10.9599  11.2988  11.3861

     occupation numbers 
     1.0000   1.0000   1.0000   1.0000   1.0000   1.0000   1.0000   1.0000
     1.0000   1.0000   1.0000   1.0000   1.0000   1.0000   1.0000   1.0000
     1.0000   1.0000   1.0000   1.0000   1.0000   1.0000   1.0000   1.0000
     1.0000   1.0000   1.0000   1.0000   1.0000   1.0000   1.0000   1.0000
     1.0000   1.0000   1.0000   1.0000   1.0000   1.0000   1.0000   0.0000
     0.0000   0.0000   0.0000   0.0000   0.0000   0.0000   0.0000   0.0000
     0.0000   0.0000   0.0000   0.0000   0.0000   0.0000   0.0000   0.0000
     0.0000   0.0000   0.0000   0.0000

          k = 0.0769-0.3215 0.0000 ( 24555 PWs)   bands (ev):

   -34.7232 -34.7229 -34.7216 -34.7213 -34.6911 -34.6907 -34.6855 -34.6854
   -34.6745 -34.6743 -34.5926 -34.5886 -34.5783 -34.5481 -34.5471 -27.5357
   -27.5354 -27.5351 -27.5346 -27.5272 -27.5266 -27.5253 -27.5248 -27.5208
   -27.5205  -9.9715  -9.5121  -8.7333  -6.5723  -5.9714  -2.0366  -1.4172
    -0.9255  -0.7391  -0.4779   0.1599   0.6661   0.8972   1.5762   2.9558
     3.1362   3.7652   4.3696   4.7580   5.3643   6.2115   7.0824   7.3347
     7.7386   8.1396   8.3543   8.8263   9.2962   9.6180   9.9547  10.2175
    10.2585  10.5299  11.1719  11.3328

     occupation numbers 
     1.0000   1.0000   1.0000   1.0000   1.0000   1.0000   1.0000   1.0000
     1.0000   1.0000   1.0000   1.0000   1.0000   1.0000   1.0000   1.0000
     1.0000   1.0000   1.0000   1.0000   1.0000   1.0000   1.0000   1.0000
     1.0000   1.0000   1.0000   1.0000   1.0000   1.0000   1.0000   1.0000
     1.0000   1.0000   1.0000   1.0000   1.0000   1.0000   1.0000   0.0000
     0.0000   0.0000   0.0000   0.0000   0.0000   0.0000   0.0000   0.0000
     0.0000   0.0000   0.0000   0.0000   0.0000   0.0000   0.0000   0.0000
     0.0000   0.0000   0.0000   0.0000

          k = 0.0769-0.2301 0.0000 ( 24493 PWs)   bands (ev):

   -34.7232 -34.7229 -34.7220 -34.7216 -34.6911 -34.6906 -34.6854 -34.6853
   -34.6747 -34.6745 -34.5927 -34.5886 -34.5782 -34.5483 -34.5472 -27.5359
   -27.5354 -27.5353 -27.5350 -27.5267 -27.5262 -27.5254 -27.5249 -27.5212
   -27.5209 -10.2598  -9.7635  -8.8452  -6.4133  -5.5479  -1.4414  -1.0399
    -0.6103  -0.4146  -0.1182   0.2469   0.7225   1.2304   1.6789   2.7254
     3.0502   3.6418   4.0147   4.5312   4.8989   6.5479   6.8224   7.0163
     7.4436   7.9165   8.5173   8.5823   8.8310   9.0188   9.5281   9.9612
    10.0017  10.3770  10.8343  11.0867

     occupation numbers 
     1.0000   1.0000   1.0000   1.0000   1.0000   1.0000   1.0000   1.0000
     1.0000   1.0000   1.0000   1.0000   1.0000   1.0000   1.0000   1.0000
     1.0000   1.0000   1.0000   1.0000   1.0000   1.0000   1.0000   1.0000
     1.0000   1.0000   1.0000   1.0000   1.0000   1.0000   1.0000   1.0000
     1.0000   1.0000   1.0000   1.0000   1.0000   1.0000   1.0000   0.0000
     0.0000   0.0000   0.0000   0.0000   0.0000   0.0000   0.0000   0.0000
     0.0000   0.0000   0.0000   0.0000   0.0000   0.0000   0.0000   0.0000
     0.0000   0.0000   0.0000   0.0000

          k = 0.0769-0.1386 0.0000 ( 24453 PWs)   bands (ev):

   -34.7232 -34.7229 -34.7222 -34.7218 -34.6911 -34.6906 -34.6853 -34.6852
   -34.6748 -34.6746 -34.5928 -34.5885 -34.5781 -34.5484 -34.5474 -27.5365
   -27.5360 -27.5351 -27.5347 -27.5262 -27.5258 -27.5253 -27.5250 -27.5216
   -27.5214 -10.4594  -9.9431  -8.9409  -6.3415  -5.2302  -0.8361  -0.5088
    -0.2600  -0.1037   0.1122   0.4505   0.7835   1.5022   1.5569   2.5463
     2.9603   3.1881   3.8714   4.1194   4.4838   6.5968   6.6228   7.1330
     7.4318   7.7086   8.2627   8.5908   8.6771   8.9800   9.0689   9.7162
     9.9044  10.1737  10.5232  10.8670

     occupation numbers 
     1.0000   1.0000   1.0000   1.0000   1.0000   1.0000   1.0000   1.0000
     1.0000   1.0000   1.0000   1.0000   1.0000   1.0000   1.0000   1.0000
     1.0000   1.0000   1.0000   1.0000   1.0000   1.0000   1.0000   1.0000
     1.0000   1.0000   1.0000   1.0000   1.0000   1.0000   1.0000   1.0000
     1.0000   1.0000   1.0000   1.0000   1.0000   1.0000   1.0000   0.0000
     0.0000   0.0000   0.0000   0.0000   0.0000   0.0000   0.0000   0.0000
     0.0000   0.0000   0.0000   0.0000   0.0000   0.0000   0.0000   0.0000
     0.0000   0.0000   0.0000   0.0000

          k = 0.0769-0.0471 0.0000 ( 24433 PWs)   bands (ev):

   -34.7232 -34.7229 -34.7224 -34.7220 -34.6911 -34.6906 -34.6853 -34.6852
   -34.6749 -34.6747 -34.5928 -34.5885 -34.5781 -34.5485 -34.5475 -27.5370
   -27.5364 -27.5349 -27.5345 -27.5259 -27.5256 -27.5253 -27.5250 -27.5218
   -27.5216 -10.5618 -10.0366  -8.9951  -6.3183  -5.0675  -0.3931  -0.1355
    -0.0479   0.1638   0.3446   0.5398   1.0373   1.1782   1.5973   2.4336
     2.8007   2.9638   3.7155   3.8875   4.1696   6.4503   6.5800   7.2296
     7.5648   7.7114   8.0230   8.6139   8.7328   8.9327   9.0975   9.3868
     9.9124   9.9693  10.4325  10.5634

     occupation numbers 
     1.0000   1.0000   1.0000   1.0000   1.0000   1.0000   1.0000   1.0000
     1.0000   1.0000   1.0000   1.0000   1.0000   1.0000   1.0000   1.0000
     1.0000   1.0000   1.0000   1.0000   1.0000   1.0000   1.0000   1.0000
     1.0000   1.0000   1.0000   1.0000   1.0000   1.0000   1.0000   1.0000
     1.0000   1.0000   1.0000   1.0000   1.0000   1.0000   1.0000   0.0000
     0.0000   0.0000   0.0000   0.0000   0.0000   0.0000   0.0000   0.0000
     0.0000   0.0000   0.0000   0.0000   0.0000   0.0000   0.0000   0.0000
     0.0000   0.0000   0.0000   0.0000

          k = 0.1538 0.0888 0.0000 ( 24463 PWs)   bands (ev):

   -34.7231 -34.7228 -34.7223 -34.7219 -34.6911 -34.6907 -34.6853 -34.6852
   -34.6749 -34.6746 -34.5927 -34.5886 -34.5781 -34.5483 -34.5475 -27.5373
   -27.5367 -27.5343 -27.5340 -27.5261 -27.5257 -27.5254 -27.5251 -27.5217
   -27.5215 -10.4206  -9.9100  -8.9263  -6.3715  -5.3406  -1.1811  -0.5605
    -0.3218  -0.2307   0.2042   0.2743   1.1836   1.3308   1.5708   2.7958
     3.1343   3.2555   3.9341   4.1585   4.5187   6.5359   6.6481   7.0250
     7.5795   7.7318   8.4210   8.4774   8.7072   8.9421   9.4550   9.6077
     9.8296  10.2604  10.6586  10.8149

     occupation numbers 
     1.0000   1.0000   1.0000   1.0000   1.0000   1.0000   1.0000   1.0000
     1.0000   1.0000   1.0000   1.0000   1.0000   1.0000   1.0000   1.0000
     1.0000   1.0000   1.0000   1.0000   1.0000   1.0000   1.0000   1.0000
     1.0000   1.0000   1.0000   1.0000   1.0000   1.0000   1.0000   1.0000
     1.0000   1.0000   1.0000   1.0000   1.0000   1.0000   1.0000   0.0000
     0.0000   0.0000   0.0000   0.0000   0.0000   0.0000   0.0000   0.0000
     0.0000   0.0000   0.0000   0.0000   0.0000   0.0000   0.0000   0.0000
     0.0000   0.0000   0.0000   0.0000

          k = 0.1538 0.1803 0.0000 ( 24472 PWs)   bands (ev):

   -34.7231 -34.7228 -34.7221 -34.7218 -34.6911 -34.6907 -34.6853 -34.6852
   -34.6748 -34.6745 -34.5926 -34.5886 -34.5781 -34.5482 -34.5475 -27.5372
   -27.5367 -27.5342 -27.5338 -27.5264 -27.5259 -27.5253 -27.5250 -27.5215
   -27.5212 -10.2751  -9.7803  -8.8593  -6.4319  -5.5799  -1.5287  -0.9707
    -0.6943  -0.3010  -0.0951   0.3052   0.8362   1.3184   1.7328   2.8196
     3.2595   3.5363   4.0269   4.6552   4.7223   6.5060   6.8083   7.0261
     7.4766   7.8885   8.4232   8.5543   8.9344   9.0559   9.5080   9.9180
    10.1313  10.2612  10.8437  11.0766

     occupation numbers 
     1.0000   1.0000   1.0000   1.0000   1.0000   1.0000   1.0000   1.0000
     1.0000   1.0000   1.0000   1.0000   1.0000   1.0000   1.0000   1.0000
     1.0000   1.0000   1.0000   1.0000   1.0000   1.0000   1.0000   1.0000
     1.0000   1.0000   1.0000   1.0000   1.0000   1.0000   1.0000   1.0000
     1.0000   1.0000   1.0000   1.0000   1.0000   1.0000   1.0000   0.0000
     0.0000   0.0000   0.0000   0.0000   0.0000   0.0000   0.0000   0.0000
     0.0000   0.0000   0.0000   0.0000   0.0000   0.0000   0.0000   0.0000
     0.0000   0.0000   0.0000   0.0000

          k = 0.1538 0.2718 0.0000 ( 24486 PWs)   bands (ev):

   -34.7231 -34.7228 -34.7219 -34.7215 -34.6912 -34.6907 -34.6854 -34.6853
   -34.6746 -34.6744 -34.5925 -34.5887 -34.5782 -34.5479 -34.5474 -27.5369
   -27.5365 -27.5340 -27.5338 -27.5268 -27.5262 -27.5254 -27.5249 -27.5211
   -27.5209 -10.0369  -9.5719  -8.7625  -6.5518  -5.9418  -1.7766  -1.6398
    -0.8343  -0.6793  -0.4070   0.0379   0.7756   1.3856   1.5117   2.9262
     3.5228   3.6741   4.1706   5.0010   5.1796   6.6867   6.7582   7.1733
     7.5342   8.1481   8.2015   8.5551   9.3204   9.6492   9.9620  10.0325
    10.2838  10.6880  11.0072  11.0733

     occupation numbers 
     1.0000   1.0000   1.0000   1.0000   1.0000   1.0000   1.0000   1.0000
     1.0000   1.0000   1.0000   1.0000   1.0000   1.0000   1.0000   1.0000
     1.0000   1.0000   1.0000   1.0000   1.0000   1.0000   1.0000   1.0000
     1.0000   1.0000   1.0000   1.0000   1.0000   1.0000   1.0000   1.0000
     1.0000   1.0000   1.0000   1.0000   1.0000   1.0000   1.0000   0.0000
     0.0000   0.0000   0.0000   0.0000   0.0000   0.0000   0.0000   0.0000
     0.0000   0.0000   0.0000   0.0000   0.0000   0.0000   0.0000   0.0000
     0.0000   0.0000   0.0000   0.0000

          k = 0.1538 0.3633 0.0000 ( 24522 PWs)   bands (ev):

   -34.7231 -34.7228 -34.7216 -34.7212 -34.6912 -34.6907 -34.6854 -34.6853
   -34.6745 -34.6742 -34.5924 -34.5887 -34.5783 -34.5477 -34.5473 -27.5366
   -27.5364 -27.5339 -27.5338 -27.5272 -27.5265 -27.5254 -27.5249 -27.5207
   -27.5204  -9.7184  -9.3046  -8.6650  -6.7524  -6.3689  -2.1921  -1.8844
    -1.1841  -0.9765  -0.6647  -0.1966   0.8138   1.0375   1.4599   3.0546
     3.5949   3.7220   4.5229   5.1812   5.5365   6.4423   7.1677   7.6032
     7.7001   8.1371   8.6284   8.7880   9.5377   9.6750  10.3914  10.4873
    10.7942  11.0088  11.0533  11.7592

     occupation numbers 
     1.0000   1.0000   1.0000   1.0000   1.0000   1.0000   1.0000   1.0000
     1.0000   1.0000   1.0000   1.0000   1.0000   1.0000   1.0000   1.0000
     1.0000   1.0000   1.0000   1.0000   1.0000   1.0000   1.0000   1.0000
     1.0000   1.0000   1.0000   1.0000   1.0000   1.0000   1.0000   1.0000
     1.0000   1.0000   1.0000   1.0000   1.0000   1.0000   1.0000   0.0000
     0.0000   0.0000   0.0000   0.0000   0.0000   0.0000   0.0000   0.0000
     0.0000   0.0000   0.0000   0.0000   0.0000   0.0000   0.0000   0.0000
     0.0000   0.0000   0.0000   0.0000

          k = 0.1538 0.4548 0.0000 ( 24526 PWs)   bands (ev):

   -34.7231 -34.7228 -34.7213 -34.7210 -34.6912 -34.6907 -34.6855 -34.6854
   -34.6743 -34.6741 -34.5924 -34.5887 -34.5784 -34.5476 -34.5471 -27.5363
   -27.5362 -27.5339 -27.5337 -27.5276 -27.5269 -27.5253 -27.5248 -27.5203
   -27.5200  -9.3456  -9.0202  -8.6167  -7.0363  -6.7535  -2.5632  -1.9085
    -1.4329  -1.3500  -0.7335  -0.3549   0.6061   0.9229   1.4058   3.0261
     3.5920   3.8640   4.6734   5.2696   5.7905   6.2324   7.4902   7.9921
     8.3260   8.3857   9.0480   9.1444   9.7298   9.8120  10.2964  10.6886
    10.9705  11.1918  11.4258  11.6594

     occupation numbers 
     1.0000   1.0000   1.0000   1.0000   1.0000   1.0000   1.0000   1.0000
     1.0000   1.0000   1.0000   1.0000   1.0000   1.0000   1.0000   1.0000
     1.0000   1.0000   1.0000   1.0000   1.0000   1.0000   1.0000   1.0000
     1.0000   1.0000   1.0000   1.0000   1.0000   1.0000   1.0000   1.0000
     1.0000   1.0000   1.0000   1.0000   1.0000   1.0000   1.0000   0.0000
     0.0000   0.0000   0.0000   0.0000   0.0000   0.0000   0.0000   0.0000
     0.0000   0.0000   0.0000   0.0000   0.0000   0.0000   0.0000   0.0000
     0.0000   0.0000   0.0000   0.0000

          k = 0.1538 0.5463 0.0000 ( 24571 PWs)   bands (ev):

   -34.7231 -34.7228 -34.7212 -34.7208 -34.6912 -34.6907 -34.6855 -34.6854
   -34.6743 -34.6740 -34.5923 -34.5887 -34.5784 -34.5477 -34.5469 -27.5361
   -27.5360 -27.5340 -27.5337 -27.5278 -27.5272 -27.5253 -27.5248 -27.5201
   -27.5198  -8.9743  -8.8077  -8.6949  -7.2926  -6.9804  -2.7482  -1.8760
    -1.7478  -1.3406  -0.7231  -0.5965   0.5530   0.8761   1.3092   3.0924
     3.5685   3.7617   4.8404   5.2795   5.8735   6.1062   7.5270   8.5102
     8.8121   8.9784   9.1219   9.6001   9.8101   9.9087  10.3747  10.5153
    10.6592  10.7288  11.1053  11.5895

     occupation numbers 
     1.0000   1.0000   1.0000   1.0000   1.0000   1.0000   1.0000   1.0000
     1.0000   1.0000   1.0000   1.0000   1.0000   1.0000   1.0000   1.0000
     1.0000   1.0000   1.0000   1.0000   1.0000   1.0000   1.0000   1.0000
     1.0000   1.0000   1.0000   1.0000   1.0000   1.0000   1.0000   1.0000
     1.0000   1.0000   1.0000   1.0000   1.0000   1.0000   1.0000   0.0000
     0.0000   0.0000   0.0000   0.0000   0.0000   0.0000   0.0000   0.0000
     0.0000   0.0000   0.0000   0.0000   0.0000   0.0000   0.0000   0.0000
     0.0000   0.0000   0.0000   0.0000

          k = 0.1538 0.6378 0.0000 ( 24538 PWs)   bands (ev):

   -34.7231 -34.7228 -34.7212 -34.7208 -34.6912 -34.6907 -34.6855 -34.6855
   -34.6742 -34.6740 -34.5923 -34.5887 -34.5784 -34.5478 -34.5467 -27.5360
   -27.5357 -27.5343 -27.5338 -27.5278 -27.5273 -27.5253 -27.5248 -27.5200
   -27.5197  -8.9565  -8.7995  -8.7029  -7.2976  -6.9789  -2.7526  -1.9063
    -1.7217  -1.3315  -0.7813  -0.5431   0.5617   0.8473   1.3111   3.0949
     3.5546   3.7371   4.8310   5.2637   5.8544   6.0876   7.5105   8.5245
     8.8454   8.9213   8.9315   9.5267   9.8481   9.8761  10.3836  10.4981
    10.6277  10.9081  11.1565  11.5897

     occupation numbers 
     1.0000   1.0000   1.0000   1.0000   1.0000   1.0000   1.0000   1.0000
     1.0000   1.0000   1.0000   1.0000   1.0000   1.0000   1.0000   1.0000
     1.0000   1.0000   1.0000   1.0000   1.0000   1.0000   1.0000   1.0000
     1.0000   1.0000   1.0000   1.0000   1.0000   1.0000   1.0000   1.0000
     1.0000   1.0000   1.0000   1.0000   1.0000   1.0000   1.0000   0.0000
     0.0000   0.0000   0.0000   0.0000   0.0000   0.0000   0.0000   0.0000
     0.0000   0.0000   0.0000   0.0000   0.0000   0.0000   0.0000   0.0000
     0.0000   0.0000   0.0000   0.0000

          k = 0.1538-0.4601 0.0000 ( 24546 PWs)   bands (ev):

   -34.7231 -34.7228 -34.7213 -34.7209 -34.6912 -34.6907 -34.6855 -34.6854
   -34.6743 -34.6741 -34.5924 -34.5887 -34.5784 -34.5479 -34.5467 -27.5358
   -27.5356 -27.5345 -27.5341 -27.5277 -27.5272 -27.5253 -27.5248 -27.5201
   -27.5198  -9.3246  -9.0018  -8.6130  -7.0441  -6.7460  -2.5775  -1.9271
    -1.4422  -1.3236  -0.7795  -0.2987   0.5982   0.8736   1.3944   3.0210
     3.5570   3.7902   4.6441   5.2381   5.7308   6.1889   7.4468   7.8874
     8.2259   8.4131   8.9616   9.1711   9.6494   9.8378  10.2789  10.6976
    11.0067  11.1818  11.4352  11.7153

     occupation numbers 
     1.0000   1.0000   1.0000   1.0000   1.0000   1.0000   1.0000   1.0000
     1.0000   1.0000   1.0000   1.0000   1.0000   1.0000   1.0000   1.0000
     1.0000   1.0000   1.0000   1.0000   1.0000   1.0000   1.0000   1.0000
     1.0000   1.0000   1.0000   1.0000   1.0000   1.0000   1.0000   1.0000
     1.0000   1.0000   1.0000   1.0000   1.0000   1.0000   1.0000   0.0000
     0.0000   0.0000   0.0000   0.0000   0.0000   0.0000   0.0000   0.0000
     0.0000   0.0000   0.0000   0.0000   0.0000   0.0000   0.0000   0.0000
     0.0000   0.0000   0.0000   0.0000

          k = 0.1538-0.3686 0.0000 ( 24537 PWs)   bands (ev):

   -34.7231 -34.7229 -34.7215 -34.7211 -34.6911 -34.6907 -34.6855 -34.6854
   -34.6744 -34.6742 -34.5925 -34.5886 -34.5784 -34.5481 -34.5468 -27.5356
   -27.5356 -27.5347 -27.5345 -27.5274 -27.5269 -27.5254 -27.5249 -27.5204
   -27.5201  -9.6987  -9.2845  -8.6542  -6.7512  -6.3550  -2.2163  -1.8863
    -1.1957  -0.9747  -0.6942  -0.1366   0.7673   0.9886   1.4234   3.0087
     3.5540   3.6403   4.4449   5.1761   5.4698   6.3854   7.0555   7.6066
     7.6566   8.1292   8.6434   8.7395   9.5370   9.7098  10.4542  10.5448
    10.8596  11.0472  11.2152  11.8049

     occupation numbers 
     1.0000   1.0000   1.0000   1.0000   1.0000   1.0000   1.0000   1.0000
     1.0000   1.0000   1.0000   1.0000   1.0000   1.0000   1.0000   1.0000
     1.0000   1.0000   1.0000   1.0000   1.0000   1.0000   1.0000   1.0000
     1.0000   1.0000   1.0000   1.0000   1.0000   1.0000   1.0000   1.0000
     1.0000   1.0000   1.0000   1.0000   1.0000   1.0000   1.0000   0.0000
     0.0000   0.0000   0.0000   0.0000   0.0000   0.0000   0.0000   0.0000
     0.0000   0.0000   0.0000   0.0000   0.0000   0.0000   0.0000   0.0000
     0.0000   0.0000   0.0000   0.0000

          k = 0.1538-0.2771 0.0000 ( 24534 PWs)   bands (ev):

   -34.7231 -34.7229 -34.7218 -34.7214 -34.6911 -34.6907 -34.6854 -34.6853
   -34.6746 -34.6743 -34.5926 -34.5886 -34.5783 -34.5482 -34.5470 -27.5359
   -27.5355 -27.5349 -27.5346 -27.5270 -27.5266 -27.5254 -27.5250 -27.5208
   -27.5205 -10.0208  -9.5545  -8.7499  -6.5414  -5.9210  -1.7637  -1.6642
    -0.8193  -0.7248  -0.3999   0.0555   0.7079   1.3251   1.4545   2.8081
     3.4735   3.6642   4.0695   5.0295   5.1544   6.6322   6.7021   7.1672
     7.5460   8.1565   8.2067   8.5173   9.3643   9.7664  10.0523  10.0773
    10.3522  10.6413  10.9664  11.1092

     occupation numbers 
     1.0000   1.0000   1.0000   1.0000   1.0000   1.0000   1.0000   1.0000
     1.0000   1.0000   1.0000   1.0000   1.0000   1.0000   1.0000   1.0000
     1.0000   1.0000   1.0000   1.0000   1.0000   1.0000   1.0000   1.0000
     1.0000   1.0000   1.0000   1.0000   1.0000   1.0000   1.0000   1.0000
     1.0000   1.0000   1.0000   1.0000   1.0000   1.0000   1.0000   0.0000
     0.0000   0.0000   0.0000   0.0000   0.0000   0.0000   0.0000   0.0000
     0.0000   0.0000   0.0000   0.0000   0.0000   0.0000   0.0000   0.0000
     0.0000   0.0000   0.0000   0.0000

          k = 0.1538-0.1856 0.0000 ( 24476 PWs)   bands (ev):

   -34.7231 -34.7229 -34.7220 -34.7216 -34.6911 -34.6906 -34.6854 -34.6853
   -34.6747 -34.6745 -34.5927 -34.5886 -34.5782 -34.5484 -34.5472 -27.5364
   -27.5359 -27.5349 -27.5345 -27.5265 -27.5262 -27.5254 -27.5251 -27.5212
   -27.5210 -10.2638  -9.7678  -8.8490  -6.4194  -5.5566  -1.4890  -0.9918
    -0.6520  -0.3493  -0.1291   0.2841   0.7568   1.2488   1.6918   2.7046
     3.1503   3.5936   3.9864   4.6270   4.8123   6.5108   6.8192   7.0068
     7.4618   7.9027   8.4544   8.5817   8.9446   9.0373   9.5296   9.9509
    10.0470  10.3186  10.8323  11.0941

     occupation numbers 
     1.0000   1.0000   1.0000   1.0000   1.0000   1.0000   1.0000   1.0000
     1.0000   1.0000   1.0000   1.0000   1.0000   1.0000   1.0000   1.0000
     1.0000   1.0000   1.0000   1.0000   1.0000   1.0000   1.0000   1.0000
     1.0000   1.0000   1.0000   1.0000   1.0000   1.0000   1.0000   1.0000
     1.0000   1.0000   1.0000   1.0000   1.0000   1.0000   1.0000   0.0000
     0.0000   0.0000   0.0000   0.0000   0.0000   0.0000   0.0000   0.0000
     0.0000   0.0000   0.0000   0.0000   0.0000   0.0000   0.0000   0.0000
     0.0000   0.0000   0.0000   0.0000

          k = 0.1538-0.0942 0.0000 ( 24438 PWs)   bands (ev):

   -34.7231 -34.7228 -34.7223 -34.7219 -34.6911 -34.6906 -34.6853 -34.6852
   -34.6748 -34.6746 -34.5927 -34.5886 -34.5781 -34.5484 -34.5473 -27.5368
   -27.5363 -27.5347 -27.5343 -27.5261 -27.5259 -27.5254 -27.5251 -27.5216
   -27.5213 -10.4148  -9.9035  -8.9206  -6.3635  -5.3247  -1.1236  -0.4744
    -0.3562  -0.2988   0.1036   0.2718   1.0961   1.3092   1.5741   2.6903
     3.1000   3.3190   3.8761   4.1876   4.5888   6.5599   6.6601   7.0416
     7.6150   7.7444   8.2715   8.5193   8.7813   8.9390   9.2961   9.6608
     9.8688  10.1841  10.7239  10.8820

     occupation numbers 
     1.0000   1.0000   1.0000   1.0000   1.0000   1.0000   1.0000   1.0000
     1.0000   1.0000   1.0000   1.0000   1.0000   1.0000   1.0000   1.0000
     1.0000   1.0000   1.0000   1.0000   1.0000   1.0000   1.0000   1.0000
     1.0000   1.0000   1.0000   1.0000   1.0000   1.0000   1.0000   1.0000
     1.0000   1.0000   1.0000   1.0000   1.0000   1.0000   1.0000   0.0000
     0.0000   0.0000   0.0000   0.0000   0.0000   0.0000   0.0000   0.0000
     0.0000   0.0000   0.0000   0.0000   0.0000   0.0000   0.0000   0.0000
     0.0000   0.0000   0.0000   0.0000

          k = 0.1538-0.0027 0.0000 ( 24453 PWs)   bands (ev):

   -34.7231 -34.7228 -34.7224 -34.7220 -34.6911 -34.6906 -34.6853 -34.6852
   -34.6749 -34.6746 -34.5927 -34.5886 -34.5781 -34.5484 -34.5474 -27.5371
   -27.5366 -27.5345 -27.5342 -27.5260 -27.5257 -27.5254 -27.5251 -27.5217
   -27.5215 -10.4677  -9.9520  -8.9482  -6.3509  -5.2516  -0.8874  -0.5316
    -0.3127  -0.1447   0.2593   0.4910   0.8985   1.5142   1.6378   2.7913
     2.8626   3.2074   3.9468   3.9771   4.4354   6.5867   6.6120   7.1785
     7.3582   7.6792   8.3541   8.6271   8.6846   8.8558   9.1681   9.5993
    10.0779  10.1648  10.6326  10.8259

     occupation numbers 
     1.0000   1.0000   1.0000   1.0000   1.0000   1.0000   1.0000   1.0000
     1.0000   1.0000   1.0000   1.0000   1.0000   1.0000   1.0000   1.0000
     1.0000   1.0000   1.0000   1.0000   1.0000   1.0000   1.0000   1.0000
     1.0000   1.0000   1.0000   1.0000   1.0000   1.0000   1.0000   1.0000
     1.0000   1.0000   1.0000   1.0000   1.0000   1.0000   1.0000   0.0000
     0.0000   0.0000   0.0000   0.0000   0.0000   0.0000   0.0000   0.0000
     0.0000   0.0000   0.0000   0.0000   0.0000   0.0000   0.0000   0.0000
     0.0000   0.0000   0.0000   0.0000

          k = 0.2308 0.1332 0.0000 ( 24500 PWs)   bands (ev):

   -34.7230 -34.7226 -34.7222 -34.7218 -34.6912 -34.6907 -34.6853 -34.6852
   -34.6747 -34.6745 -34.5926 -34.5887 -34.5781 -34.5482 -34.5474 -27.5376
   -27.5371 -27.5337 -27.5334 -27.5263 -27.5259 -27.5255 -27.5252 -27.5214
   -27.5212 -10.1886  -9.7064  -8.8288  -6.4959  -5.7399  -1.8460  -0.9628
    -0.7726  -0.5543  -0.0256   0.2794   0.7891   1.1650   1.7311   2.9524
     3.3432   3.6370   4.3811   4.4834   4.9622   6.2325   6.8934   7.1663
     7.7633   8.0475   8.4288   8.7672   8.8837   9.0805   9.8411   9.9101
    10.0281  10.3823  10.6000  11.3228

     occupation numbers 
     1.0000   1.0000   1.0000   1.0000   1.0000   1.0000   1.0000   1.0000
     1.0000   1.0000   1.0000   1.0000   1.0000   1.0000   1.0000   1.0000
     1.0000   1.0000   1.0000   1.0000   1.0000   1.0000   1.0000   1.0000
     1.0000   1.0000   1.0000   1.0000   1.0000   1.0000   1.0000   1.0000
     1.0000   1.0000   1.0000   1.0000   1.0000   1.0000   1.0000   0.0000
     0.0000   0.0000   0.0000   0.0000   0.0000   0.0000   0.0000   0.0000
     0.0000   0.0000   0.0000   0.0000   0.0000   0.0000   0.0000   0.0000
     0.0000   0.0000   0.0000   0.0000

          k = 0.2308 0.2247 0.0000 ( 24504 PWs)   bands (ev):

   -34.7230 -34.7227 -34.7220 -34.7216 -34.6912 -34.6907 -34.6853 -34.6852
   -34.6747 -34.6744 -34.5925 -34.5887 -34.5782 -34.5480 -34.5473 -27.5375
   -27.5370 -27.5335 -27.5332 -27.5266 -27.5261 -27.5255 -27.5251 -27.5212
   -27.5210 -10.0024  -9.5464  -8.7622  -6.6097  -6.0105  -2.0949  -1.3751
    -0.9115  -0.6721  -0.3987   0.2367   0.7690   1.0213   1.7027   3.1217
     3.3226   3.7352   4.3857   4.9077   5.2504   6.1874   7.0502   7.3071
     7.7719   8.0688   8.3182   8.8023   9.2800   9.7325   9.8842  10.1058
    10.2973  10.4711  11.2448  11.3064

     occupation numbers 
     1.0000   1.0000   1.0000   1.0000   1.0000   1.0000   1.0000   1.0000
     1.0000   1.0000   1.0000   1.0000   1.0000   1.0000   1.0000   1.0000
     1.0000   1.0000   1.0000   1.0000   1.0000   1.0000   1.0000   1.0000
     1.0000   1.0000   1.0000   1.0000   1.0000   1.0000   1.0000   1.0000
     1.0000   1.0000   1.0000   1.0000   1.0000   1.0000   1.0000   0.0000
     0.0000   0.0000   0.0000   0.0000   0.0000   0.0000   0.0000   0.0000
     0.0000   0.0000   0.0000   0.0000   0.0000   0.0000   0.0000   0.0000
     0.0000   0.0000   0.0000   0.0000

          k = 0.2308 0.3162 0.0000 ( 24498 PWs)   bands (ev):

   -34.7230 -34.7226 -34.7217 -34.7214 -34.6912 -34.6907 -34.6854 -34.6853
   -34.6745 -34.6743 -34.5924 -34.5887 -34.5782 -34.5478 -34.5473 -27.5372
   -27.5368 -27.5334 -27.5332 -27.5269 -27.5263 -27.5255 -27.5251 -27.5208
   -27.5206  -9.7318  -9.3206  -8.6810  -6.7771  -6.3744  -2.2416  -1.8273
    -1.1664  -0.9140  -0.7154  -0.0950   0.8265   1.0688   1.5401   3.1783
     3.6042   3.7503   4.4899   5.3039   5.4454   6.4597   7.0839   7.5780
     7.6476   8.1069   8.6078   8.7345   9.4786   9.7104  10.3876  10.4496
    10.8424  11.0325  11.1799  11.7043

     occupation numbers 
     1.0000   1.0000   1.0000   1.0000   1.0000   1.0000   1.0000   1.0000
     1.0000   1.0000   1.0000   1.0000   1.0000   1.0000   1.0000   1.0000
     1.0000   1.0000   1.0000   1.0000   1.0000   1.0000   1.0000   1.0000
     1.0000   1.0000   1.0000   1.0000   1.0000   1.0000   1.0000   1.0000
     1.0000   1.0000   1.0000   1.0000   1.0000   1.0000   1.0000   0.0000
     0.0000   0.0000   0.0000   0.0000   0.0000   0.0000   0.0000   0.0000
     0.0000   0.0000   0.0000   0.0000   0.0000   0.0000   0.0000   0.0000
     0.0000   0.0000   0.0000   0.0000

          k = 0.2308 0.4077 0.0000 ( 24518 PWs)   bands (ev):

   -34.7229 -34.7226 -34.7215 -34.7212 -34.6912 -34.6908 -34.6854 -34.6853
   -34.6744 -34.6742 -34.5923 -34.5887 -34.5783 -34.5476 -34.5473 -27.5368
   -27.5365 -27.5335 -27.5334 -27.5273 -27.5266 -27.5255 -27.5250 -27.5205
   -27.5203  -9.3960  -9.0571  -8.6121  -6.9882  -6.7827  -2.3245  -2.2110
    -1.3603  -1.1557  -1.0374  -0.3299   0.7744   1.1050   1.3292   3.3935
     3.5638   3.8316   4.8310   5.3816   5.6559   6.8940   7.0856   7.6660
     8.0563   8.4009   8.6349   9.0773   9.5557   9.7333  10.4359  10.6917
    10.8066  11.1379  11.5786  11.7502

     occupation numbers 
     1.0000   1.0000   1.0000   1.0000   1.0000   1.0000   1.0000   1.0000
     1.0000   1.0000   1.0000   1.0000   1.0000   1.0000   1.0000   1.0000
     1.0000   1.0000   1.0000   1.0000   1.0000   1.0000   1.0000   1.0000
     1.0000   1.0000   1.0000   1.0000   1.0000   1.0000   1.0000   1.0000
     1.0000   1.0000   1.0000   1.0000   1.0000   1.0000   1.0000   0.0000
     0.0000   0.0000   0.0000   0.0000   0.0000   0.0000   0.0000   0.0000
     0.0000   0.0000   0.0000   0.0000   0.0000   0.0000   0.0000   0.0000
     0.0000   0.0000   0.0000   0.0000

          k = 0.2308 0.4992 0.0000 ( 24543 PWs)   bands (ev):

   -34.7229 -34.7226 -34.7214 -34.7210 -34.6912 -34.6908 -34.6855 -34.6854
   -34.6743 -34.6741 -34.5923 -34.5887 -34.5784 -34.5476 -34.5471 -27.5362
   -27.5360 -27.5339 -27.5337 -27.5275 -27.5269 -27.5255 -27.5250 -27.5202
   -27.5200  -9.0367  -8.8133  -8.5989  -7.2289  -7.1177  -2.5422  -2.2407
    -1.6557  -1.3349  -1.0691  -0.4793   0.5580   1.0770   1.3255   3.3493
     3.6592   3.9012   4.9955   5.4523   5.7870   6.7443   7.7941   7.9614
     8.5261   8.6716   8.8684   9.4715   9.7412   9.8910   9.9542  10.3388
    10.6898  10.8216  11.2125  11.3987

     occupation numbers 
     1.0000   1.0000   1.0000   1.0000   1.0000   1.0000   1.0000   1.0000
     1.0000   1.0000   1.0000   1.0000   1.0000   1.0000   1.0000   1.0000
     1.0000   1.0000   1.0000   1.0000   1.0000   1.0000   1.0000   1.0000
     1.0000   1.0000   1.0000   1.0000   1.0000   1.0000   1.0000   1.0000
     1.0000   1.0000   1.0000   1.0000   1.0000   1.0000   1.0000   0.0000
     0.0000   0.0000   0.0000   0.0000   0.0000   0.0000   0.0000   0.0000
     0.0000   0.0000   0.0000   0.0000   0.0000   0.0000   0.0000   0.0000
     0.0000   0.0000   0.0000   0.0000

          k = 0.2308 0.5907 0.0000 ( 24549 PWs)   bands (ev):

   -34.7229 -34.7226 -34.7213 -34.7209 -34.6912 -34.6907 -34.6855 -34.6854
   -34.6743 -34.6740 -34.5923 -34.5887 -34.5784 -34.5477 -34.5468 -27.5356
   -27.5356 -27.5344 -27.5340 -27.5277 -27.5271 -27.5254 -27.5250 -27.5200
   -27.5198  -8.7571  -8.7125  -8.6845  -7.3805  -7.2325  -2.6471  -2.1339
    -1.9203  -1.3845  -0.9055  -0.6558   0.4586   1.1130   1.2819   3.4309
     3.5245   3.9376   5.1416   5.3270   5.8548   6.6724   7.8182   8.6745
     8.6902   8.9548   9.0683   9.3022   9.6176   9.7567   9.9544  10.2569
    10.5297  10.7038  10.7733  11.2769

     occupation numbers 
     1.0000   1.0000   1.0000   1.0000   1.0000   1.0000   1.0000   1.0000
     1.0000   1.0000   1.0000   1.0000   1.0000   1.0000   1.0000   1.0000
     1.0000   1.0000   1.0000   1.0000   1.0000   1.0000   1.0000   1.0000
     1.0000   1.0000   1.0000   1.0000   1.0000   1.0000   1.0000   1.0000
     1.0000   1.0000   1.0000   1.0000   1.0000   1.0000   1.0000   0.0000
     0.0000   0.0000   0.0000   0.0000   0.0000   0.0000   0.0000   0.0000
     0.0000   0.0000   0.0000   0.0000   0.0000   0.0000   0.0000   0.0000
     0.0000   0.0000   0.0000   0.0000

          k = 0.2308 0.6822 0.0000 ( 24539 PWs)   bands (ev):

   -34.7230 -34.7227 -34.7213 -34.7209 -34.6912 -34.6907 -34.6855 -34.6854
   -34.6743 -34.6740 -34.5923 -34.5887 -34.5784 -34.5479 -34.5467 -27.5355
   -27.5353 -27.5346 -27.5342 -27.5277 -27.5271 -27.5254 -27.5250 -27.5200
[...]

   -35.6680 -35.6676 -35.6547 -35.6541 -35.6252 -35.6245 -35.6204 -35.6200
   -35.6005 -35.6000 -35.2390 -35.2285 -35.2184 -35.1868 -35.1783 -28.6144
   -28.6130 -28.6050 -28.6043 -28.5994 -28.5990 -28.5828 -28.5824 -28.5680
   -28.5676 -10.6063 -10.4909 -10.2266  -8.7661  -8.1739  -4.0618  -2.6503
    -2.3881  -2.3313  -1.6257  -1.1531   0.2290   0.4069   0.7376   3.0341
     3.6935   3.7708   5.4044   5.5656   6.2182   6.4175   7.8584   8.6579
     8.9751   9.2544   9.5225   9.7184  10.3038  10.3420  10.8682  11.4718
    11.5349  12.0037  12.2134  12.3561

     occupation numbers 
     1.0000   1.0000   1.0000   1.0000   1.0000   1.0000   1.0000   1.0000
     1.0000   1.0000   1.0000   1.0000   1.0000   1.0000   1.0000   1.0000
     1.0000   1.0000   1.0000   1.0000   1.0000   1.0000   1.0000   1.0000
     1.0000   1.0000   1.0000   1.0000   1.0000   1.0000   1.0000   1.0000
     1.0000   1.0000   1.0000   1.0000   1.0000   1.0000   1.0000   0.0000
     0.0000   0.0000   0.0000   0.0000   0.0000   0.0000   0.0000   0.0000
     0.0000   0.0000   0.0000   0.0000   0.0000   0.0000   0.0000   0.0000
     0.0000   0.0000   0.0000   0.0000

          k = 0.4615 0.3580 0.0000 ( 24551 PWs)   bands (ev):

   -35.6658 -35.6653 -35.6534 -35.6528 -35.6243 -35.6235 -35.6200 -35.6197
   -35.6005 -35.6001 -35.2360 -35.2293 -35.2219 -35.1823 -35.1760 -28.6140
   -28.6128 -28.6037 -28.6030 -28.5970 -28.5966 -28.5840 -28.5836 -28.5706
   -28.5702 -10.4719 -10.4311 -10.2639  -8.8111  -8.2630  -4.0489  -2.6805
    -2.6138  -2.3500  -1.7142  -1.2005   0.2291   0.3299   0.9098   3.3290
     3.4759   3.7837   5.4779   5.6475   6.3882   6.4015   7.9486   8.8668
     9.0748   9.1643   9.3619   9.9457  10.0770  10.3472  10.8472  11.2989
    11.4072  11.7085  12.2046  12.2661

     occupation numbers 
     1.0000   1.0000   1.0000   1.0000   1.0000   1.0000   1.0000   1.0000
     1.0000   1.0000   1.0000   1.0000   1.0000   1.0000   1.0000   1.0000
     1.0000   1.0000   1.0000   1.0000   1.0000   1.0000   1.0000   1.0000
     1.0000   1.0000   1.0000   1.0000   1.0000   1.0000   1.0000   1.0000
     1.0000   1.0000   1.0000   1.0000   1.0000   1.0000   1.0000   0.0000
     0.0000   0.0000   0.0000   0.0000   0.0000   0.0000   0.0000   0.0000
     0.0000   0.0000   0.0000   0.0000   0.0000   0.0000   0.0000   0.0000
     0.0000   0.0000   0.0000   0.0000

          k = 0.4615 0.4494 0.0000 ( 24549 PWs)   bands (ev):

   -35.6641 -35.6637 -35.6549 -35.6543 -35.6234 -35.6228 -35.6185 -35.6180
   -35.5983 -35.5978 -35.2338 -35.2331 -35.2289 -35.1814 -35.1777 -28.6090
   -28.6078 -28.6014 -28.6007 -28.5892 -28.5889 -28.5829 -28.5825 -28.5722
   -28.5717 -10.4865 -10.3772 -10.1268  -8.7911  -8.3950  -3.9197  -2.9945
    -2.8190  -2.3406  -1.7273  -1.5286   0.1903   0.4860   1.0835   3.3272
     3.7790   3.8508   5.3909   5.9235   6.3585   6.9111   8.1323   8.7532
     9.0435   9.3246   9.4937   9.7579  10.1050  10.3421  10.6934  10.7920
    11.0092  11.3134  11.5273  12.1280

     occupation numbers 
     1.0000   1.0000   1.0000   1.0000   1.0000   1.0000   1.0000   1.0000
     1.0000   1.0000   1.0000   1.0000   1.0000   1.0000   1.0000   1.0000
     1.0000   1.0000   1.0000   1.0000   1.0000   1.0000   1.0000   1.0000
     1.0000   1.0000   1.0000   1.0000   1.0000   1.0000   1.0000   1.0000
     1.0000   1.0000   1.0000   1.0000   1.0000   1.0000   1.0000   0.0000
     0.0000   0.0000   0.0000   0.0000   0.0000   0.0000   0.0000   0.0000
     0.0000   0.0000   0.0000   0.0000   0.0000   0.0000   0.0000   0.0000
     0.0000   0.0000   0.0000   0.0000

          k = 0.4615 0.5409 0.0000 ( 24529 PWs)   bands (ev):

   -35.6605 -35.6600 -35.6479 -35.6473 -35.6231 -35.6224 -35.6171 -35.6166
   -35.5985 -35.5980 -35.2313 -35.2279 -35.2268 -35.1793 -35.1765 -28.6070
   -28.6060 -28.6024 -28.6020 -28.5855 -28.5851 -28.5816 -28.5812 -28.5766
   -28.5762 -10.5137 -10.3389  -9.9838  -8.7179  -8.5434  -3.7055  -3.3999
    -2.7932  -2.3578  -2.0659  -1.5040   0.1553   0.7304   0.9517   3.5352
     3.7449   3.9332   5.5975   6.0229   6.2352   7.7148   8.4244   8.5142
     8.8238   9.0936   9.3545   9.6722  10.0926  10.2921  10.5359  10.7675
    10.8425  11.1743  11.4007  11.7316

     occupation numbers 
     1.0000   1.0000   1.0000   1.0000   1.0000   1.0000   1.0000   1.0000
     1.0000   1.0000   1.0000   1.0000   1.0000   1.0000   1.0000   1.0000
     1.0000   1.0000   1.0000   1.0000   1.0000   1.0000   1.0000   1.0000
     1.0000   1.0000   1.0000   1.0000   1.0000   1.0000   1.0000   1.0000
     1.0000   1.0000   1.0000   1.0000   1.0000   1.0000   1.0000   0.0000
     0.0000   0.0000   0.0000   0.0000   0.0000   0.0000   0.0000   0.0000
     0.0000   0.0000   0.0000   0.0000   0.0000   0.0000   0.0000   0.0000
     0.0000   0.0000   0.0000   0.0000

          k = 0.4615 0.6324 0.0000 ( 24537 PWs)   bands (ev):

   -35.6596 -35.6592 -35.6485 -35.6479 -35.6251 -35.6245 -35.6148 -35.6142
   -35.5980 -35.5975 -35.2330 -35.2286 -35.2244 -35.1793 -35.1768 -28.6081
   -28.6070 -28.6016 -28.6010 -28.5860 -28.5856 -28.5811 -28.5808 -28.5769
   -28.5766 -10.5034 -10.3243  -9.9695  -8.7042  -8.5593  -3.7149  -3.4002
    -2.8049  -2.3776  -2.0731  -1.4930   0.1285   0.7187   0.9237   3.4378
     3.7459   3.9603   5.5366   5.9778   6.2643   7.5896   8.4159   8.5952
     8.9200   9.0736   9.4516   9.6817  10.1881  10.2809  10.4976  10.7841
    10.8768  11.2330  11.3991  11.6511

     occupation numbers 
     1.0000   1.0000   1.0000   1.0000   1.0000   1.0000   1.0000   1.0000
     1.0000   1.0000   1.0000   1.0000   1.0000   1.0000   1.0000   1.0000
     1.0000   1.0000   1.0000   1.0000   1.0000   1.0000   1.0000   1.0000
     1.0000   1.0000   1.0000   1.0000   1.0000   1.0000   1.0000   1.0000
     1.0000   1.0000   1.0000   1.0000   1.0000   1.0000   1.0000   0.0000
     0.0000   0.0000   0.0000   0.0000   0.0000   0.0000   0.0000   0.0000
     0.0000   0.0000   0.0000   0.0000   0.0000   0.0000   0.0000   0.0000
     0.0000   0.0000   0.0000   0.0000

          k = 0.4615 0.7239 0.0000 ( 24503 PWs)   bands (ev):

   -35.6615 -35.6610 -35.6545 -35.6540 -35.6261 -35.6256 -35.6151 -35.6145
   -35.5973 -35.5968 -35.2382 -35.2324 -35.2229 -35.1802 -35.1771 -28.6112
   -28.6100 -28.6003 -28.5996 -28.5899 -28.5895 -28.5838 -28.5835 -28.5733
   -28.5729 -10.4539 -10.3366 -10.0929  -8.7779  -8.4095  -3.9296  -2.9960
    -2.8741  -2.3725  -1.6931  -1.5922   0.1446   0.4478   0.9879   3.2177
     3.7391   3.7822   5.3451   5.8284   6.3484   6.8369   8.1426   8.7773
     9.0678   9.4116   9.6170   9.7903  10.2272  10.3846  10.7643  10.8349
    11.0339  11.3445  11.5256  12.1369

     occupation numbers 
     1.0000   1.0000   1.0000   1.0000   1.0000   1.0000   1.0000   1.0000
     1.0000   1.0000   1.0000   1.0000   1.0000   1.0000   1.0000   1.0000
     1.0000   1.0000   1.0000   1.0000   1.0000   1.0000   1.0000   1.0000
     1.0000   1.0000   1.0000   1.0000   1.0000   1.0000   1.0000   1.0000
     1.0000   1.0000   1.0000   1.0000   1.0000   1.0000   1.0000   0.0000
     0.0000   0.0000   0.0000   0.0000   0.0000   0.0000   0.0000   0.0000
     0.0000   0.0000   0.0000   0.0000   0.0000   0.0000   0.0000   0.0000
     0.0000   0.0000   0.0000   0.0000

          k = 0.4615 0.8154 0.0000 ( 24536 PWs)   bands (ev):

   -35.6618 -35.6614 -35.6516 -35.6512 -35.6266 -35.6259 -35.6173 -35.6168
   -35.6000 -35.5996 -35.2400 -35.2299 -35.2150 -35.1800 -35.1736 -28.6162
   -28.6149 -28.6027 -28.6021 -28.5964 -28.5960 -28.5859 -28.5855 -28.5713
   -28.5710 -10.4137 -10.3747 -10.2342  -8.7964  -8.2687  -4.0559  -2.7541
    -2.5741  -2.4186  -1.7827  -1.2310   0.1954   0.2397   0.7876   3.1855
     3.3813   3.7474   5.4420   5.5168   6.3595   6.3693   7.9863   8.9315
     9.1331   9.2079   9.4209  10.0054  10.1367  10.3490  10.9038  11.2318
    11.4965  11.8293  12.1184  12.2629

     occupation numbers 
     1.0000   1.0000   1.0000   1.0000   1.0000   1.0000   1.0000   1.0000
     1.0000   1.0000   1.0000   1.0000   1.0000   1.0000   1.0000   1.0000
     1.0000   1.0000   1.0000   1.0000   1.0000   1.0000   1.0000   1.0000
     1.0000   1.0000   1.0000   1.0000   1.0000   1.0000   1.0000   1.0000
     1.0000   1.0000   1.0000   1.0000   1.0000   1.0000   1.0000   0.0000
     0.0000   0.0000   0.0000   0.0000   0.0000   0.0000   0.0000   0.0000
     0.0000   0.0000   0.0000   0.0000   0.0000   0.0000   0.0000   0.0000
     0.0000   0.0000   0.0000   0.0000

          k = 0.4615-0.2825 0.0000 ( 24507 PWs)   bands (ev):

   -35.6639 -35.6635 -35.6533 -35.6528 -35.6284 -35.6278 -35.6166 -35.6161
   -35.5994 -35.5990 -35.2428 -35.2301 -35.2119 -35.1843 -35.1751 -28.6164
   -28.6150 -28.6041 -28.6035 -28.5980 -28.5976 -28.5847 -28.5844 -28.5687
   -28.5684 -10.5547 -10.4342 -10.1881  -8.7467  -8.1735  -4.0663  -2.6504
    -2.4957  -2.3090  -1.7717  -1.1542   0.2017   0.2777   0.6334   2.8902
     3.5950   3.7453   5.2566   5.5366   6.1959   6.3981   7.9074   8.7145
     9.0218   9.3225   9.5849   9.7612  10.3323  10.3989  10.9185  11.4808
    11.5575  11.9691  12.1023  12.3763

     occupation numbers 
     1.0000   1.0000   1.0000   1.0000   1.0000   1.0000   1.0000   1.0000
     1.0000   1.0000   1.0000   1.0000   1.0000   1.0000   1.0000   1.0000
     1.0000   1.0000   1.0000   1.0000   1.0000   1.0000   1.0000   1.0000
     1.0000   1.0000   1.0000   1.0000   1.0000   1.0000   1.0000   1.0000
     1.0000   1.0000   1.0000   1.0000   1.0000   1.0000   1.0000   0.0000
     0.0000   0.0000   0.0000   0.0000   0.0000   0.0000   0.0000   0.0000
     0.0000   0.0000   0.0000   0.0000   0.0000   0.0000   0.0000   0.0000
     0.0000   0.0000   0.0000   0.0000

          k = 0.4615-0.1910 0.0000 ( 24479 PWs)   bands (ev):

   -35.6632 -35.6628 -35.6535 -35.6530 -35.6255 -35.6249 -35.6197 -35.6192
   -35.5999 -35.5994 -35.2389 -35.2290 -35.2165 -35.1823 -35.1760 -28.6168
   -28.6155 -28.6036 -28.6029 -28.5963 -28.5959 -28.5870 -28.5867 -28.5724
   -28.5720 -10.7192 -10.5017 -10.0790  -8.6436  -8.1496  -3.9582  -2.6898
    -2.5991  -2.3338  -1.6766  -1.2067   0.1058   0.3543   0.8546   3.2454
     3.3174   3.8195   5.3615   5.5315   6.2738   6.5276   7.8985   8.4441
     8.8437   9.3980   9.6974   9.7726  10.2886  10.5817  10.9160  11.0008
    11.5198  11.6260  11.9663  12.1477

     occupation numbers 
     1.0000   1.0000   1.0000   1.0000   1.0000   1.0000   1.0000   1.0000
     1.0000   1.0000   1.0000   1.0000   1.0000   1.0000   1.0000   1.0000
     1.0000   1.0000   1.0000   1.0000   1.0000   1.0000   1.0000   1.0000
     1.0000   1.0000   1.0000   1.0000   1.0000   1.0000   1.0000   1.0000
     1.0000   1.0000   1.0000   1.0000   1.0000   1.0000   1.0000   0.0000
     0.0000   0.0000   0.0000   0.0000   0.0000   0.0000   0.0000   0.0000
     0.0000   0.0000   0.0000   0.0000   0.0000   0.0000   0.0000   0.0000
     0.0000   0.0000   0.0000   0.0000

          k = 0.4615-0.0995 0.0000 ( 24518 PWs)   bands (ev):

   -35.6638 -35.6634 -35.6568 -35.6562 -35.6283 -35.6278 -35.6175 -35.6168
   -35.5991 -35.5986 -35.2395 -35.2337 -35.2272 -35.1838 -35.1811 -28.6117
   -28.6105 -28.6015 -28.6007 -28.5893 -28.5889 -28.5840 -28.5837 -28.5741
   -28.5737 -10.8331 -10.5532 -10.0112  -8.5122  -8.1834  -3.7445  -3.0270
    -2.5347  -2.4273  -1.6955  -1.3556   0.1881   0.5112   1.0556   3.1449
     3.7549   3.9269   5.1830   5.8156   6.2700   6.9801   8.0226   8.2476
     8.7653   9.0177   9.3455   9.6878  10.1589  10.3761  10.7880  11.0293
    11.4185  11.4786  11.8409  11.9624

     occupation numbers 
     1.0000   1.0000   1.0000   1.0000   1.0000   1.0000   1.0000   1.0000
     1.0000   1.0000   1.0000   1.0000   1.0000   1.0000   1.0000   1.0000
     1.0000   1.0000   1.0000   1.0000   1.0000   1.0000   1.0000   1.0000
     1.0000   1.0000   1.0000   1.0000   1.0000   1.0000   1.0000   1.0000
     1.0000   1.0000   1.0000   1.0000   1.0000   1.0000   1.0000   0.0000
     0.0000   0.0000   0.0000   0.0000   0.0000   0.0000   0.0000   0.0000
     0.0000   0.0000   0.0000   0.0000   0.0000   0.0000   0.0000   0.0000
     0.0000   0.0000   0.0000   0.0000

          k = 0.4615-0.0080 0.0000 ( 24541 PWs)   bands (ev):

   -35.6648 -35.6644 -35.6506 -35.6500 -35.6253 -35.6248 -35.6187 -35.6181
   -35.5984 -35.5979 -35.2375 -35.2320 -35.2285 -35.1813 -35.1788 -28.6108
   -28.6100 -28.6033 -28.6030 -28.5875 -28.5871 -28.5834 -28.5830 -28.5783
   -28.5780 -10.8749 -10.5755  -9.9872  -8.4466  -8.2218  -3.4828  -3.3808
    -2.5106  -2.1725  -2.0749  -1.3329   0.3387   0.7694   0.8757   3.5053
     3.5973   3.9602   5.3542   5.9030   6.1608   7.6905   7.8737   8.2138
     8.2740   8.8817   9.2146   9.3623  10.1222  10.2617  10.9291  11.0252
    11.3232  11.5013  11.8371  12.0010

     occupation numbers 
     1.0000   1.0000   1.0000   1.0000   1.0000   1.0000   1.0000   1.0000
     1.0000   1.0000   1.0000   1.0000   1.0000   1.0000   1.0000   1.0000
     1.0000   1.0000   1.0000   1.0000   1.0000   1.0000   1.0000   1.0000
     1.0000   1.0000   1.0000   1.0000   1.0000   1.0000   1.0000   1.0000
     1.0000   1.0000   1.0000   1.0000   1.0000   1.0000   1.0000   0.0000
     0.0000   0.0000   0.0000   0.0000   0.0000   0.0000   0.0000   0.0000
     0.0000   0.0000   0.0000   0.0000   0.0000   0.0000   0.0000   0.0000
     0.0000   0.0000   0.0000   0.0000

          k = 0.4615 0.0835 0.0000 ( 24528 PWs)   bands (ev):

   -35.6661 -35.6657 -35.6569 -35.6563 -35.6257 -35.6252 -35.6208 -35.6201
   -35.6001 -35.5995 -35.2379 -35.2344 -35.2309 -35.1844 -35.1813 -28.6100
   -28.6090 -28.6025 -28.6019 -28.5895 -28.5892 -28.5829 -28.5825 -28.5731
   -28.5726 -10.8512 -10.5766 -10.0347  -8.5332  -8.1765  -3.7469  -3.0109
    -2.5062  -2.3967  -1.7078  -1.3136   0.2254   0.5356   1.1313   3.2475
     3.8161   3.9159   5.2132   5.8951   6.2441   7.0329   8.0045   8.2231
     8.7560   8.8957   9.3051   9.5867  10.1062  10.3574  10.7364  10.9882
    11.3354  11.4681  11.8484  11.9072

     occupation numbers 
     1.0000   1.0000   1.0000   1.0000   1.0000   1.0000   1.0000   1.0000
     1.0000   1.0000   1.0000   1.0000   1.0000   1.0000   1.0000   1.0000
     1.0000   1.0000   1.0000   1.0000   1.0000   1.0000   1.0000   1.0000
     1.0000   1.0000   1.0000   1.0000   1.0000   1.0000   1.0000   1.0000
     1.0000   1.0000   1.0000   1.0000   1.0000   1.0000   1.0000   0.0000
     0.0000   0.0000   0.0000   0.0000   0.0000   0.0000   0.0000   0.0000
     0.0000   0.0000   0.0000   0.0000   0.0000   0.0000   0.0000   0.0000
     0.0000   0.0000   0.0000   0.0000

          k = 0.4615 0.1750 0.0000 ( 24566 PWs)   bands (ev):

   -35.6671 -35.6667 -35.6553 -35.6547 -35.6238 -35.6231 -35.6220 -35.6215
   -35.6005 -35.6000 -35.2356 -35.2290 -35.2233 -35.1844 -35.1784 -28.6147
   -28.6134 -28.6045 -28.6038 -28.5972 -28.5969 -28.5848 -28.5843 -28.5714
   -28.5709 -10.7554 -10.5460 -10.1178  -8.6663  -8.1483  -3.9564  -2.7053
    -2.5334  -2.2722  -1.6366  -1.1651   0.1700   0.4045   0.9729   3.3852
     3.4083   3.8324   5.3934   5.6413   6.2882   6.5427   7.8569   8.4049
     8.8191   9.3413   9.6127   9.6784  10.2638  10.4636  10.8602  10.9050
    11.3984  11.6288  11.9781  12.2622

     occupation numbers 
     1.0000   1.0000   1.0000   1.0000   1.0000   1.0000   1.0000   1.0000
     1.0000   1.0000   1.0000   1.0000   1.0000   1.0000   1.0000   1.0000
     1.0000   1.0000   1.0000   1.0000   1.0000   1.0000   1.0000   1.0000
     1.0000   1.0000   1.0000   1.0000   1.0000   1.0000   1.0000   1.0000
     1.0000   1.0000   1.0000   1.0000   1.0000   1.0000   1.0000   0.0000
     0.0000   0.0000   0.0000   0.0000   0.0000   0.0000   0.0000   0.0000
     0.0000   0.0000   0.0000   0.0000   0.0000   0.0000   0.0000   0.0000
     0.0000   0.0000   0.0000   0.0000

     highest occupied, lowest unoccupied level (ev):     1.2931    2.4095

!    total energy              =    -804.24348118 Ry
     estimated scf accuracy    <       0.00000023 Ry

     convergence has been achieved in   4 iterations

     Using ACE for calculation of exact exchange
     ACE projected onto    60 (nbndproj) and applied to    60 (nbnd) bands
     BEWARE: negative dexx:  -0.669E-06

!!   total energy              =    -804.24348052 Ry
     Harris-Foulkes estimate   =    -804.24348070 Ry
     est. exchange err (dexx)  =       0.00000067 Ry
     - averaged Fock potential =      27.29983585 Ry
     + Fock energy (ACE)       =     -13.64988648 Ry

     EXX self-consistency reached

     Writing all to output data dir tmp/Sb2Te3-uatsx-c1-3.0.save/ :
     XML data file, charge density, pseudopotentials, collected wavefunctions

     init_run     :      3.70s CPU      3.92s WALL (       1 calls)
     electrons    :    616.24s CPU    624.08s WALL (       5 calls)

     Called by init_run:
     aceinit0     :      0.00s CPU      0.00s WALL (       1 calls)
     wfcinit      :      3.32s CPU      3.38s WALL (       1 calls)
     wfcinit:wfcr :      3.20s CPU      3.26s WALL (      85 calls)
     potinit      :      0.03s CPU      0.03s WALL (       1 calls)
     hinit0       :      0.32s CPU      0.46s WALL (       1 calls)

     Called by electrons:
     c_bands      :    569.14s CPU    575.94s WALL (      34 calls)
     sum_band     :     46.30s CPU     47.03s WALL (      34 calls)
     v_of_rho     :      0.57s CPU      0.58s WALL (      35 calls)
     v_h          :      0.06s CPU      0.06s WALL (      35 calls)
     v_xc         :      0.52s CPU      0.53s WALL (      35 calls)
     mix_rho      :      0.08s CPU      0.08s WALL (      34 calls)
     energy_londo :      0.05s CPU      0.05s WALL (       5 calls)

     Called by c_bands:
     init_us_2    :      1.89s CPU      1.95s WALL (    5865 calls)
     cegterg      :    563.09s CPU    569.70s WALL (    2890 calls)

     Called by sum_band:
     sum_band:wei :      0.00s CPU      0.00s WALL (      34 calls)
     sum_band:loo :     46.19s CPU     46.92s WALL (      34 calls)
     sum_band:buf :      0.61s CPU      0.62s WALL (    2890 calls)
     sum_band:ini :      0.99s CPU      1.01s WALL (    2890 calls)

     Called by *egterg:
     cdiaghg      :    147.82s CPU    148.51s WALL (   29975 calls)
     cegterg:over :     33.83s CPU     34.13s WALL (   27510 calls)
     cegterg:upda :      9.53s CPU      9.64s WALL (   27510 calls)
     cegterg:last :     10.34s CPU     10.42s WALL (    8146 calls)
     h_psi        :    345.69s CPU    351.12s WALL (   30485 calls)
     g_psi        :      1.67s CPU      1.69s WALL (   27510 calls)

     Called by h_psi:
     h_psi:calbec :     23.44s CPU     23.68s WALL (   30485 calls)
     vloc_psi     :    301.74s CPU    306.71s WALL (   30485 calls)
     add_vuspsi   :      6.59s CPU      6.67s WALL (   30485 calls)

     General routines
     calbec       :     34.96s CPU     35.37s WALL (   53255 calls)
     fft          :      0.88s CPU      1.03s WALL (     344 calls)
     ffts         :      0.05s CPU      0.05s WALL (      34 calls)
     fftw         :    329.35s CPU    334.67s WALL ( 1346052 calls)
     fftc         :   4981.21s CPU   5009.12s WALL ( 3060000 calls)
     fftcw        :     19.85s CPU     20.11s WALL (   76500 calls)

     Parallel routines

     EXX routines
     exx_grid     :      0.00s CPU      0.00s WALL (       1 calls)
     exxinit      :    108.54s CPU    109.47s WALL (       5 calls)
     vexx         :   5237.68s CPU   5267.79s WALL (     425 calls)
     matcalc      :     11.69s CPU     11.83s WALL (   22770 calls)
     aceupdate    :      0.15s CPU      0.15s WALL (     425 calls)
     vexxace      :     14.84s CPU     15.01s WALL (   21580 calls)
     aceinit      :   5238.41s CPU   5268.53s WALL (     425 calls)

     PWSCF        :      1h39m CPU      1h41m WALL


   This run was terminated on:  23:45: 0  14May2025            

=------------------------------------------------------------------------------=
   JOB DONE.
=------------------------------------------------------------------------------=
