
     Program PWSCF v.7.3.1 starts on 15May2025 at  0: 7:54 

     This program is part of the open-source Quantum ESPRESSO suite
     for quantum simulation of materials; please cite
         "P. Giannozzi et al., J. Phys.:Condens. Matter 21 395502 (2009);
         "P. Giannozzi et al., J. Phys.:Condens. Matter 29 465901 (2017);
         "P. Giannozzi et al., J. Chem. Phys. 152 154105 (2020);
          URL http://www.quantum-espresso.org", 
     in publications or presentations arising from this work. More details at
     http://www.quantum-espresso.org/quote

     Parallel version (MPI & OpenMP), running on      72 processor cores
     Number of MPI processes:                72
     Threads/MPI process:                     1

     MPI processes distributed on     3 nodes
     92607 MiB available memory on the printing compute node when the environment starts

     Waiting for input...
     Reading input from standard input

     Current dimensions of program PWSCF are:
     Max number of different atomic species (ntypx) = 10
     Max number of k-points (npk) =  40000
     Max angular momentum in pseudopotentials (lmaxx) =  4

     IMPORTANT: XC functional enforced from input :
     Exchange-correlation= B3LYP-V1R
                           (   7  13   9   7   0   0   0)
     EXX-fraction              =        0.20
     Any further DFT definition will be discarded
     Please, verify this is what you really want

     EXX fraction changed:   0.20

     R & G space division:  proc/nbgrp/npool/nimage =      72
     Subspace diagonalization in iterative solution of the eigenvalue problem:
     a serial algorithm will be used

     EXX: q-point mesh:     1    1    1
     EXX: setup a grid of 85 q-points centered on each k-point
     (k+q)-points:
   0.0000000   0.0000000   0.0000000         1    1
   0.0000000   0.0923769   0.0000000         2    1
   0.0000000   0.1847539   0.0000000         3    1
   0.0000000   0.2771308   0.0000000         4    1
   0.0000000   0.3695077   0.0000000         5    1
   0.0000000   0.4618847   0.0000000         6    1
   0.0000000   0.5542616   0.0000000         7    1
   0.0769231   0.0444120   0.0000000         8    1
   0.0769231   0.1367889   0.0000000         9    1
   0.0769231   0.2291659   0.0000000        10    1
   0.0769231   0.3215428   0.0000000        11    1
   0.0769231   0.4139197   0.0000000        12    1
   0.0769231   0.5062967   0.0000000        13    1
   0.0769231   0.5986736   0.0000000        14    1
   0.0769231  -0.5098496   0.0000000        15    1
   0.0769231  -0.4174727   0.0000000        16    1
   0.0769231  -0.3250958   0.0000000        17    1
   0.0769231  -0.2327188   0.0000000        18    1
   0.0769231  -0.1403419   0.0000000        19    1
   0.0769231  -0.0479649   0.0000000        20    1
   0.1538462   0.0888240   0.0000000        21    1
   0.1538462   0.1812009   0.0000000        22    1
   0.1538462   0.2735779   0.0000000        23    1
   0.1538462   0.3659548   0.0000000        24    1
   0.1538462   0.4583317   0.0000000        25    1
   0.1538462   0.5507087   0.0000000        26    1
   0.1538462   0.6430856   0.0000000        27    1
   0.1538462  -0.4654376   0.0000000        28    1
   0.1538462  -0.3730607   0.0000000        29    1
   0.1538462  -0.2806838   0.0000000        30    1
   0.1538462  -0.1883068   0.0000000        31    1
   0.1538462  -0.0959299   0.0000000        32    1
   0.1538462  -0.0035530   0.0000000        33    1
   0.2307692   0.1332360   0.0000000        34    1
   0.2307692   0.2256129   0.0000000        35    1
   0.2307692   0.3179898   0.0000000        36    1
   0.2307692   0.4103668   0.0000000        37    1
   0.2307692   0.5027437   0.0000000        38    1
   0.2307692   0.5951206   0.0000000        39    1
   0.2307692   0.6874976   0.0000000        40    1
   0.2307692  -0.4210257   0.0000000        41    1
   0.2307692  -0.3286487   0.0000000        42    1
   0.2307692  -0.2362718   0.0000000        43    1
   0.2307692  -0.1438948   0.0000000        44    1
   0.2307692  -0.0515179   0.0000000        45    1
   0.2307692   0.0408590   0.0000000        46    1
   0.3076923   0.1776480   0.0000000        47    1
   0.3076923   0.2700249   0.0000000        48    1
   0.3076923   0.3624018   0.0000000        49    1
   0.3076923   0.4547788   0.0000000        50    1
   0.3076923   0.5471557   0.0000000        51    1
   0.3076923   0.6395326   0.0000000        52    1
   0.3076923   0.7319096   0.0000000        53    1
   0.3076923  -0.3766137   0.0000000        54    1
   0.3076923  -0.2842367   0.0000000        55    1
   0.3076923  -0.1918598   0.0000000        56    1
   0.3076923  -0.0994829   0.0000000        57    1
   0.3076923  -0.0071059   0.0000000        58    1
   0.3076923   0.0852710   0.0000000        59    1
   0.3846154   0.2220599   0.0000000        60    1
   0.3846154   0.3144369   0.0000000        61    1
   0.3846154   0.4068138   0.0000000        62    1
   0.3846154   0.4991908   0.0000000        63    1
   0.3846154   0.5915677   0.0000000        64    1
   0.3846154   0.6839446   0.0000000        65    1
   0.3846154   0.7763216   0.0000000        66    1
   0.3846154  -0.3322017   0.0000000        67    1
   0.3846154  -0.2398247   0.0000000        68    1
   0.3846154  -0.1474478   0.0000000        69    1
   0.3846154  -0.0550709   0.0000000        70    1
   0.3846154   0.0373061   0.0000000        71    1
   0.3846154   0.1296830   0.0000000        72    1
   0.4615385   0.2664719   0.0000000        73    1
   0.4615385   0.3588489   0.0000000        74    1
   0.4615385   0.4512258   0.0000000        75    1
   0.4615385   0.5436027   0.0000000        76    1
   0.4615385   0.6359797   0.0000000        77    1
   0.4615385   0.7283566   0.0000000        78    1
   0.4615385   0.8207336   0.0000000        79    1
   0.4615385  -0.2877897   0.0000000        80    1
   0.4615385  -0.1954128   0.0000000        81    1
   0.4615385  -0.1030358   0.0000000        82    1
   0.4615385  -0.0106589   0.0000000        83    1
   0.4615385   0.0817181   0.0000000        84    1
   0.4615385   0.1740950   0.0000000        85    1

     Parallelization info
     --------------------
     sticks:   dense  smooth     PW     G-vecs:    dense   smooth      PW
     Min          18      18      5                 2740     2740     427
     Max          19      19      6                 2767     2767     452
     Sum        1331    1331    391               198065   198065   31435

     Using Slab Decomposition



     bravais-lattice index     =            0
     lattice parameter (alat)  =       8.4715  a.u.
     unit-cell volume          =    2502.8602 (a.u.)^3
     number of atoms/cell      =            5
     number of atomic types    =            2
     number of electrons       =        78.00
     number of Kohn-Sham states=           60
     kinetic-energy cutoff     =      70.0000  Ry
     charge density cutoff     =     280.0000  Ry
     cutoff for Fock operator  =     280.0000  Ry
     scf convergence threshold =      1.0E-06
     mixing beta               =       0.7000
     number of iterations used =            8  plain     mixing
     Exchange-correlation= B3LYP-V1R
                           (   7  13   9   7   0   0   0)
     EXX-fraction              =        0.20

     celldm(1)=   8.471459  celldm(2)=   0.000000  celldm(3)=   0.000000
     celldm(4)=   0.000000  celldm(5)=   0.000000  celldm(6)=   0.000000

     crystal axes: (cart. coord. in units of alat)
               a(1) = (   1.000000   0.000000   0.000000 )  
               a(2) = (  -0.480769   0.832709   0.000000 )  
               a(3) = (   0.000000   0.000000   4.943891 )  

     reciprocal axes: (cart. coord. in units 2 pi/alat)
               b(1) = (  1.000000  0.577356 -0.000000 )  
               b(2) = (  0.000000  1.200900  0.000000 )  
               b(3) = (  0.000000 -0.000000  0.202270 )  


     PseudoPot. # 1 for Sb read from file:
     /zfs-home/202401017n/pseudos/Sb_ONCV_PBE-1.2.upf
     MD5 check sum: 0417cd6c0fe8ce4611e2b23135f1abd9
     Pseudo is Norm-conserving, Zval = 15.0
     Generated using ONCVPSP code by D. R. Hamann
     Using radial grid of  602 points,  6 beta functions with: 
                l(1) =   0
                l(2) =   0
                l(3) =   1
                l(4) =   1
                l(5) =   2
                l(6) =   2

     PseudoPot. # 2 for Te read from file:
     /zfs-home/202401017n/pseudos/Te_ONCV_PBE-1.2.upf
     MD5 check sum: dd4de4dac1e38587f63aaf3700bb29d3
     Pseudo is Norm-conserving, Zval = 16.0
     Generated using ONCVPSP code by D. R. Hamann
     Using radial grid of  602 points,  6 beta functions with: 
                l(1) =   0
                l(2) =   0
                l(3) =   1
                l(4) =   1
                l(5) =   2
                l(6) =   2

     atomic species   valence    mass     pseudopotential
     Sb               15.00   121.76000     Sb( 1.00)
     Te               16.00   127.60000     Te( 1.00)

     No symmetry found


                                    s                        frac. trans.

      isym =  1     identity                                     

 cryst.   s( 1) = (     1          0          0      )
                  (     0          1          0      )
                  (     0          0          1      )

 cart.    s( 1) = (  1.0000000  0.0000000  0.0000000 )
                  (  0.0000000  1.0000000  0.0000000 )
                  (  0.0000000  0.0000000  1.0000000 )


   Cartesian axes

     site n.     atom                  positions (alat units)
         1        Sb     tau(   1) = (   0.5904646   0.4157527   2.9115514  )
         2        Te     tau(   2) = (   0.5755298   0.3904446   1.6605492  )
         3        Sb     tau(   3) = (   0.0721083   0.1184920   2.0322939  )
         4        Te     tau(   4) = (   0.0869606   0.1439524   3.2833161  )
         5        Te     tau(   5) = (   0.0908738   0.6835524   2.4719228  )

     -------------------------------------------------
     Parameters for Dispersion (Grimme-D2) Correction:
     -------------------------------------------------
       atom      VdW radius       C_6     

        Sb         3.555       1333.532
        Te         3.575       1101.101

   Crystallographic axes

     site n.     atom                  positions (cryst. coord.)
         1        Sb     tau(   1) = (  0.8305018  0.4992775  0.5889190  )
         2        Te     tau(   2) = (  0.8009552  0.4688850  0.3358790  )
         3        Sb     tau(   3) = (  0.1405204  0.1422971  0.4110717  )
         4        Te     tau(   4) = (  0.1700723  0.1728725  0.6641158  )
         5        Te     tau(   5) = (  0.4855268  0.8208782  0.4999954  )

     number of k points=    85
                       cart. coord. in units 2pi/alat
        k(    1) = (   0.0000000   0.0000000   0.0000000), wk =   0.0118343
        k(    2) = (   0.0000000   0.0923769   0.0000000), wk =   0.0236686
        k(    3) = (   0.0000000   0.1847539   0.0000000), wk =   0.0236686
        k(    4) = (   0.0000000   0.2771308   0.0000000), wk =   0.0236686
        k(    5) = (   0.0000000   0.3695077   0.0000000), wk =   0.0236686
        k(    6) = (   0.0000000   0.4618847   0.0000000), wk =   0.0236686
        k(    7) = (   0.0000000   0.5542616   0.0000000), wk =   0.0236686
        k(    8) = (   0.0769231   0.0444120   0.0000000), wk =   0.0236686
        k(    9) = (   0.0769231   0.1367889   0.0000000), wk =   0.0236686
        k(   10) = (   0.0769231   0.2291659   0.0000000), wk =   0.0236686
        k(   11) = (   0.0769231   0.3215428   0.0000000), wk =   0.0236686
        k(   12) = (   0.0769231   0.4139197   0.0000000), wk =   0.0236686
        k(   13) = (   0.0769231   0.5062967   0.0000000), wk =   0.0236686
        k(   14) = (   0.0769231   0.5986736   0.0000000), wk =   0.0236686
        k(   15) = (   0.0769231  -0.5098496   0.0000000), wk =   0.0236686
        k(   16) = (   0.0769231  -0.4174727   0.0000000), wk =   0.0236686
        k(   17) = (   0.0769231  -0.3250958   0.0000000), wk =   0.0236686
        k(   18) = (   0.0769231  -0.2327188   0.0000000), wk =   0.0236686
        k(   19) = (   0.0769231  -0.1403419   0.0000000), wk =   0.0236686
        k(   20) = (   0.0769231  -0.0479649   0.0000000), wk =   0.0236686
        k(   21) = (   0.1538462   0.0888240   0.0000000), wk =   0.0236686
        k(   22) = (   0.1538462   0.1812009   0.0000000), wk =   0.0236686
        k(   23) = (   0.1538462   0.2735779   0.0000000), wk =   0.0236686
        k(   24) = (   0.1538462   0.3659548   0.0000000), wk =   0.0236686
        k(   25) = (   0.1538462   0.4583317   0.0000000), wk =   0.0236686
        k(   26) = (   0.1538462   0.5507087   0.0000000), wk =   0.0236686
        k(   27) = (   0.1538462   0.6430856   0.0000000), wk =   0.0236686
        k(   28) = (   0.1538462  -0.4654376   0.0000000), wk =   0.0236686
        k(   29) = (   0.1538462  -0.3730607   0.0000000), wk =   0.0236686
        k(   30) = (   0.1538462  -0.2806838   0.0000000), wk =   0.0236686
        k(   31) = (   0.1538462  -0.1883068   0.0000000), wk =   0.0236686
        k(   32) = (   0.1538462  -0.0959299   0.0000000), wk =   0.0236686
        k(   33) = (   0.1538462  -0.0035530   0.0000000), wk =   0.0236686
        k(   34) = (   0.2307692   0.1332360   0.0000000), wk =   0.0236686
        k(   35) = (   0.2307692   0.2256129   0.0000000), wk =   0.0236686
        k(   36) = (   0.2307692   0.3179898   0.0000000), wk =   0.0236686
        k(   37) = (   0.2307692   0.4103668   0.0000000), wk =   0.0236686
        k(   38) = (   0.2307692   0.5027437   0.0000000), wk =   0.0236686
        k(   39) = (   0.2307692   0.5951206   0.0000000), wk =   0.0236686
        k(   40) = (   0.2307692   0.6874976   0.0000000), wk =   0.0236686
        k(   41) = (   0.2307692  -0.4210257   0.0000000), wk =   0.0236686
        k(   42) = (   0.2307692  -0.3286487   0.0000000), wk =   0.0236686
        k(   43) = (   0.2307692  -0.2362718   0.0000000), wk =   0.0236686
        k(   44) = (   0.2307692  -0.1438948   0.0000000), wk =   0.0236686
        k(   45) = (   0.2307692  -0.0515179   0.0000000), wk =   0.0236686
        k(   46) = (   0.2307692   0.0408590   0.0000000), wk =   0.0236686
        k(   47) = (   0.3076923   0.1776480   0.0000000), wk =   0.0236686
        k(   48) = (   0.3076923   0.2700249   0.0000000), wk =   0.0236686
        k(   49) = (   0.3076923   0.3624018   0.0000000), wk =   0.0236686
        k(   50) = (   0.3076923   0.4547788   0.0000000), wk =   0.0236686
        k(   51) = (   0.3076923   0.5471557   0.0000000), wk =   0.0236686
        k(   52) = (   0.3076923   0.6395326   0.0000000), wk =   0.0236686
        k(   53) = (   0.3076923   0.7319096   0.0000000), wk =   0.0236686
        k(   54) = (   0.3076923  -0.3766137   0.0000000), wk =   0.0236686
        k(   55) = (   0.3076923  -0.2842367   0.0000000), wk =   0.0236686
        k(   56) = (   0.3076923  -0.1918598   0.0000000), wk =   0.0236686
        k(   57) = (   0.3076923  -0.0994829   0.0000000), wk =   0.0236686
        k(   58) = (   0.3076923  -0.0071059   0.0000000), wk =   0.0236686
        k(   59) = (   0.3076923   0.0852710   0.0000000), wk =   0.0236686
        k(   60) = (   0.3846154   0.2220599   0.0000000), wk =   0.0236686
        k(   61) = (   0.3846154   0.3144369   0.0000000), wk =   0.0236686
        k(   62) = (   0.3846154   0.4068138   0.0000000), wk =   0.0236686
        k(   63) = (   0.3846154   0.4991908   0.0000000), wk =   0.0236686
        k(   64) = (   0.3846154   0.5915677   0.0000000), wk =   0.0236686
        k(   65) = (   0.3846154   0.6839446   0.0000000), wk =   0.0236686
        k(   66) = (   0.3846154   0.7763216   0.0000000), wk =   0.0236686
        k(   67) = (   0.3846154  -0.3322017   0.0000000), wk =   0.0236686
        k(   68) = (   0.3846154  -0.2398247   0.0000000), wk =   0.0236686
        k(   69) = (   0.3846154  -0.1474478   0.0000000), wk =   0.0236686
        k(   70) = (   0.3846154  -0.0550709   0.0000000), wk =   0.0236686
        k(   71) = (   0.3846154   0.0373061   0.0000000), wk =   0.0236686
        k(   72) = (   0.3846154   0.1296830   0.0000000), wk =   0.0236686
        k(   73) = (   0.4615385   0.2664719   0.0000000), wk =   0.0236686
        k(   74) = (   0.4615385   0.3588489   0.0000000), wk =   0.0236686
        k(   75) = (   0.4615385   0.4512258   0.0000000), wk =   0.0236686
        k(   76) = (   0.4615385   0.5436027   0.0000000), wk =   0.0236686
        k(   77) = (   0.4615385   0.6359797   0.0000000), wk =   0.0236686
        k(   78) = (   0.4615385   0.7283566   0.0000000), wk =   0.0236686
        k(   79) = (   0.4615385   0.8207336   0.0000000), wk =   0.0236686
        k(   80) = (   0.4615385  -0.2877897   0.0000000), wk =   0.0236686
        k(   81) = (   0.4615385  -0.1954128   0.0000000), wk =   0.0236686
        k(   82) = (   0.4615385  -0.1030358   0.0000000), wk =   0.0236686
        k(   83) = (   0.4615385  -0.0106589   0.0000000), wk =   0.0236686
        k(   84) = (   0.4615385   0.0817181   0.0000000), wk =   0.0236686
        k(   85) = (   0.4615385   0.1740950   0.0000000), wk =   0.0236686

                       cryst. coord.
        k(    1) = (   0.0000000   0.0000000   0.0000000), wk =   0.0118343
        k(    2) = (   0.0000000   0.0769231   0.0000000), wk =   0.0236686
        k(    3) = (   0.0000000   0.1538462   0.0000000), wk =   0.0236686
        k(    4) = (   0.0000000   0.2307692   0.0000000), wk =   0.0236686
        k(    5) = (   0.0000000   0.3076923   0.0000000), wk =   0.0236686
        k(    6) = (   0.0000000   0.3846154   0.0000000), wk =   0.0236686
        k(    7) = (   0.0000000   0.4615385   0.0000000), wk =   0.0236686
        k(    8) = (   0.0769231   0.0000000   0.0000000), wk =   0.0236686
        k(    9) = (   0.0769231   0.0769231   0.0000000), wk =   0.0236686
        k(   10) = (   0.0769231   0.1538462   0.0000000), wk =   0.0236686
        k(   11) = (   0.0769231   0.2307692   0.0000000), wk =   0.0236686
        k(   12) = (   0.0769231   0.3076923   0.0000000), wk =   0.0236686
        k(   13) = (   0.0769231   0.3846154   0.0000000), wk =   0.0236686
        k(   14) = (   0.0769231   0.4615385   0.0000000), wk =   0.0236686
        k(   15) = (   0.0769231  -0.4615385   0.0000000), wk =   0.0236686
        k(   16) = (   0.0769231  -0.3846154   0.0000000), wk =   0.0236686
        k(   17) = (   0.0769231  -0.3076923   0.0000000), wk =   0.0236686
        k(   18) = (   0.0769231  -0.2307692   0.0000000), wk =   0.0236686
        k(   19) = (   0.0769231  -0.1538462   0.0000000), wk =   0.0236686
        k(   20) = (   0.0769231  -0.0769231   0.0000000), wk =   0.0236686
        k(   21) = (   0.1538462   0.0000000   0.0000000), wk =   0.0236686
        k(   22) = (   0.1538462   0.0769231   0.0000000), wk =   0.0236686
        k(   23) = (   0.1538462   0.1538462   0.0000000), wk =   0.0236686
        k(   24) = (   0.1538462   0.2307692   0.0000000), wk =   0.0236686
        k(   25) = (   0.1538462   0.3076923   0.0000000), wk =   0.0236686
        k(   26) = (   0.1538462   0.3846154   0.0000000), wk =   0.0236686
        k(   27) = (   0.1538462   0.4615385   0.0000000), wk =   0.0236686
        k(   28) = (   0.1538462  -0.4615385   0.0000000), wk =   0.0236686
        k(   29) = (   0.1538462  -0.3846154   0.0000000), wk =   0.0236686
        k(   30) = (   0.1538462  -0.3076923   0.0000000), wk =   0.0236686
        k(   31) = (   0.1538462  -0.2307692   0.0000000), wk =   0.0236686
        k(   32) = (   0.1538462  -0.1538462   0.0000000), wk =   0.0236686
        k(   33) = (   0.1538462  -0.0769231   0.0000000), wk =   0.0236686
        k(   34) = (   0.2307692  -0.0000000   0.0000000), wk =   0.0236686
        k(   35) = (   0.2307692   0.0769231   0.0000000), wk =   0.0236686
        k(   36) = (   0.2307692   0.1538462   0.0000000), wk =   0.0236686
        k(   37) = (   0.2307692   0.2307692   0.0000000), wk =   0.0236686
        k(   38) = (   0.2307692   0.3076923   0.0000000), wk =   0.0236686
        k(   39) = (   0.2307692   0.3846154   0.0000000), wk =   0.0236686
        k(   40) = (   0.2307692   0.4615385   0.0000000), wk =   0.0236686
        k(   41) = (   0.2307692  -0.4615385   0.0000000), wk =   0.0236686
        k(   42) = (   0.2307692  -0.3846154   0.0000000), wk =   0.0236686
        k(   43) = (   0.2307692  -0.3076923   0.0000000), wk =   0.0236686
        k(   44) = (   0.2307692  -0.2307692   0.0000000), wk =   0.0236686
        k(   45) = (   0.2307692  -0.1538462   0.0000000), wk =   0.0236686
        k(   46) = (   0.2307692  -0.0769231   0.0000000), wk =   0.0236686
        k(   47) = (   0.3076923   0.0000000   0.0000000), wk =   0.0236686
        k(   48) = (   0.3076923   0.0769231   0.0000000), wk =   0.0236686
        k(   49) = (   0.3076923   0.1538462   0.0000000), wk =   0.0236686
        k(   50) = (   0.3076923   0.2307692   0.0000000), wk =   0.0236686
        k(   51) = (   0.3076923   0.3076923   0.0000000), wk =   0.0236686
        k(   52) = (   0.3076923   0.3846154   0.0000000), wk =   0.0236686
        k(   53) = (   0.3076923   0.4615385   0.0000000), wk =   0.0236686
        k(   54) = (   0.3076923  -0.4615385   0.0000000), wk =   0.0236686
        k(   55) = (   0.3076923  -0.3846154   0.0000000), wk =   0.0236686
        k(   56) = (   0.3076923  -0.3076923   0.0000000), wk =   0.0236686
        k(   57) = (   0.3076923  -0.2307692   0.0000000), wk =   0.0236686
        k(   58) = (   0.3076923  -0.1538462   0.0000000), wk =   0.0236686
        k(   59) = (   0.3076923  -0.0769231   0.0000000), wk =   0.0236686
        k(   60) = (   0.3846154  -0.0000000   0.0000000), wk =   0.0236686
        k(   61) = (   0.3846154   0.0769231   0.0000000), wk =   0.0236686
        k(   62) = (   0.3846154   0.1538462   0.0000000), wk =   0.0236686
        k(   63) = (   0.3846154   0.2307692   0.0000000), wk =   0.0236686
        k(   64) = (   0.3846154   0.3076923   0.0000000), wk =   0.0236686
        k(   65) = (   0.3846154   0.3846154   0.0000000), wk =   0.0236686
        k(   66) = (   0.3846154   0.4615385   0.0000000), wk =   0.0236686
        k(   67) = (   0.3846154  -0.4615385   0.0000000), wk =   0.0236686
        k(   68) = (   0.3846154  -0.3846154   0.0000000), wk =   0.0236686
        k(   69) = (   0.3846154  -0.3076923   0.0000000), wk =   0.0236686
        k(   70) = (   0.3846154  -0.2307692   0.0000000), wk =   0.0236686
        k(   71) = (   0.3846154  -0.1538462   0.0000000), wk =   0.0236686
        k(   72) = (   0.3846154  -0.0769231   0.0000000), wk =   0.0236686
        k(   73) = (   0.4615385  -0.0000000   0.0000000), wk =   0.0236686
        k(   74) = (   0.4615385   0.0769231   0.0000000), wk =   0.0236686
        k(   75) = (   0.4615385   0.1538462   0.0000000), wk =   0.0236686
        k(   76) = (   0.4615385   0.2307692   0.0000000), wk =   0.0236686
        k(   77) = (   0.4615385   0.3076923   0.0000000), wk =   0.0236686
        k(   78) = (   0.4615385   0.3846154   0.0000000), wk =   0.0236686
        k(   79) = (   0.4615385   0.4615385   0.0000000), wk =   0.0236686
        k(   80) = (   0.4615385  -0.4615385   0.0000000), wk =   0.0236686
        k(   81) = (   0.4615385  -0.3846154   0.0000000), wk =   0.0236686
        k(   82) = (   0.4615385  -0.3076923   0.0000000), wk =   0.0236686
        k(   83) = (   0.4615385  -0.2307692   0.0000000), wk =   0.0236686
        k(   84) = (   0.4615385  -0.1538462   0.0000000), wk =   0.0236686
        k(   85) = (   0.4615385  -0.0769231   0.0000000), wk =   0.0236686

     Dense  grid:   198065 G-vectors     FFT dimensions: (  45,  45, 225)

     Dynamical RAM for                 wfc:       0.31 MB

     Dynamical RAM for     wfc (w. buffer):      27.01 MB

     Dynamical RAM for                 EXX:     466.96 MB

     Dynamical RAM for           str. fact:       0.08 MB

     Dynamical RAM for           local pot:       0.00 MB

     Dynamical RAM for          nlocal pot:       0.47 MB

     Dynamical RAM for                qrad:       2.85 MB

     Dynamical RAM for          rho,v,vnew:       0.31 MB

     Dynamical RAM for               rhoin:       0.10 MB

     Dynamical RAM for            rho*nmix:       0.67 MB

     Dynamical RAM for           G-vectors:       0.18 MB

     Dynamical RAM for          h,s,v(r/c):       0.66 MB

     Dynamical RAM for          <psi|beta>:       0.08 MB

     Dynamical RAM for                 psi:       0.63 MB

     Dynamical RAM for                hpsi:       0.63 MB

     Dynamical RAM for      wfcinit/wfcrot:       0.71 MB

     Estimated static dynamical RAM per process >     498.40 MB

     Estimated max dynamical RAM per process >     501.06 MB

     Estimated total dynamical RAM >      35.23 GB
     EXX: ACE will be initialized later

     Initial potential from superposition of free atoms

     starting charge      77.7638, renormalised to      78.0000

     negative rho (up, down):  6.641E-04 0.000E+00
     Starting wfcs are random

     total cpu time spent up to now is        4.0 secs

     Self-consistent Calculation

     iteration #  1     ecut=    70.00 Ry     beta= 0.70
     Davidson diagonalization with overlap

---- Real-time Memory Report at c_bands before calling an iterative solver
           221 MiB given to the printing process from OS
             0 MiB allocation reported by mallinfo(arena+hblkhd)
         91715 MiB available memory on the node where the printing process lives
------------------
     ethr =  1.00E-02,  avg # of iterations = 10.0

     Threshold (ethr) on eigenvalues was too large:
     Diagonalizing with lowered threshold

     Davidson diagonalization with overlap

---- Real-time Memory Report at c_bands before calling an iterative solver
           223 MiB given to the printing process from OS
             0 MiB allocation reported by mallinfo(arena+hblkhd)
         91671 MiB available memory on the node where the printing process lives
------------------
     ethr =  1.56E-04,  avg # of iterations =  9.9

     negative rho (up, down):  4.866E-05 0.000E+00

     total cpu time spent up to now is       57.0 secs

     total energy              =    -807.02305242 Ry
     estimated scf accuracy    <       0.10918319 Ry

     iteration #  2     ecut=    70.00 Ry     beta= 0.70
     Davidson diagonalization with overlap

---- Real-time Memory Report at c_bands before calling an iterative solver
           224 MiB given to the printing process from OS
             0 MiB allocation reported by mallinfo(arena+hblkhd)
         91671 MiB available memory on the node where the printing process lives
------------------
     ethr =  1.40E-04,  avg # of iterations = 11.6

     negative rho (up, down):  4.106E-05 0.000E+00

     total cpu time spent up to now is       77.0 secs

     total energy              =    -806.91196415 Ry
     estimated scf accuracy    <       1.11675269 Ry

     iteration #  3     ecut=    70.00 Ry     beta= 0.70
     Davidson diagonalization with overlap

---- Real-time Memory Report at c_bands before calling an iterative solver
           234 MiB given to the printing process from OS
             0 MiB allocation reported by mallinfo(arena+hblkhd)
         91428 MiB available memory on the node where the printing process lives
------------------
     c_bands:  1 eigenvalues not converged
     ethr =  1.40E-04,  avg # of iterations = 13.0

     negative rho (up, down):  2.617E-05 0.000E+00

     total cpu time spent up to now is       96.5 secs

     total energy              =    -807.04751455 Ry
     estimated scf accuracy    <       0.28462346 Ry

     iteration #  4     ecut=    70.00 Ry     beta= 0.70
     Davidson diagonalization with overlap

---- Real-time Memory Report at c_bands before calling an iterative solver
           235 MiB given to the printing process from OS
             0 MiB allocation reported by mallinfo(arena+hblkhd)
         91419 MiB available memory on the node where the printing process lives
------------------
     ethr =  1.40E-04,  avg # of iterations =  5.9

     negative rho (up, down):  1.549E-06 0.000E+00

     total cpu time spent up to now is      109.8 secs

     total energy              =    -807.07773644 Ry
     estimated scf accuracy    <       0.00184383 Ry

     iteration #  5     ecut=    70.00 Ry     beta= 0.70
     Davidson diagonalization with overlap

---- Real-time Memory Report at c_bands before calling an iterative solver
           236 MiB given to the printing process from OS
             0 MiB allocation reported by mallinfo(arena+hblkhd)
         91286 MiB available memory on the node where the printing process lives
------------------
     c_bands:  1 eigenvalues not converged
     c_bands:  1 eigenvalues not converged
     ethr =  2.36E-06,  avg # of iterations = 11.8

     negative rho (up, down):  4.911E-07 0.000E+00

     total cpu time spent up to now is      128.9 secs

     total energy              =    -807.07780371 Ry
     estimated scf accuracy    <       0.00054188 Ry

     iteration #  6     ecut=    70.00 Ry     beta= 0.70
     Davidson diagonalization with overlap

---- Real-time Memory Report at c_bands before calling an iterative solver
           247 MiB given to the printing process from OS
             0 MiB allocation reported by mallinfo(arena+hblkhd)
         91159 MiB available memory on the node where the printing process lives
------------------
     c_bands:  1 eigenvalues not converged
     c_bands:  1 eigenvalues not converged
     c_bands:  1 eigenvalues not converged
     c_bands:  1 eigenvalues not converged
     ethr =  6.95E-07,  avg # of iterations = 10.2

     total cpu time spent up to now is      146.4 secs

     total energy              =    -807.07750276 Ry
     estimated scf accuracy    <       0.00982371 Ry

     iteration #  7     ecut=    70.00 Ry     beta= 0.70
     Davidson diagonalization with overlap

---- Real-time Memory Report at c_bands before calling an iterative solver
           247 MiB given to the printing process from OS
             0 MiB allocation reported by mallinfo(arena+hblkhd)
         91154 MiB available memory on the node where the printing process lives
------------------
     ethr =  6.95E-07,  avg # of iterations =  9.6

     total cpu time spent up to now is      163.3 secs

     total energy              =    -807.07803332 Ry
     estimated scf accuracy    <       0.00000663 Ry

     iteration #  8     ecut=    70.00 Ry     beta= 0.70
     Davidson diagonalization with overlap

---- Real-time Memory Report at c_bands before calling an iterative solver
           248 MiB given to the printing process from OS
             0 MiB allocation reported by mallinfo(arena+hblkhd)
         91152 MiB available memory on the node where the printing process lives
------------------
     c_bands:  1 eigenvalues not converged
     c_bands:  1 eigenvalues not converged
     c_bands:  1 eigenvalues not converged
     ethr =  8.50E-09,  avg # of iterations = 10.0

     total cpu time spent up to now is      180.8 secs

     End of self-consistent calculation

          k = 0.0000 0.0000 0.0000 ( 24691 PWs)   bands (ev):

   -34.7927 -34.7924 -34.7916 -34.7914 -34.7584 -34.7582 -34.7513 -34.7508
   -34.7409 -34.7405 -34.6644 -34.6617 -34.6479 -34.6223 -34.6207 -27.6134
   -27.6124 -27.6107 -27.6098 -27.6024 -27.6016 -27.6015 -27.6007 -27.5981
   -27.5973 -10.6539 -10.1206  -9.0652  -6.3604  -5.0579  -0.2009  -0.0318
     0.1732   0.2414   0.4019   0.7251   0.7974   0.9704   1.1909   2.1153
     2.6529   2.7833   3.5175   3.7521   3.8513   6.3135   6.4990   7.1825
     7.5185   7.6383   8.0514   8.4963   8.7923   8.8061   8.8359   9.3507
     9.5981   9.7890  10.2346  10.2425

     occupation numbers 
     1.0000   1.0000   1.0000   1.0000   1.0000   1.0000   1.0000   1.0000
     1.0000   1.0000   1.0000   1.0000   1.0000   1.0000   1.0000   1.0000
     1.0000   1.0000   1.0000   1.0000   1.0000   1.0000   1.0000   1.0000
     1.0000   1.0000   1.0000   1.0000   1.0000   1.0000   1.0000   1.0000
     1.0000   1.0000   1.0000   1.0000   1.0000   1.0000   1.0000   0.0000
     0.0000   0.0000   0.0000   0.0000   0.0000   0.0000   0.0000   0.0000
     0.0000   0.0000   0.0000   0.0000   0.0000   0.0000   0.0000   0.0000
     0.0000   0.0000   0.0000   0.0000

          k = 0.0000 0.0924 0.0000 ( 24705 PWs)   bands (ev):

   -34.7927 -34.7924 -34.7916 -34.7913 -34.7584 -34.7582 -34.7513 -34.7508
   -34.7409 -34.7405 -34.6644 -34.6618 -34.6479 -34.6223 -34.6206 -27.6132
   -27.6122 -27.6108 -27.6099 -27.6025 -27.6017 -27.6015 -27.6007 -27.5980
   -27.5972 -10.6032 -10.0743  -9.0379  -6.3708  -5.1425  -0.4267  -0.2611
    -0.0357   0.0815   0.1417   0.4719   0.8770   1.0806   1.5120   2.2303
     2.7294   2.9036   3.5259   3.8305   4.1252   6.3952   6.5243   7.1946
     7.5736   7.6341   7.7541   8.5659   8.6838   8.8285   8.9306   9.4243
     9.8107   9.8227  10.4558  10.4973

     occupation numbers 
     1.0000   1.0000   1.0000   1.0000   1.0000   1.0000   1.0000   1.0000
     1.0000   1.0000   1.0000   1.0000   1.0000   1.0000   1.0000   1.0000
     1.0000   1.0000   1.0000   1.0000   1.0000   1.0000   1.0000   1.0000
     1.0000   1.0000   1.0000   1.0000   1.0000   1.0000   1.0000   1.0000
     1.0000   1.0000   1.0000   1.0000   1.0000   1.0000   1.0000   0.0000
     0.0000   0.0000   0.0000   0.0000   0.0000   0.0000   0.0000   0.0000
     0.0000   0.0000   0.0000   0.0000   0.0000   0.0000   0.0000   0.0000
     0.0000   0.0000   0.0000   0.0000

          k = 0.0000 0.1848 0.0000 ( 24729 PWs)   bands (ev):

   -34.7927 -34.7924 -34.7913 -34.7911 -34.7584 -34.7582 -34.7513 -34.7509
   -34.7408 -34.7404 -34.6643 -34.6618 -34.6479 -34.6221 -34.6205 -27.6128
   -27.6118 -27.6109 -27.6100 -27.6029 -27.6019 -27.6016 -27.6007 -27.5977
   -27.5969 -10.4527  -9.9378  -8.9615  -6.4143  -5.3909  -1.1253  -0.5947
    -0.4536  -0.3086  -0.0954   0.1929   0.9160   1.1544   1.5017   2.4840
     2.9432   3.2843   3.7224   4.0924   4.5784   6.5233   6.6176   7.0124
     7.5536   7.6904   7.9708   8.4955   8.7646   8.9082   9.0297   9.6400
     9.8116  10.0256  10.7174  10.8950

     occupation numbers 
     1.0000   1.0000   1.0000   1.0000   1.0000   1.0000   1.0000   1.0000
     1.0000   1.0000   1.0000   1.0000   1.0000   1.0000   1.0000   1.0000
     1.0000   1.0000   1.0000   1.0000   1.0000   1.0000   1.0000   1.0000
     1.0000   1.0000   1.0000   1.0000   1.0000   1.0000   1.0000   1.0000
     1.0000   1.0000   1.0000   1.0000   1.0000   1.0000   1.0000   0.0000
     0.0000   0.0000   0.0000   0.0000   0.0000   0.0000   0.0000   0.0000
     0.0000   0.0000   0.0000   0.0000   0.0000   0.0000   0.0000   0.0000
     0.0000   0.0000   0.0000   0.0000

          k = 0.0000 0.2771 0.0000 ( 24766 PWs)   bands (ev):

   -34.7927 -34.7924 -34.7911 -34.7908 -34.7585 -34.7582 -34.7514 -34.7509
   -34.7406 -34.7402 -34.6643 -34.6618 -34.6480 -34.6219 -34.6204 -27.6123
   -27.6114 -27.6109 -27.6101 -27.6033 -27.6023 -27.6016 -27.6006 -27.5973
   -27.5965 -10.2083  -9.7204  -8.8536  -6.5247  -5.7738  -1.8107  -0.9932
    -0.9357  -0.6272  -0.3662   0.1999   0.6097   0.8728   1.5754   2.5899
     3.1342   3.6300   4.0846   4.3957   5.0519   6.2484   6.8697   7.1364
     7.7231   8.0056   8.4445   8.5077   8.7970   8.9673   9.4948   9.8893
    10.1455  10.1699  10.6666  11.3927

     occupation numbers 
     1.0000   1.0000   1.0000   1.0000   1.0000   1.0000   1.0000   1.0000
     1.0000   1.0000   1.0000   1.0000   1.0000   1.0000   1.0000   1.0000
     1.0000   1.0000   1.0000   1.0000   1.0000   1.0000   1.0000   1.0000
     1.0000   1.0000   1.0000   1.0000   1.0000   1.0000   1.0000   1.0000
     1.0000   1.0000   1.0000   1.0000   1.0000   1.0000   1.0000   0.0000
     0.0000   0.0000   0.0000   0.0000   0.0000   0.0000   0.0000   0.0000
     0.0000   0.0000   0.0000   0.0000   0.0000   0.0000   0.0000   0.0000
     0.0000   0.0000   0.0000   0.0000

          k = 0.0000 0.3695 0.0000 ( 24803 PWs)   bands (ev):

   -34.7927 -34.7924 -34.7907 -34.7905 -34.7585 -34.7582 -34.7514 -34.7510
   -34.7404 -34.7400 -34.6642 -34.6618 -34.6481 -34.6217 -34.6202 -27.6122
   -27.6113 -27.6107 -27.6098 -27.6038 -27.6027 -27.6015 -27.6005 -27.5969
   -27.5960  -9.8821  -9.4426  -8.7492  -6.7423  -6.2145  -2.3535  -1.4197
    -1.2239  -0.8292  -0.6070  -0.0229   0.4421   0.7805   1.3158   2.6700
     3.2675   3.7545   4.2846   4.6846   5.5130   5.9116   7.1868   7.4304
     8.0004   8.4244   8.5350   9.0679   9.2604   9.4060  10.0199  10.0969
    10.3007  10.6730  10.7727  11.2088

     occupation numbers 
     1.0000   1.0000   1.0000   1.0000   1.0000   1.0000   1.0000   1.0000
     1.0000   1.0000   1.0000   1.0000   1.0000   1.0000   1.0000   1.0000
     1.0000   1.0000   1.0000   1.0000   1.0000   1.0000   1.0000   1.0000
     1.0000   1.0000   1.0000   1.0000   1.0000   1.0000   1.0000   1.0000
     1.0000   1.0000   1.0000   1.0000   1.0000   1.0000   1.0000   0.0000
     0.0000   0.0000   0.0000   0.0000   0.0000   0.0000   0.0000   0.0000
     0.0000   0.0000   0.0000   0.0000   0.0000   0.0000   0.0000   0.0000
     0.0000   0.0000   0.0000   0.0000

          k = 0.0000 0.4619 0.0000 ( 24805 PWs)   bands (ev):

   -34.7927 -34.7924 -34.7905 -34.7902 -34.7585 -34.7582 -34.7515 -34.7510
   -34.7403 -34.7399 -34.6641 -34.6618 -34.6482 -34.6216 -34.6200 -27.6123
   -27.6115 -27.6104 -27.6095 -27.6042 -27.6031 -27.6014 -27.6004 -27.5965
   -27.5956  -9.4991  -9.1480  -8.7092  -7.0578  -6.5989  -2.7251  -1.6327
    -1.4261  -1.0568  -0.7867  -0.2517   0.5121   0.6893   1.0024   2.6870
     3.3224   3.6808   4.4555   4.8955   5.5819   5.8503   7.2710   7.9197
     8.2904   8.8959   9.1203   9.3947   9.6531   9.9767  10.2866  10.4430
    10.6059  10.9374  11.1436  11.3795

     occupation numbers 
     1.0000   1.0000   1.0000   1.0000   1.0000   1.0000   1.0000   1.0000
     1.0000   1.0000   1.0000   1.0000   1.0000   1.0000   1.0000   1.0000
     1.0000   1.0000   1.0000   1.0000   1.0000   1.0000   1.0000   1.0000
     1.0000   1.0000   1.0000   1.0000   1.0000   1.0000   1.0000   1.0000
     1.0000   1.0000   1.0000   1.0000   1.0000   1.0000   1.0000   0.0000
     0.0000   0.0000   0.0000   0.0000   0.0000   0.0000   0.0000   0.0000
     0.0000   0.0000   0.0000   0.0000   0.0000   0.0000   0.0000   0.0000
     0.0000   0.0000   0.0000   0.0000

          k = 0.0000 0.5543 0.0000 ( 24786 PWs)   bands (ev):

   -34.7927 -34.7924 -34.7903 -34.7901 -34.7585 -34.7582 -34.7515 -34.7511
   -34.7402 -34.7398 -34.6641 -34.6618 -34.6482 -34.6215 -34.6199 -27.6124
   -27.6116 -27.6102 -27.6092 -27.6044 -27.6034 -27.6013 -27.6003 -27.5962
   -27.5954  -9.1128  -8.9317  -8.8186  -7.3185  -6.8310  -2.9172  -1.6464
    -1.5320  -1.2940  -0.8808  -0.3034   0.5501   0.6267   0.8321   2.6358
     3.3366   3.6756   4.4870   4.9997   5.5138   5.8549   7.3514   8.4524
     8.6480   8.9982   9.1783   9.5657   9.7961  10.2394  10.5910  10.7164
    10.9452  11.2226  11.3934  11.5512

     occupation numbers 
     1.0000   1.0000   1.0000   1.0000   1.0000   1.0000   1.0000   1.0000
     1.0000   1.0000   1.0000   1.0000   1.0000   1.0000   1.0000   1.0000
     1.0000   1.0000   1.0000   1.0000   1.0000   1.0000   1.0000   1.0000
     1.0000   1.0000   1.0000   1.0000   1.0000   1.0000   1.0000   1.0000
     1.0000   1.0000   1.0000   1.0000   1.0000   1.0000   1.0000   0.0000
     0.0000   0.0000   0.0000   0.0000   0.0000   0.0000   0.0000   0.0000
     0.0000   0.0000   0.0000   0.0000   0.0000   0.0000   0.0000   0.0000
     0.0000   0.0000   0.0000   0.0000

          k = 0.0769 0.0444 0.0000 ( 24716 PWs)   bands (ev):

   -34.7927 -34.7923 -34.7916 -34.7914 -34.7584 -34.7582 -34.7513 -34.7508
   -34.7409 -34.7405 -34.6644 -34.6618 -34.6479 -34.6223 -34.6207 -27.6134
   -27.6124 -27.6106 -27.6097 -27.6025 -27.6017 -27.6015 -27.6007 -27.5981
   -27.5973 -10.6068 -10.0782  -9.0413  -6.3756  -5.1538  -0.5237  -0.3611
     0.0023   0.1247   0.3466   0.4061   1.0320   1.0719   1.4620   2.4107
     2.5938   2.8630   3.6820   3.8068   3.9904   6.3903   6.5105   7.1844
     7.3690   7.6162   8.1124   8.4768   8.6799   8.7711   9.1058   9.2953
     9.8341   9.9836  10.2257  10.4483

     occupation numbers 
     1.0000   1.0000   1.0000   1.0000   1.0000   1.0000   1.0000   1.0000
     1.0000   1.0000   1.0000   1.0000   1.0000   1.0000   1.0000   1.0000
     1.0000   1.0000   1.0000   1.0000   1.0000   1.0000   1.0000   1.0000
     1.0000   1.0000   1.0000   1.0000   1.0000   1.0000   1.0000   1.0000
     1.0000   1.0000   1.0000   1.0000   1.0000   1.0000   1.0000   0.0000
     0.0000   0.0000   0.0000   0.0000   0.0000   0.0000   0.0000   0.0000
     0.0000   0.0000   0.0000   0.0000   0.0000   0.0000   0.0000   0.0000
     0.0000   0.0000   0.0000   0.0000

          k = 0.0769 0.1368 0.0000 ( 24736 PWs)   bands (ev):

   -34.7927 -34.7923 -34.7915 -34.7912 -34.7584 -34.7582 -34.7513 -34.7508
   -34.7408 -34.7404 -34.6644 -34.6618 -34.6479 -34.6221 -34.6206 -27.6133
   -27.6123 -27.6106 -27.6097 -27.6027 -27.6017 -27.6015 -27.6007 -27.5979
   -27.5971 -10.5081  -9.9889  -8.9912  -6.4050  -5.3253  -0.9582  -0.6161
    -0.4027  -0.1159   0.1311   0.3757   0.7614   1.3851   1.5215   2.5782
     2.7230   3.1636   3.8079   3.9141   4.3825   6.5241   6.5559   7.0908
     7.3117   7.6281   8.1855   8.5119   8.5781   8.8827   9.0424   9.6205
     9.8574  10.1022  10.4807  10.7833

     occupation numbers 
     1.0000   1.0000   1.0000   1.0000   1.0000   1.0000   1.0000   1.0000
     1.0000   1.0000   1.0000   1.0000   1.0000   1.0000   1.0000   1.0000
     1.0000   1.0000   1.0000   1.0000   1.0000   1.0000   1.0000   1.0000
     1.0000   1.0000   1.0000   1.0000   1.0000   1.0000   1.0000   1.0000
     1.0000   1.0000   1.0000   1.0000   1.0000   1.0000   1.0000   0.0000
     0.0000   0.0000   0.0000   0.0000   0.0000   0.0000   0.0000   0.0000
     0.0000   0.0000   0.0000   0.0000   0.0000   0.0000   0.0000   0.0000
     0.0000   0.0000   0.0000   0.0000

          k = 0.0769 0.2292 0.0000 ( 24764 PWs)   bands (ev):

   -34.7927 -34.7923 -34.7912 -34.7910 -34.7585 -34.7582 -34.7513 -34.7509
   -34.7407 -34.7403 -34.6643 -34.6618 -34.6480 -34.6219 -34.6206 -27.6129
   -27.6120 -27.6106 -27.6097 -27.6030 -27.6020 -27.6016 -27.6006 -27.5976
   -27.5968 -10.3123  -9.8135  -8.8997  -6.4817  -5.6442  -1.4886  -1.1517
    -0.6826  -0.5047  -0.1401   0.1543   0.6852   1.1872   1.6059   2.7553
     2.9082   3.5317   4.0299   4.3015   4.8314   6.5148   6.7522   6.9884
     7.3716   7.8540   8.4710   8.5157   8.5869   8.8920   9.4213   9.8750
     9.9413  10.2757  10.8069  10.9551

     occupation numbers 
     1.0000   1.0000   1.0000   1.0000   1.0000   1.0000   1.0000   1.0000
     1.0000   1.0000   1.0000   1.0000   1.0000   1.0000   1.0000   1.0000
     1.0000   1.0000   1.0000   1.0000   1.0000   1.0000   1.0000   1.0000
     1.0000   1.0000   1.0000   1.0000   1.0000   1.0000   1.0000   1.0000
     1.0000   1.0000   1.0000   1.0000   1.0000   1.0000   1.0000   0.0000
     0.0000   0.0000   0.0000   0.0000   0.0000   0.0000   0.0000   0.0000
     0.0000   0.0000   0.0000   0.0000   0.0000   0.0000   0.0000   0.0000
     0.0000   0.0000   0.0000   0.0000

          k = 0.0769 0.3215 0.0000 ( 24782 PWs)   bands (ev):

   -34.7927 -34.7923 -34.7909 -34.7907 -34.7585 -34.7582 -34.7514 -34.7509
   -34.7405 -34.7401 -34.6642 -34.6618 -34.6480 -34.6217 -34.6204 -27.6126
   -27.6117 -27.6105 -27.6096 -27.6035 -27.6024 -27.6015 -27.6006 -27.5972
   -27.5964 -10.0277  -9.5659  -8.7908  -6.6403  -6.0629  -2.0688  -1.4955
    -0.9758  -0.8631  -0.5018   0.0296   0.6473   0.8302   1.5132   2.8791
     3.0526   3.7288   4.3624   4.5851   5.3088   6.1940   7.0379   7.2896
     7.7217   8.1305   8.2905   8.8024   9.1110   9.3163   9.7775  10.1362
    10.1866  10.4139  10.9771  11.2263

     occupation numbers 
     1.0000   1.0000   1.0000   1.0000   1.0000   1.0000   1.0000   1.0000
     1.0000   1.0000   1.0000   1.0000   1.0000   1.0000   1.0000   1.0000
     1.0000   1.0000   1.0000   1.0000   1.0000   1.0000   1.0000   1.0000
     1.0000   1.0000   1.0000   1.0000   1.0000   1.0000   1.0000   1.0000
     1.0000   1.0000   1.0000   1.0000   1.0000   1.0000   1.0000   0.0000
     0.0000   0.0000   0.0000   0.0000   0.0000   0.0000   0.0000   0.0000
     0.0000   0.0000   0.0000   0.0000   0.0000   0.0000   0.0000   0.0000
     0.0000   0.0000   0.0000   0.0000

          k = 0.0769 0.4139 0.0000 ( 24803 PWs)   bands (ev):

   -34.7927 -34.7923 -34.7906 -34.7904 -34.7585 -34.7582 -34.7515 -34.7510
   -34.7404 -34.7400 -34.6641 -34.6618 -34.6481 -34.6216 -34.6202 -27.6124
   -27.6116 -27.6103 -27.6095 -27.6039 -27.6028 -27.6015 -27.6005 -27.5968
   -27.5959  -9.6717  -9.2750  -8.7086  -6.9064  -6.4865  -2.5293  -1.6365
    -1.3721  -1.1473  -0.6212  -0.1786   0.4727   0.7543   1.2798   2.9260
     3.0993   3.7890   4.5689   4.7935   5.6426   5.9318   7.2960   7.6699
     8.1359   8.4175   8.7580   9.2210   9.5494   9.6977  10.0784  10.4093
    10.6568  10.7814  11.1197  11.3125

     occupation numbers 
     1.0000   1.0000   1.0000   1.0000   1.0000   1.0000   1.0000   1.0000
     1.0000   1.0000   1.0000   1.0000   1.0000   1.0000   1.0000   1.0000
     1.0000   1.0000   1.0000   1.0000   1.0000   1.0000   1.0000   1.0000
     1.0000   1.0000   1.0000   1.0000   1.0000   1.0000   1.0000   1.0000
     1.0000   1.0000   1.0000   1.0000   1.0000   1.0000   1.0000   0.0000
     0.0000   0.0000   0.0000   0.0000   0.0000   0.0000   0.0000   0.0000
     0.0000   0.0000   0.0000   0.0000   0.0000   0.0000   0.0000   0.0000
     0.0000   0.0000   0.0000   0.0000

          k = 0.0769 0.5063 0.0000 ( 24792 PWs)   bands (ev):

   -34.7927 -34.7923 -34.7904 -34.7902 -34.7585 -34.7582 -34.7515 -34.7511
   -34.7403 -34.7399 -34.6641 -34.6618 -34.6482 -34.6215 -34.6200 -27.6124
   -27.6116 -27.6102 -27.6093 -27.6042 -27.6032 -27.6014 -27.6004 -27.5964
   -27.5956  -9.2809  -9.0041  -8.7258  -7.2181  -6.8020  -2.8129  -1.6588
    -1.6118  -1.3513  -0.7419  -0.3609   0.4558   0.7135   1.0520   2.9440
     3.0961   3.7287   4.7226   4.8837   5.6410   5.9017   7.3465   8.2087
     8.4568   9.0843   9.2197   9.2756   9.8071   9.9589  10.4173  10.6921
    10.9228  10.9831  11.1711  11.3595

     occupation numbers 
     1.0000   1.0000   1.0000   1.0000   1.0000   1.0000   1.0000   1.0000
     1.0000   1.0000   1.0000   1.0000   1.0000   1.0000   1.0000   1.0000
     1.0000   1.0000   1.0000   1.0000   1.0000   1.0000   1.0000   1.0000
     1.0000   1.0000   1.0000   1.0000   1.0000   1.0000   1.0000   1.0000
     1.0000   1.0000   1.0000   1.0000   1.0000   1.0000   1.0000   0.0000
     0.0000   0.0000   0.0000   0.0000   0.0000   0.0000   0.0000   0.0000
     0.0000   0.0000   0.0000   0.0000   0.0000   0.0000   0.0000   0.0000
     0.0000   0.0000   0.0000   0.0000

          k = 0.0769 0.5987 0.0000 ( 24771 PWs)   bands (ev):

   -34.7927 -34.7923 -34.7903 -34.7901 -34.7585 -34.7582 -34.7515 -34.7511
   -34.7402 -34.7398 -34.6640 -34.6618 -34.6482 -34.6215 -34.6199 -27.6123
   -27.6115 -27.6102 -27.6093 -27.6044 -27.6033 -27.6014 -27.6004 -27.5962
   -27.5954  -8.9420  -8.9084  -8.8778  -7.3692  -6.9237  -2.9104  -1.7525
    -1.5434  -1.4563  -0.8443  -0.3946   0.5442   0.6045   0.9747   2.9114
     3.1294   3.6728   4.7641   4.9060   5.6431   5.8366   7.3954   8.5937
     8.8095   8.8447   9.0714   9.7640   9.8825   9.9139  10.5442  10.5734
    10.9257  11.1638  11.2123  11.4802

     occupation numbers 
     1.0000   1.0000   1.0000   1.0000   1.0000   1.0000   1.0000   1.0000
     1.0000   1.0000   1.0000   1.0000   1.0000   1.0000   1.0000   1.0000
     1.0000   1.0000   1.0000   1.0000   1.0000   1.0000   1.0000   1.0000
     1.0000   1.0000   1.0000   1.0000   1.0000   1.0000   1.0000   1.0000
     1.0000   1.0000   1.0000   1.0000   1.0000   1.0000   1.0000   0.0000
     0.0000   0.0000   0.0000   0.0000   0.0000   0.0000   0.0000   0.0000
     0.0000   0.0000   0.0000   0.0000   0.0000   0.0000   0.0000   0.0000
     0.0000   0.0000   0.0000   0.0000

          k = 0.0769-0.5098 0.0000 ( 24772 PWs)   bands (ev):

   -34.7927 -34.7923 -34.7904 -34.7902 -34.7585 -34.7582 -34.7515 -34.7511
   -34.7402 -34.7398 -34.6641 -34.6618 -34.6482 -34.6216 -34.6199 -27.6122
   -27.6113 -27.6104 -27.6095 -27.6043 -27.6033 -27.6014 -27.6004 -27.5963
   -27.5954  -9.2673  -8.9945  -8.7278  -7.2232  -6.7987  -2.8194  -1.6577
    -1.6408  -1.3148  -0.7766  -0.3294   0.4788   0.6589   1.0584   2.9293
     3.0873   3.7002   4.7227   4.8477   5.6298   5.8654   7.3276   8.2185
     8.4853   8.9001   9.1152   9.2714   9.7723   9.8282  10.3653  10.5841
    10.8653  11.0241  11.4393  11.5172

     occupation numbers 
     1.0000   1.0000   1.0000   1.0000   1.0000   1.0000   1.0000   1.0000
     1.0000   1.0000   1.0000   1.0000   1.0000   1.0000   1.0000   1.0000
     1.0000   1.0000   1.0000   1.0000   1.0000   1.0000   1.0000   1.0000
     1.0000   1.0000   1.0000   1.0000   1.0000   1.0000   1.0000   1.0000
     1.0000   1.0000   1.0000   1.0000   1.0000   1.0000   1.0000   0.0000
     0.0000   0.0000   0.0000   0.0000   0.0000   0.0000   0.0000   0.0000
     0.0000   0.0000   0.0000   0.0000   0.0000   0.0000   0.0000   0.0000
     0.0000   0.0000   0.0000   0.0000

          k = 0.0769-0.4175 0.0000 ( 24767 PWs)   bands (ev):

   -34.7927 -34.7923 -34.7906 -34.7904 -34.7585 -34.7582 -34.7515 -34.7510
   -34.7403 -34.7399 -34.6641 -34.6618 -34.6482 -34.6218 -34.6200 -27.6119
   -27.6111 -27.6108 -27.6099 -27.6040 -27.6030 -27.6015 -27.6005 -27.5965
   -27.5957  -9.6579  -9.2618  -8.7038  -6.9097  -6.4776  -2.5419  -1.6570
    -1.3785  -1.1049  -0.6685  -0.1286   0.4869   0.6866   1.2610   2.9187
     3.0675   3.7161   4.5251   4.7971   5.5972   5.8919   7.2645   7.6749
     8.1271   8.1854   8.7470   9.1218   9.5405   9.7026  10.3736  10.4308
    10.6483  10.8817  11.1938  11.2876

     occupation numbers 
     1.0000   1.0000   1.0000   1.0000   1.0000   1.0000   1.0000   1.0000
     1.0000   1.0000   1.0000   1.0000   1.0000   1.0000   1.0000   1.0000
     1.0000   1.0000   1.0000   1.0000   1.0000   1.0000   1.0000   1.0000
     1.0000   1.0000   1.0000   1.0000   1.0000   1.0000   1.0000   1.0000
     1.0000   1.0000   1.0000   1.0000   1.0000   1.0000   1.0000   0.0000
     0.0000   0.0000   0.0000   0.0000   0.0000   0.0000   0.0000   0.0000
     0.0000   0.0000   0.0000   0.0000   0.0000   0.0000   0.0000   0.0000
     0.0000   0.0000   0.0000   0.0000

          k = 0.0769-0.3251 0.0000 ( 24783 PWs)   bands (ev):

   -34.7927 -34.7924 -34.7909 -34.7906 -34.7585 -34.7582 -34.7514 -34.7510
   -34.7405 -34.7401 -34.6642 -34.6618 -34.6481 -34.6219 -34.6202 -27.6117
   -27.6113 -27.6108 -27.6104 -27.6036 -27.6026 -27.6016 -27.6007 -27.5969
   -27.5961 -10.0157  -9.5533  -8.7830  -6.6366  -6.0486  -2.0870  -1.4922
    -0.9997  -0.8262  -0.5300   0.0918   0.5774   0.7972   1.4686   2.8208
     3.0176   3.6836   4.2524   4.6455   5.2789   6.1535   7.0092   7.2614
     7.6435   8.0933   8.2845   8.7337   9.2072   9.5050   9.8898  10.1449
    10.1864  10.4689  11.0681  11.2559

     occupation numbers 
     1.0000   1.0000   1.0000   1.0000   1.0000   1.0000   1.0000   1.0000
     1.0000   1.0000   1.0000   1.0000   1.0000   1.0000   1.0000   1.0000
     1.0000   1.0000   1.0000   1.0000   1.0000   1.0000   1.0000   1.0000
     1.0000   1.0000   1.0000   1.0000   1.0000   1.0000   1.0000   1.0000
     1.0000   1.0000   1.0000   1.0000   1.0000   1.0000   1.0000   0.0000
     0.0000   0.0000   0.0000   0.0000   0.0000   0.0000   0.0000   0.0000
     0.0000   0.0000   0.0000   0.0000   0.0000   0.0000   0.0000   0.0000
     0.0000   0.0000   0.0000   0.0000

          k = 0.0769-0.2327 0.0000 ( 24736 PWs)   bands (ev):

   -34.7927 -34.7923 -34.7912 -34.7909 -34.7584 -34.7582 -34.7514 -34.7509
   -34.7406 -34.7402 -34.6643 -34.6618 -34.6480 -34.6221 -34.6203 -27.6122
   -27.6113 -27.6111 -27.6103 -27.6031 -27.6022 -27.6017 -27.6007 -27.5974
   -27.5966 -10.3031  -9.8036  -8.8921  -6.4737  -5.6261  -1.4967  -1.1276
    -0.6731  -0.5037  -0.1801   0.1820   0.6235   1.1086   1.5820   2.5839
     2.9252   3.5522   3.9072   4.4194   4.8177   6.4859   6.7604   6.9357
     7.3641   7.8547   8.4535   8.5219   8.7188   8.9305   9.4291   9.9034
     9.9151  10.3206  10.7172  11.0222

     occupation numbers 
     1.0000   1.0000   1.0000   1.0000   1.0000   1.0000   1.0000   1.0000
     1.0000   1.0000   1.0000   1.0000   1.0000   1.0000   1.0000   1.0000
     1.0000   1.0000   1.0000   1.0000   1.0000   1.0000   1.0000   1.0000
     1.0000   1.0000   1.0000   1.0000   1.0000   1.0000   1.0000   1.0000
     1.0000   1.0000   1.0000   1.0000   1.0000   1.0000   1.0000   0.0000
     0.0000   0.0000   0.0000   0.0000   0.0000   0.0000   0.0000   0.0000
     0.0000   0.0000   0.0000   0.0000   0.0000   0.0000   0.0000   0.0000
     0.0000   0.0000   0.0000   0.0000

          k = 0.0769-0.1403 0.0000 ( 24679 PWs)   bands (ev):

   -34.7927 -34.7923 -34.7914 -34.7912 -34.7584 -34.7582 -34.7513 -34.7509
   -34.7408 -34.7404 -34.6644 -34.6618 -34.6479 -34.6222 -34.6205 -27.6129
   -27.6119 -27.6109 -27.6100 -27.6027 -27.6018 -27.6016 -27.6008 -27.5978
   -27.5970 -10.5025  -9.9826  -8.9859  -6.3979  -5.3091  -0.9086  -0.5896
    -0.3397  -0.1787   0.0541   0.3589   0.6765   1.3828   1.4637   2.4011
     2.8400   3.0990   3.7665   4.0314   4.3923   6.5375   6.5589   7.0653
     7.3646   7.6438   8.1377   8.5144   8.5969   8.9502   8.9556   9.6631
     9.8096  10.0789  10.4211  10.7846

     occupation numbers 
     1.0000   1.0000   1.0000   1.0000   1.0000   1.0000   1.0000   1.0000
     1.0000   1.0000   1.0000   1.0000   1.0000   1.0000   1.0000   1.0000
     1.0000   1.0000   1.0000   1.0000   1.0000   1.0000   1.0000   1.0000
     1.0000   1.0000   1.0000   1.0000   1.0000   1.0000   1.0000   1.0000
     1.0000   1.0000   1.0000   1.0000   1.0000   1.0000   1.0000   0.0000
     0.0000   0.0000   0.0000   0.0000   0.0000   0.0000   0.0000   0.0000
     0.0000   0.0000   0.0000   0.0000   0.0000   0.0000   0.0000   0.0000
     0.0000   0.0000   0.0000   0.0000

          k = 0.0769-0.0480 0.0000 ( 24707 PWs)   bands (ev):

   -34.7927 -34.7923 -34.7916 -34.7914 -34.7584 -34.7582 -34.7513 -34.7508
   -34.7409 -34.7405 -34.6644 -34.6618 -34.6479 -34.6223 -34.6206 -27.6133
   -27.6123 -27.6107 -27.6098 -27.6025 -27.6017 -27.6016 -27.6007 -27.5980
   -27.5972 -10.6049 -10.0761  -9.0394  -6.3728  -5.1473  -0.4754  -0.2248
    -0.1411   0.0987   0.2711   0.4556   0.9250   1.0944   1.4900   2.2973
     2.6758   2.8909   3.6190   3.7817   4.0807   6.3925   6.5182   7.1800
     7.4635   7.6293   7.9495   8.5316   8.6411   8.8639   8.9971   9.3237
     9.8478   9.8788  10.3542  10.4730

     occupation numbers 
     1.0000   1.0000   1.0000   1.0000   1.0000   1.0000   1.0000   1.0000
     1.0000   1.0000   1.0000   1.0000   1.0000   1.0000   1.0000   1.0000
     1.0000   1.0000   1.0000   1.0000   1.0000   1.0000   1.0000   1.0000
     1.0000   1.0000   1.0000   1.0000   1.0000   1.0000   1.0000   1.0000
     1.0000   1.0000   1.0000   1.0000   1.0000   1.0000   1.0000   0.0000
     0.0000   0.0000   0.0000   0.0000   0.0000   0.0000   0.0000   0.0000
     0.0000   0.0000   0.0000   0.0000   0.0000   0.0000   0.0000   0.0000
     0.0000   0.0000   0.0000   0.0000

          k = 0.1538 0.0888 0.0000 ( 24710 PWs)   bands (ev):

   -34.7926 -34.7922 -34.7915 -34.7913 -34.7585 -34.7582 -34.7513 -34.7508
   -34.7408 -34.7404 -34.6643 -34.6618 -34.6479 -34.6222 -34.6206 -27.6136
   -27.6126 -27.6102 -27.6093 -27.6026 -27.6018 -27.6015 -27.6007 -27.5979
   -27.5971 -10.4673  -9.9536  -8.9750  -6.4333  -5.4281  -1.2711  -0.6486
    -0.4000  -0.2917   0.1376   0.2459   1.1116   1.2467   1.4775   2.6817
     3.0565   3.1432   3.8186   4.0689   4.3939   6.4583   6.5835   6.9533
     7.4934   7.6586   8.3533   8.3939   8.6252   8.8720   9.3957   9.5199
     9.7558  10.1985  10.5474  10.6985

     occupation numbers 
     1.0000   1.0000   1.0000   1.0000   1.0000   1.0000   1.0000   1.0000
     1.0000   1.0000   1.0000   1.0000   1.0000   1.0000   1.0000   1.0000
     1.0000   1.0000   1.0000   1.0000   1.0000   1.0000   1.0000   1.0000
     1.0000   1.0000   1.0000   1.0000   1.0000   1.0000   1.0000   1.0000
     1.0000   1.0000   1.0000   1.0000   1.0000   1.0000   1.0000   0.0000
     0.0000   0.0000   0.0000   0.0000   0.0000   0.0000   0.0000   0.0000
     0.0000   0.0000   0.0000   0.0000   0.0000   0.0000   0.0000   0.0000
     0.0000   0.0000   0.0000   0.0000

          k = 0.1538 0.1812 0.0000 ( 24753 PWs)   bands (ev):

   -34.7926 -34.7922 -34.7914 -34.7911 -34.7585 -34.7582 -34.7513 -34.7508
   -34.7407 -34.7403 -34.6642 -34.6618 -34.6479 -34.6220 -34.6206 -27.6135
   -27.6125 -27.6101 -27.6092 -27.6028 -27.6019 -27.6015 -27.6007 -27.5978
   -27.5970 -10.3232  -9.8256  -8.9105  -6.4982  -5.6677  -1.6100  -1.0344
    -0.7734  -0.3510  -0.1625   0.2630   0.7690   1.2275   1.6495   2.7084
     3.1976   3.4074   3.9302   4.5524   4.6057   6.4241   6.7430   6.9522
     7.4063   7.8197   8.3401   8.4733   8.8491   8.9668   9.4158   9.8627
    10.0486  10.1790  10.7339  11.0035

     occupation numbers 
     1.0000   1.0000   1.0000   1.0000   1.0000   1.0000   1.0000   1.0000
     1.0000   1.0000   1.0000   1.0000   1.0000   1.0000   1.0000   1.0000
     1.0000   1.0000   1.0000   1.0000   1.0000   1.0000   1.0000   1.0000
     1.0000   1.0000   1.0000   1.0000   1.0000   1.0000   1.0000   1.0000
     1.0000   1.0000   1.0000   1.0000   1.0000   1.0000   1.0000   0.0000
     0.0000   0.0000   0.0000   0.0000   0.0000   0.0000   0.0000   0.0000
     0.0000   0.0000   0.0000   0.0000   0.0000   0.0000   0.0000   0.0000
     0.0000   0.0000   0.0000   0.0000

          k = 0.1538 0.2736 0.0000 ( 24738 PWs)   bands (ev):

   -34.7926 -34.7922 -34.7911 -34.7909 -34.7585 -34.7582 -34.7513 -34.7509
   -34.7406 -34.7402 -34.6642 -34.6618 -34.6480 -34.6218 -34.6205 -27.6132
   -27.6123 -27.6100 -27.6092 -27.6032 -27.6021 -27.6016 -27.6007 -27.5974
   -27.5966 -10.0867  -9.6193  -8.8168  -6.6218  -6.0269  -1.8447  -1.6965
    -0.9186  -0.7234  -0.4653  -0.0224   0.7190   1.2858   1.4402   2.8178
     3.4195   3.5995   4.0772   4.8667   5.1027   6.6126   6.6838   7.1063
     7.4638   8.0813   8.1367   8.4879   9.2161   9.5184   9.8746   9.9352
    10.2238  10.5946  10.9066  10.9802

     occupation numbers 
     1.0000   1.0000   1.0000   1.0000   1.0000   1.0000   1.0000   1.0000
     1.0000   1.0000   1.0000   1.0000   1.0000   1.0000   1.0000   1.0000
     1.0000   1.0000   1.0000   1.0000   1.0000   1.0000   1.0000   1.0000
     1.0000   1.0000   1.0000   1.0000   1.0000   1.0000   1.0000   1.0000
     1.0000   1.0000   1.0000   1.0000   1.0000   1.0000   1.0000   0.0000
     0.0000   0.0000   0.0000   0.0000   0.0000   0.0000   0.0000   0.0000
     0.0000   0.0000   0.0000   0.0000   0.0000   0.0000   0.0000   0.0000
     0.0000   0.0000   0.0000   0.0000

          k = 0.1538 0.3660 0.0000 ( 24767 PWs)   bands (ev):

   -34.7926 -34.7922 -34.7908 -34.7906 -34.7585 -34.7582 -34.7514 -34.7509
   -34.7404 -34.7400 -34.6641 -34.6619 -34.6481 -34.6216 -34.6204 -27.6128
   -27.6120 -27.6100 -27.6092 -27.6036 -27.6025 -27.6015 -27.6006 -27.5970
   -27.5962  -9.7702  -9.3542  -8.7220  -6.8225  -6.4508  -2.2397  -1.9497
    -1.2512  -1.0462  -0.7070  -0.2640   0.7555   0.9601   1.3683   2.9425
     3.4803   3.6669   4.4354   5.0576   5.4646   6.3746   7.0986   7.5349
     7.6313   8.0818   8.5533   8.7220   9.4524   9.5951  10.2846  10.3823
    10.6992  10.8766  10.9607  11.6336

     occupation numbers 
     1.0000   1.0000   1.0000   1.0000   1.0000   1.0000   1.0000   1.0000
     1.0000   1.0000   1.0000   1.0000   1.0000   1.0000   1.0000   1.0000
     1.0000   1.0000   1.0000   1.0000   1.0000   1.0000   1.0000   1.0000
     1.0000   1.0000   1.0000   1.0000   1.0000   1.0000   1.0000   1.0000
     1.0000   1.0000   1.0000   1.0000   1.0000   1.0000   1.0000   0.0000
     0.0000   0.0000   0.0000   0.0000   0.0000   0.0000   0.0000   0.0000
     0.0000   0.0000   0.0000   0.0000   0.0000   0.0000   0.0000   0.0000
     0.0000   0.0000   0.0000   0.0000

          k = 0.1538 0.4583 0.0000 ( 24785 PWs)   bands (ev):

   -34.7926 -34.7922 -34.7906 -34.7904 -34.7585 -34.7583 -34.7515 -34.7510
   -34.7403 -34.7399 -34.6640 -34.6619 -34.6481 -34.6215 -34.6202 -27.6125
   -27.6117 -27.6101 -27.6093 -27.6040 -27.6029 -27.6015 -27.6005 -27.5966
   -27.5958  -9.3995  -9.0715  -8.6742  -7.1029  -6.8340  -2.6106  -1.9721
    -1.4868  -1.4222  -0.7844  -0.4202   0.5437   0.8511   1.3100   2.9211
     3.4716   3.8100   4.5859   5.1486   5.7222   6.1648   7.4467   7.9205
     8.2552   8.3182   8.9874   9.0671   9.6589   9.7218  10.2438  10.6039
    10.8838  11.0979  11.3394  11.4997

     occupation numbers 
     1.0000   1.0000   1.0000   1.0000   1.0000   1.0000   1.0000   1.0000
     1.0000   1.0000   1.0000   1.0000   1.0000   1.0000   1.0000   1.0000
     1.0000   1.0000   1.0000   1.0000   1.0000   1.0000   1.0000   1.0000
     1.0000   1.0000   1.0000   1.0000   1.0000   1.0000   1.0000   1.0000
     1.0000   1.0000   1.0000   1.0000   1.0000   1.0000   1.0000   0.0000
     0.0000   0.0000   0.0000   0.0000   0.0000   0.0000   0.0000   0.0000
     0.0000   0.0000   0.0000   0.0000   0.0000   0.0000   0.0000   0.0000
     0.0000   0.0000   0.0000   0.0000

          k = 0.1538 0.5507 0.0000 ( 24801 PWs)   bands (ev):

   -34.7926 -34.7922 -34.7904 -34.7902 -34.7585 -34.7583 -34.7515 -34.7511
   -34.7402 -34.7398 -34.6640 -34.6619 -34.6482 -34.6215 -34.6200 -27.6122
   -27.6114 -27.6103 -27.6094 -27.6042 -27.6032 -27.6015 -27.6005 -27.5963
   -27.5955  -9.0306  -8.8589  -8.7491  -7.3583  -7.0597  -2.7965  -1.9367
    -1.8170  -1.3979  -0.7681  -0.6678   0.4943   0.7994   1.2105   2.9849
     3.4444   3.7080   4.7538   5.1554   5.8022   6.0363   7.4882   8.4335
     8.7353   8.9160   9.0558   9.5319   9.7333   9.8345  10.2491  10.4393
    10.5831  10.6323  11.0115  11.4771

     occupation numbers 
     1.0000   1.0000   1.0000   1.0000   1.0000   1.0000   1.0000   1.0000
     1.0000   1.0000   1.0000   1.0000   1.0000   1.0000   1.0000   1.0000
     1.0000   1.0000   1.0000   1.0000   1.0000   1.0000   1.0000   1.0000
     1.0000   1.0000   1.0000   1.0000   1.0000   1.0000   1.0000   1.0000
     1.0000   1.0000   1.0000   1.0000   1.0000   1.0000   1.0000   0.0000
     0.0000   0.0000   0.0000   0.0000   0.0000   0.0000   0.0000   0.0000
     0.0000   0.0000   0.0000   0.0000   0.0000   0.0000   0.0000   0.0000
     0.0000   0.0000   0.0000   0.0000

          k = 0.1538 0.6431 0.0000 ( 24783 PWs)   bands (ev):

   -34.7926 -34.7922 -34.7904 -34.7902 -34.7585 -34.7582 -34.7515 -34.7511
   -34.7402 -34.7398 -34.6640 -34.6619 -34.6482 -34.6216 -34.6199 -27.6119
   -27.6111 -27.6105 -27.6096 -27.6043 -27.6033 -27.6015 -27.6005 -27.5962
   -27.5954  -9.0074  -8.8481  -8.7595  -7.3647  -7.0575  -2.8022  -1.9783
    -1.7804  -1.3882  -0.8439  -0.5978   0.5081   0.7591   1.2123   2.9871
     3.4255   3.6766   4.7412   5.1345   5.7773   6.0118   7.4658   8.4456
     8.7732   8.8073   8.8449   9.4379   9.7823   9.8058  10.2755  10.4306
    10.5518  10.8370  11.0706  11.4792

     occupation numbers 
     1.0000   1.0000   1.0000   1.0000   1.0000   1.0000   1.0000   1.0000
     1.0000   1.0000   1.0000   1.0000   1.0000   1.0000   1.0000   1.0000
     1.0000   1.0000   1.0000   1.0000   1.0000   1.0000   1.0000   1.0000
     1.0000   1.0000   1.0000   1.0000   1.0000   1.0000   1.0000   1.0000
     1.0000   1.0000   1.0000   1.0000   1.0000   1.0000   1.0000   0.0000
     0.0000   0.0000   0.0000   0.0000   0.0000   0.0000   0.0000   0.0000
     0.0000   0.0000   0.0000   0.0000   0.0000   0.0000   0.0000   0.0000
     0.0000   0.0000   0.0000   0.0000

          k = 0.1538-0.4654 0.0000 ( 24791 PWs)   bands (ev):

   -34.7926 -34.7923 -34.7905 -34.7903 -34.7585 -34.7582 -34.7515 -34.7511
   -34.7403 -34.7399 -34.6641 -34.6618 -34.6482 -34.6217 -34.6198 -27.6117
   -27.6109 -27.6108 -27.6099 -27.6042 -27.6032 -27.6016 -27.6006 -27.5963
   -27.5955  -9.3720  -9.0474  -8.6693  -7.1129  -6.8236  -2.6294  -1.9978
    -1.4914  -1.3978  -0.8403  -0.3501   0.5359   0.7841   1.2927   2.9131
     3.4234   3.7142   4.5466   5.1087   5.6429   6.1089   7.3870   7.7685
     8.1422   8.3549   8.8758   9.1031   9.5577   9.7598  10.2225  10.6190
    10.9335  11.0991  11.3548  11.6399

     occupation numbers 
     1.0000   1.0000   1.0000   1.0000   1.0000   1.0000   1.0000   1.0000
     1.0000   1.0000   1.0000   1.0000   1.0000   1.0000   1.0000   1.0000
     1.0000   1.0000   1.0000   1.0000   1.0000   1.0000   1.0000   1.0000
     1.0000   1.0000   1.0000   1.0000   1.0000   1.0000   1.0000   1.0000
     1.0000   1.0000   1.0000   1.0000   1.0000   1.0000   1.0000   0.0000
     0.0000   0.0000   0.0000   0.0000   0.0000   0.0000   0.0000   0.0000
     0.0000   0.0000   0.0000   0.0000   0.0000   0.0000   0.0000   0.0000
     0.0000   0.0000   0.0000   0.0000

          k = 0.1538-0.3731 0.0000 ( 24795 PWs)   bands (ev):

   -34.7927 -34.7923 -34.7907 -34.7905 -34.7585 -34.7582 -34.7515 -34.7510
   -34.7404 -34.7400 -34.6641 -34.6618 -34.6481 -34.6219 -34.6199 -27.6116
   -27.6112 -27.6107 -27.6102 -27.6039 -27.6029 -27.6016 -27.6007 -27.5966
   -27.5957  -9.7443  -9.3278  -8.7076  -6.8202  -6.4319  -2.2717  -1.9525
    -1.2645  -1.0514  -0.7415  -0.1876   0.6929   0.8969   1.3169   2.8793
     3.4285   3.5581   4.3305   5.0559   5.3756   6.3021   6.9478   7.5402
     7.5824   8.0719   8.5763   8.6582   9.4591   9.6406  10.3925  10.4715
    10.7841  10.9522  11.1214  11.6998

     occupation numbers 
     1.0000   1.0000   1.0000   1.0000   1.0000   1.0000   1.0000   1.0000
     1.0000   1.0000   1.0000   1.0000   1.0000   1.0000   1.0000   1.0000
     1.0000   1.0000   1.0000   1.0000   1.0000   1.0000   1.0000   1.0000
     1.0000   1.0000   1.0000   1.0000   1.0000   1.0000   1.0000   1.0000
     1.0000   1.0000   1.0000   1.0000   1.0000   1.0000   1.0000   0.0000
     0.0000   0.0000   0.0000   0.0000   0.0000   0.0000   0.0000   0.0000
     0.0000   0.0000   0.0000   0.0000   0.0000   0.0000   0.0000   0.0000
     0.0000   0.0000   0.0000   0.0000

          k = 0.1538-0.2807 0.0000 ( 24784 PWs)   bands (ev):

   -34.7927 -34.7923 -34.7910 -34.7908 -34.7585 -34.7582 -34.7514 -34.7510
   -34.7405 -34.7401 -34.6642 -34.6618 -34.6481 -34.6221 -34.6201 -27.6121
   -27.6111 -27.6110 -27.6101 -27.6034 -27.6025 -27.6017 -27.6008 -27.5970
   -27.5962 -10.0655  -9.5964  -8.8002  -6.6073  -5.9991  -1.8248  -1.7317
    -0.9025  -0.7857  -0.4533  -0.0021   0.6292   1.2052   1.3643   2.6622
     3.3630   3.5792   3.9410   4.9130   5.0657   6.5427   6.6120   7.1006
     7.4804   8.0992   8.1434   8.4373   9.2801   9.6872   9.9812  10.0094
    10.3069  10.5289  10.8527  11.0351

     occupation numbers 
     1.0000   1.0000   1.0000   1.0000   1.0000   1.0000   1.0000   1.0000
     1.0000   1.0000   1.0000   1.0000   1.0000   1.0000   1.0000   1.0000
     1.0000   1.0000   1.0000   1.0000   1.0000   1.0000   1.0000   1.0000
     1.0000   1.0000   1.0000   1.0000   1.0000   1.0000   1.0000   1.0000
     1.0000   1.0000   1.0000   1.0000   1.0000   1.0000   1.0000   0.0000
     0.0000   0.0000   0.0000   0.0000   0.0000   0.0000   0.0000   0.0000
     0.0000   0.0000   0.0000   0.0000   0.0000   0.0000   0.0000   0.0000
     0.0000   0.0000   0.0000   0.0000

          k = 0.1538-0.1883 0.0000 ( 24741 PWs)   bands (ev):

   -34.7927 -34.7923 -34.7912 -34.7910 -34.7585 -34.7582 -34.7514 -34.7509
   -34.7407 -34.7403 -34.6643 -34.6618 -34.6480 -34.6222 -34.6203 -27.6126
   -27.6117 -27.6108 -27.6099 -27.6030 -27.6021 -27.6017 -27.6009 -27.5974
   -27.5966 -10.3083  -9.8092  -8.8969  -6.4810  -5.6365  -1.5577  -1.0621
    -0.7179  -0.4243  -0.2055   0.2373   0.6640   1.1348   1.5954   2.5553
     3.0561   3.4749   3.8832   4.5393   4.7052   6.4333   6.7572   6.9283
     7.3902   7.8378   8.3769   8.5192   8.8683   8.9491   9.4342   9.9007
     9.9591  10.2401  10.7230  11.0225

     occupation numbers 
     1.0000   1.0000   1.0000   1.0000   1.0000   1.0000   1.0000   1.0000
     1.0000   1.0000   1.0000   1.0000   1.0000   1.0000   1.0000   1.0000
     1.0000   1.0000   1.0000   1.0000   1.0000   1.0000   1.0000   1.0000
     1.0000   1.0000   1.0000   1.0000   1.0000   1.0000   1.0000   1.0000
     1.0000   1.0000   1.0000   1.0000   1.0000   1.0000   1.0000   0.0000
     0.0000   0.0000   0.0000   0.0000   0.0000   0.0000   0.0000   0.0000
     0.0000   0.0000   0.0000   0.0000   0.0000   0.0000   0.0000   0.0000
     0.0000   0.0000   0.0000   0.0000

          k = 0.1538-0.0959 0.0000 ( 24705 PWs)   bands (ev):

   -34.7926 -34.7923 -34.7915 -34.7913 -34.7584 -34.7582 -34.7513 -34.7509
   -34.7408 -34.7404 -34.6643 -34.6618 -34.6479 -34.6223 -34.6204 -27.6131
   -27.6122 -27.6106 -27.6097 -27.6026 -27.6019 -27.6016 -27.6009 -27.5977
   -27.5969 -10.4597  -9.9450  -8.9674  -6.4224  -5.4069  -1.1955  -0.5387
    -0.4586  -0.3662   0.0045   0.2419   0.9939   1.2210   1.4805   2.5429
     3.0172   3.2242   3.7380   4.1128   4.4840   6.4937   6.5976   6.9755
     7.5430   7.6742   8.1676   8.4409   8.7212   8.8643   9.1978   9.5868
     9.8114  10.0960  10.6264  10.7730

     occupation numbers 
     1.0000   1.0000   1.0000   1.0000   1.0000   1.0000   1.0000   1.0000
     1.0000   1.0000   1.0000   1.0000   1.0000   1.0000   1.0000   1.0000
     1.0000   1.0000   1.0000   1.0000   1.0000   1.0000   1.0000   1.0000
     1.0000   1.0000   1.0000   1.0000   1.0000   1.0000   1.0000   1.0000
     1.0000   1.0000   1.0000   1.0000   1.0000   1.0000   1.0000   0.0000
     0.0000   0.0000   0.0000   0.0000   0.0000   0.0000   0.0000   0.0000
     0.0000   0.0000   0.0000   0.0000   0.0000   0.0000   0.0000   0.0000
     0.0000   0.0000   0.0000   0.0000

          k = 0.1538-0.0036 0.0000 ( 24712 PWs)   bands (ev):

   -34.7926 -34.7922 -34.7916 -34.7914 -34.7584 -34.7582 -34.7513 -34.7508
   -34.7408 -34.7404 -34.6643 -34.6618 -34.6479 -34.6223 -34.6206 -27.6135
   -27.6125 -27.6104 -27.6095 -27.6025 -27.6018 -27.6016 -27.6008 -27.5979
   -27.5971 -10.5133  -9.9942  -8.9954  -6.4100  -5.3367  -0.9721  -0.6165
    -0.4047  -0.2105   0.2218   0.4063   0.8304   1.4126   1.5535   2.7030
     2.7370   3.1060   3.8457   3.8742   4.3211   6.5221   6.5451   7.1230
     7.2643   7.6066   8.2733   8.5318   8.6193   8.7897   9.0967   9.5025
    10.0071  10.0918  10.5649  10.7286

     occupation numbers 
     1.0000   1.0000   1.0000   1.0000   1.0000   1.0000   1.0000   1.0000
     1.0000   1.0000   1.0000   1.0000   1.0000   1.0000   1.0000   1.0000
     1.0000   1.0000   1.0000   1.0000   1.0000   1.0000   1.0000   1.0000
     1.0000   1.0000   1.0000   1.0000   1.0000   1.0000   1.0000   1.0000
     1.0000   1.0000   1.0000   1.0000   1.0000   1.0000   1.0000   0.0000
     0.0000   0.0000   0.0000   0.0000   0.0000   0.0000   0.0000   0.0000
     0.0000   0.0000   0.0000   0.0000   0.0000   0.0000   0.0000   0.0000
     0.0000   0.0000   0.0000   0.0000

          k = 0.2308 0.1332 0.0000 ( 24721 PWs)   bands (ev):

   -34.7924 -34.7921 -34.7914 -34.7912 -34.7585 -34.7582 -34.7513 -34.7508
   -34.7407 -34.7403 -34.6642 -34.6619 -34.6479 -34.6220 -34.6206 -27.6139
   -27.6129 -27.6096 -27.6088 -27.6027 -27.6019 -27.6016 -27.6008 -27.5977
   -27.5970 -10.2404  -9.7558  -8.8839  -6.5670  -5.8301  -1.9184  -1.0291
    -0.8432  -0.6076  -0.0819   0.2434   0.7306   1.1053   1.6517   2.8916
     3.2589   3.5264   4.2739   4.4051   4.8224   6.1585   6.8220   7.0891
     7.6775   7.9665   8.3504   8.6580   8.8126   9.0043   9.7506   9.8469
     9.9490  10.3116  10.5036  11.1961

     occupation numbers 
     1.0000   1.0000   1.0000   1.0000   1.0000   1.0000   1.0000   1.0000
     1.0000   1.0000   1.0000   1.0000   1.0000   1.0000   1.0000   1.0000
     1.0000   1.0000   1.0000   1.0000   1.0000   1.0000   1.0000   1.0000
     1.0000   1.0000   1.0000   1.0000   1.0000   1.0000   1.0000   1.0000
     1.0000   1.0000   1.0000   1.0000   1.0000   1.0000   1.0000   0.0000
     0.0000   0.0000   0.0000   0.0000   0.0000   0.0000   0.0000   0.0000
     0.0000   0.0000   0.0000   0.0000   0.0000   0.0000   0.0000   0.0000
     0.0000   0.0000   0.0000   0.0000

          k = 0.2308 0.2256 0.0000 ( 24742 PWs)   bands (ev):

   -34.7924 -34.7921 -34.7913 -34.7910 -34.7585 -34.7582 -34.7513 -34.7508
   -34.7406 -34.7402 -34.6641 -34.6619 -34.6479 -34.6218 -34.6206 -27.6138
   -27.6129 -27.6095 -27.6086 -27.6029 -27.6020 -27.6016 -27.6008 -27.5975
   -27.5968 -10.0561  -9.5983  -8.8207  -6.6852  -6.0976  -2.1606  -1.4321
    -0.9704  -0.7302  -0.4485   0.1956   0.7147   0.9593   1.6305   3.0293
     3.2678   3.6411   4.2726   4.8357   5.1224   6.1140   6.9716   7.2281
     7.6908   7.9914   8.2370   8.7047   9.1872   9.6421   9.7978  10.0225
    10.2271  10.3687  11.1447  11.2357

     occupation numbers 
     1.0000   1.0000   1.0000   1.0000   1.0000   1.0000   1.0000   1.0000
     1.0000   1.0000   1.0000   1.0000   1.0000   1.0000   1.0000   1.0000
     1.0000   1.0000   1.0000   1.0000   1.0000   1.0000   1.0000   1.0000
     1.0000   1.0000   1.0000   1.0000   1.0000   1.0000   1.0000   1.0000
     1.0000   1.0000   1.0000   1.0000   1.0000   1.0000   1.0000   0.0000
     0.0000   0.0000   0.0000   0.0000   0.0000   0.0000   0.0000   0.0000
     0.0000   0.0000   0.0000   0.0000   0.0000   0.0000   0.0000   0.0000
     0.0000   0.0000   0.0000   0.0000

          k = 0.2308 0.3180 0.0000 ( 24718 PWs)   bands (ev):

   -34.7924 -34.7921 -34.7910 -34.7908 -34.7585 -34.7583 -34.7513 -34.7509
   -34.7405 -34.7401 -34.6641 -34.6619 -34.6480 -34.6216 -34.6205 -27.6135
   -27.6126 -27.6095 -27.6086 -27.6033 -27.6022 -27.6016 -27.6008 -27.5972
   -27.5964  -9.7877  -9.3753  -8.7428  -6.8545  -6.4561  -2.3020  -1.8753
    -1.2224  -0.9714  -0.7694  -0.1354   0.7741   1.0054   1.4681   3.0920
     3.5176   3.6910   4.3809   5.2155   5.3472   6.3894   6.9922   7.5026
     7.5677   8.0405   8.5234   8.6552   9.3839   9.6364  10.2994  10.3447
    10.7687  10.9172  11.0724  11.5632

     occupation numbers 
     1.0000   1.0000   1.0000   1.0000   1.0000   1.0000   1.0000   1.0000
     1.0000   1.0000   1.0000   1.0000   1.0000   1.0000   1.0000   1.0000
     1.0000   1.0000   1.0000   1.0000   1.0000   1.0000   1.0000   1.0000
     1.0000   1.0000   1.0000   1.0000   1.0000   1.0000   1.0000   1.0000
     1.0000   1.0000   1.0000   1.0000   1.0000   1.0000   1.0000   0.0000
     0.0000   0.0000   0.0000   0.0000   0.0000   0.0000   0.0000   0.0000
     0.0000   0.0000   0.0000   0.0000   0.0000   0.0000   0.0000   0.0000
     0.0000   0.0000   0.0000   0.0000

          k = 0.2308 0.4104 0.0000 ( 24758 PWs)   bands (ev):

   -34.7924 -34.7921 -34.7908 -34.7906 -34.7585 -34.7583 -34.7514 -34.7510
   -34.7404 -34.7400 -34.6640 -34.6619 -34.6481 -34.6215 -34.6204 -27.6130
   -27.6122 -27.6097 -27.6088 -27.6036 -27.6025 -27.6016 -27.6007 -27.5969
   -27.5961  -9.4542  -9.1142  -8.6759  -7.0631  -6.8598  -2.3778  -2.2620
    -1.4184  -1.2051  -1.0930  -0.3737   0.7213   1.0491   1.2496   3.2758
     3.5100   3.7651   4.7193   5.2885   5.5777   6.7944   7.0197   7.5958
     7.9781   8.3293   8.5698   8.9945   9.4723   9.6460  10.3543  10.5948
    10.7329  11.0430  11.4507  11.6356

     occupation numbers 
     1.0000   1.0000   1.0000   1.0000   1.0000   1.0000   1.0000   1.0000
     1.0000   1.0000   1.0000   1.0000   1.0000   1.0000   1.0000   1.0000
     1.0000   1.0000   1.0000   1.0000   1.0000   1.0000   1.0000   1.0000
     1.0000   1.0000   1.0000   1.0000   1.0000   1.0000   1.0000   1.0000
     1.0000   1.0000   1.0000   1.0000   1.0000   1.0000   1.0000   0.0000
     0.0000   0.0000   0.0000   0.0000   0.0000   0.0000   0.0000   0.0000
     0.0000   0.0000   0.0000   0.0000   0.0000   0.0000   0.0000   0.0000
     0.0000   0.0000   0.0000   0.0000

          k = 0.2308 0.5027 0.0000 ( 24785 PWs)   bands (ev):

   -34.7924 -34.7921 -34.7906 -34.7904 -34.7585 -34.7583 -34.7515 -34.7510
   -34.7403 -34.7399 -34.6640 -34.6619 -34.6481 -34.6215 -34.6202 -27.6125
   -27.6116 -27.6100 -27.6092 -27.6039 -27.6028 -27.6016 -27.6007 -27.5966
   -27.5958  -9.0972  -8.8715  -8.6613  -7.2963  -7.1961  -2.5934  -2.2928
    -1.7168  -1.3885  -1.1195  -0.5211   0.5022   1.0123   1.2526   3.2373
     3.5878   3.8396   4.8746   5.3513   5.7160   6.6387   7.7257   7.9020
     8.4406   8.5993   8.8049   9.3847   9.6535   9.8176   9.8699  10.2090
    10.5893  10.7453  11.1311  11.3036

     occupation numbers 
     1.0000   1.0000   1.0000   1.0000   1.0000   1.0000   1.0000   1.0000
     1.0000   1.0000   1.0000   1.0000   1.0000   1.0000   1.0000   1.0000
     1.0000   1.0000   1.0000   1.0000   1.0000   1.0000   1.0000   1.0000
     1.0000   1.0000   1.0000   1.0000   1.0000   1.0000   1.0000   1.0000
     1.0000   1.0000   1.0000   1.0000   1.0000   1.0000   1.0000   0.0000
     0.0000   0.0000   0.0000   0.0000   0.0000   0.0000   0.0000   0.0000
     0.0000   0.0000   0.0000   0.0000   0.0000   0.0000   0.0000   0.0000
     0.0000   0.0000   0.0000   0.0000

          k = 0.2308 0.5951 0.0000 ( 24807 PWs)   bands (ev):

   -34.7925 -34.7921 -34.7905 -34.7903 -34.7585 -34.7583 -34.7515 -34.7510
   -34.7402 -34.7398 -34.6640 -34.6619 -34.6482 -34.6216 -34.6200 -27.6119
   -27.6111 -27.6104 -27.6096 -27.6041 -27.6031 -27.6016 -27.6007 -27.5963
   -27.5955  -8.8191  -8.7674  -8.7428  -7.4482  -7.3101  -2.7012  -2.1837
    -1.9812  -1.4447  -0.9639  -0.6847   0.4002   1.0362   1.2147   3.3069
     3.4617   3.8614   5.0168   5.2287   5.7686   6.5617   7.7439   8.5741
     8.5930   8.8793   8.9917   9.2152   9.5562   9.6749   9.8689  10.1803
    10.4619  10.6184  10.7068  11.1580

     occupation numbers 
     1.0000   1.0000   1.0000   1.0000   1.0000   1.0000   1.0000   1.0000
     1.0000   1.0000   1.0000   1.0000   1.0000   1.0000   1.0000   1.0000
     1.0000   1.0000   1.0000   1.0000   1.0000   1.0000   1.0000   1.0000
     1.0000   1.0000   1.0000   1.0000   1.0000   1.0000   1.0000   1.0000
     1.0000   1.0000   1.0000   1.0000   1.0000   1.0000   1.0000   0.0000
     0.0000   0.0000   0.0000   0.0000   0.0000   0.0000   0.0000   0.0000
     0.0000   0.0000   0.0000   0.0000   0.0000   0.0000   0.0000   0.0000
     0.0000   0.0000   0.0000   0.0000

          k = 0.2308 0.6875 0.0000 ( 24785 PWs)   bands (ev):

   -34.7925 -34.7921 -34.7905 -34.7903 -34.7585 -34.7583 -34.7515 -34.7511
   -34.7402 -34.7398 -34.6640 -34.6619 -34.6482 -34.6217 -34.6198 -27.6116
   -27.6108 -27.6107 -27.6099 -27.6041 -27.6032 -27.6016 -27.6008 -27.5962
   -27.5954  -9.0600  -8.8433  -8.6600  -7.3123  -7.1899  -2.6097  -2.3225
    -1.6949  -1.3995  -1.1512  -0.4833   0.4818   0.9541   1.2483   3.2488
     3.5388   3.7281   4.8594   5.3009   5.6196   6.5911   7.6041   7.6765
     8.4860   8.6039   8.7517   9.3804   9.6836   9.8018   9.9238  10.4941
    10.6816  10.7322  11.1075  11.3199

     occupation numbers 
     1.0000   1.0000   1.0000   1.0000   1.0000   1.0000   1.0000   1.0000
     1.0000   1.0000   1.0000   1.0000   1.0000   1.0000   1.0000   1.0000
     1.0000   1.0000   1.0000   1.0000   1.0000   1.0000   1.0000   1.0000
     1.0000   1.0000   1.0000   1.0000   1.0000   1.0000   1.0000   1.0000
     1.0000   1.0000   1.0000   1.0000   1.0000   1.0000   1.0000   0.0000
[...]

   -35.7379 -35.7370 -35.7242 -35.7235 -35.6910 -35.6904 -35.6863 -35.6854
   -35.6656 -35.6647 -35.3113 -35.3009 -35.2931 -35.2630 -35.2549 -28.6888
   -28.6864 -28.6800 -28.6778 -28.6752 -28.6731 -28.6573 -28.6551 -28.6440
   -28.6420 -10.6801 -10.5648 -10.3022  -8.8378  -8.2431  -4.0991  -2.6857
    -2.4403  -2.3653  -1.6632  -1.2014   0.1931   0.3598   0.6987   2.9954
     3.6493   3.7451   5.3482   5.4873   6.1661   6.3590   7.7953   8.5596
     8.8817   9.1454   9.4092   9.6155  10.1796  10.2632  10.7505  11.3225
    11.3908  11.8607  12.1299  12.2186

     occupation numbers 
     1.0000   1.0000   1.0000   1.0000   1.0000   1.0000   1.0000   1.0000
     1.0000   1.0000   1.0000   1.0000   1.0000   1.0000   1.0000   1.0000
     1.0000   1.0000   1.0000   1.0000   1.0000   1.0000   1.0000   1.0000
     1.0000   1.0000   1.0000   1.0000   1.0000   1.0000   1.0000   1.0000
     1.0000   1.0000   1.0000   1.0000   1.0000   1.0000   1.0000   0.0000
     0.0000   0.0000   0.0000   0.0000   0.0000   0.0000   0.0000   0.0000
     0.0000   0.0000   0.0000   0.0000   0.0000   0.0000   0.0000   0.0000
     0.0000   0.0000   0.0000   0.0000

          k = 0.4615 0.3588 0.0000 ( 24772 PWs)   bands (ev):

   -35.7356 -35.7347 -35.7230 -35.7223 -35.6906 -35.6900 -35.6854 -35.6844
   -35.6655 -35.6647 -35.3087 -35.3020 -35.2963 -35.2585 -35.2524 -28.6885
   -28.6861 -28.6788 -28.6766 -28.6728 -28.6706 -28.6584 -28.6562 -28.6466
   -28.6446 -10.5484 -10.5065 -10.3380  -8.8813  -8.3301  -4.0855  -2.7156
    -2.6628  -2.3858  -1.7576  -1.2450   0.1936   0.2817   0.8695   3.2884
     3.4330   3.7593   5.4012   5.5866   6.3286   6.3510   7.8873   8.7653
     8.9671   9.0592   9.2587   9.8390   9.9588  10.2651  10.7236  11.1143
    11.2687  11.5806  12.1127  12.1540

     occupation numbers 
     1.0000   1.0000   1.0000   1.0000   1.0000   1.0000   1.0000   1.0000
     1.0000   1.0000   1.0000   1.0000   1.0000   1.0000   1.0000   1.0000
     1.0000   1.0000   1.0000   1.0000   1.0000   1.0000   1.0000   1.0000
     1.0000   1.0000   1.0000   1.0000   1.0000   1.0000   1.0000   1.0000
     1.0000   1.0000   1.0000   1.0000   1.0000   1.0000   1.0000   0.0000
     0.0000   0.0000   0.0000   0.0000   0.0000   0.0000   0.0000   0.0000
     0.0000   0.0000   0.0000   0.0000   0.0000   0.0000   0.0000   0.0000
     0.0000   0.0000   0.0000   0.0000

          k = 0.4615 0.4512 0.0000 ( 24755 PWs)   bands (ev):

   -35.7339 -35.7331 -35.7241 -35.7234 -35.6888 -35.6881 -35.6847 -35.6839
   -35.6635 -35.6627 -35.3072 -35.3065 -35.3025 -35.2576 -35.2538 -28.6835
   -28.6811 -28.6768 -28.6747 -28.6649 -28.6628 -28.6574 -28.6552 -28.6479
   -28.6458 -10.5623 -10.4510 -10.2000  -8.8601  -8.4603  -3.9561  -3.0395
    -2.8616  -2.3776  -1.7706  -1.5774   0.1532   0.4359   1.0387   3.2866
     3.7365   3.8156   5.3193   5.8517   6.2896   6.8636   8.0730   8.6471
     8.9385   9.2224   9.3836   9.6482   9.9929  10.2369  10.5866  10.6576
    10.8502  11.1926  11.4180  12.0391

     occupation numbers 
     1.0000   1.0000   1.0000   1.0000   1.0000   1.0000   1.0000   1.0000
     1.0000   1.0000   1.0000   1.0000   1.0000   1.0000   1.0000   1.0000
     1.0000   1.0000   1.0000   1.0000   1.0000   1.0000   1.0000   1.0000
     1.0000   1.0000   1.0000   1.0000   1.0000   1.0000   1.0000   1.0000
     1.0000   1.0000   1.0000   1.0000   1.0000   1.0000   1.0000   0.0000
     0.0000   0.0000   0.0000   0.0000   0.0000   0.0000   0.0000   0.0000
     0.0000   0.0000   0.0000   0.0000   0.0000   0.0000   0.0000   0.0000
     0.0000   0.0000   0.0000   0.0000

          k = 0.4615 0.5436 0.0000 ( 24779 PWs)   bands (ev):

   -35.7301 -35.7293 -35.7170 -35.7162 -35.6890 -35.6883 -35.6826 -35.6818
   -35.6637 -35.6629 -35.3056 -35.3013 -35.2996 -35.2556 -35.2524 -28.6818
   -28.6795 -28.6778 -28.6758 -28.6614 -28.6593 -28.6564 -28.6542 -28.6521
   -28.6500 -10.5869 -10.4092 -10.0541  -8.7858  -8.6091  -3.7436  -3.4418
    -2.8506  -2.3966  -2.1001  -1.5598   0.1156   0.6810   0.8940   3.4973
     3.6901   3.8856   5.5206   5.9476   6.1541   7.6703   8.3457   8.4179
     8.7194   9.0170   9.2585   9.5602   9.9810  10.1987  10.4359  10.5795
    10.7029  11.0869  11.3069  11.6587

     occupation numbers 
     1.0000   1.0000   1.0000   1.0000   1.0000   1.0000   1.0000   1.0000
     1.0000   1.0000   1.0000   1.0000   1.0000   1.0000   1.0000   1.0000
     1.0000   1.0000   1.0000   1.0000   1.0000   1.0000   1.0000   1.0000
     1.0000   1.0000   1.0000   1.0000   1.0000   1.0000   1.0000   1.0000
     1.0000   1.0000   1.0000   1.0000   1.0000   1.0000   1.0000   0.0000
     0.0000   0.0000   0.0000   0.0000   0.0000   0.0000   0.0000   0.0000
     0.0000   0.0000   0.0000   0.0000   0.0000   0.0000   0.0000   0.0000
     0.0000   0.0000   0.0000   0.0000

          k = 0.4615 0.6360 0.0000 ( 24749 PWs)   bands (ev):

   -35.7291 -35.7282 -35.7177 -35.7170 -35.6914 -35.6907 -35.6797 -35.6789
   -35.6629 -35.6621 -35.3074 -35.3019 -35.2971 -35.2555 -35.2530 -28.6832
   -28.6809 -28.6767 -28.6746 -28.6619 -28.6598 -28.6556 -28.6535 -28.6529
   -28.6509 -10.5735 -10.3903 -10.0352  -8.7670  -8.6305  -3.7568  -3.4420
    -2.8657  -2.4229  -2.1110  -1.5438   0.0791   0.6649   0.8582   3.3650
     3.6990   3.9164   5.4413   5.8896   6.1907   7.5077   8.3398   8.5099
     8.8553   8.9903   9.3863   9.5726  10.1048  10.1771  10.3895  10.5828
    10.7657  11.1665  11.3075  11.5532

     occupation numbers 
     1.0000   1.0000   1.0000   1.0000   1.0000   1.0000   1.0000   1.0000
     1.0000   1.0000   1.0000   1.0000   1.0000   1.0000   1.0000   1.0000
     1.0000   1.0000   1.0000   1.0000   1.0000   1.0000   1.0000   1.0000
     1.0000   1.0000   1.0000   1.0000   1.0000   1.0000   1.0000   1.0000
     1.0000   1.0000   1.0000   1.0000   1.0000   1.0000   1.0000   0.0000
     0.0000   0.0000   0.0000   0.0000   0.0000   0.0000   0.0000   0.0000
     0.0000   0.0000   0.0000   0.0000   0.0000   0.0000   0.0000   0.0000
     0.0000   0.0000   0.0000   0.0000

          k = 0.4615 0.7284 0.0000 ( 24732 PWs)   bands (ev):

   -35.7305 -35.7297 -35.7236 -35.7228 -35.6924 -35.6916 -35.6801 -35.6793
   -35.6622 -35.6614 -35.3124 -35.3055 -35.2951 -35.2560 -35.2530 -28.6865
   -28.6841 -28.6753 -28.6732 -28.6659 -28.6638 -28.6581 -28.6560 -28.6498
   -28.6477 -10.5198 -10.3981 -10.1550  -8.8421  -8.4796  -3.9701  -3.0411
    -2.9361  -2.4193  -1.7253  -1.6605   0.0893   0.3861   0.9137   3.1417
     3.6594   3.7471   5.2613   5.7277   6.2750   6.7681   8.0892   8.6789
     8.9694   9.3379   9.5453   9.6867  10.1494  10.2943  10.6218  10.7485
    10.8952  11.2448  11.4145  12.0452

     occupation numbers 
     1.0000   1.0000   1.0000   1.0000   1.0000   1.0000   1.0000   1.0000
     1.0000   1.0000   1.0000   1.0000   1.0000   1.0000   1.0000   1.0000
     1.0000   1.0000   1.0000   1.0000   1.0000   1.0000   1.0000   1.0000
     1.0000   1.0000   1.0000   1.0000   1.0000   1.0000   1.0000   1.0000
     1.0000   1.0000   1.0000   1.0000   1.0000   1.0000   1.0000   0.0000
     0.0000   0.0000   0.0000   0.0000   0.0000   0.0000   0.0000   0.0000
     0.0000   0.0000   0.0000   0.0000   0.0000   0.0000   0.0000   0.0000
     0.0000   0.0000   0.0000   0.0000

          k = 0.4615 0.8207 0.0000 ( 24724 PWs)   bands (ev):

   -35.7307 -35.7298 -35.7207 -35.7199 -35.6932 -35.6924 -35.6820 -35.6812
   -35.6649 -35.6641 -35.3138 -35.3029 -35.2873 -35.2554 -35.2491 -28.6913
   -28.6889 -28.6773 -28.6752 -28.6724 -28.6703 -28.6605 -28.6583 -28.6478
   -28.6458 -10.4725 -10.4328 -10.2982  -8.8610  -8.3378  -4.0955  -2.8159
    -2.6155  -2.4707  -1.8486  -1.2828   0.1290   0.1791   0.7100   3.0951
     3.3102   3.7110   5.3551   5.4162   6.2932   6.3069   7.9389   8.8495
     9.0460   9.1152   9.3372   9.9133  10.0388  10.2673  10.7980  11.0161
    11.3823  11.7420  11.9817  12.1415

     occupation numbers 
     1.0000   1.0000   1.0000   1.0000   1.0000   1.0000   1.0000   1.0000
     1.0000   1.0000   1.0000   1.0000   1.0000   1.0000   1.0000   1.0000
     1.0000   1.0000   1.0000   1.0000   1.0000   1.0000   1.0000   1.0000
     1.0000   1.0000   1.0000   1.0000   1.0000   1.0000   1.0000   1.0000
     1.0000   1.0000   1.0000   1.0000   1.0000   1.0000   1.0000   0.0000
     0.0000   0.0000   0.0000   0.0000   0.0000   0.0000   0.0000   0.0000
     0.0000   0.0000   0.0000   0.0000   0.0000   0.0000   0.0000   0.0000
     0.0000   0.0000   0.0000   0.0000

          k = 0.4615-0.2878 0.0000 ( 24758 PWs)   bands (ev):

   -35.7327 -35.7318 -35.7224 -35.7216 -35.6949 -35.6941 -35.6813 -35.6805
   -35.6642 -35.6634 -35.3165 -35.3033 -35.2845 -35.2595 -35.2504 -28.6914
   -28.6889 -28.6785 -28.6764 -28.6739 -28.6717 -28.6595 -28.6574 -28.6452
   -28.6431 -10.6126 -10.4908 -10.2513  -8.8116  -8.2430  -4.1058  -2.6865
    -2.5795  -2.3386  -1.8574  -1.2014   0.1443   0.1978   0.5639   2.8026
     3.5213   3.7099   5.1535   5.4508   6.1381   6.3330   7.8618   8.6346
     8.9437   9.2351   9.4914   9.6728  10.2373  10.3162  10.8127  11.2814
    11.4403  11.8225  11.9891  12.2394

     occupation numbers 
     1.0000   1.0000   1.0000   1.0000   1.0000   1.0000   1.0000   1.0000
     1.0000   1.0000   1.0000   1.0000   1.0000   1.0000   1.0000   1.0000
     1.0000   1.0000   1.0000   1.0000   1.0000   1.0000   1.0000   1.0000
     1.0000   1.0000   1.0000   1.0000   1.0000   1.0000   1.0000   1.0000
     1.0000   1.0000   1.0000   1.0000   1.0000   1.0000   1.0000   0.0000
     0.0000   0.0000   0.0000   0.0000   0.0000   0.0000   0.0000   0.0000
     0.0000   0.0000   0.0000   0.0000   0.0000   0.0000   0.0000   0.0000
     0.0000   0.0000   0.0000   0.0000

          k = 0.4615-0.1954 0.0000 ( 24696 PWs)   bands (ev):

   -35.7320 -35.7311 -35.7225 -35.7216 -35.6919 -35.6911 -35.6844 -35.6836
   -35.6648 -35.6639 -35.3125 -35.3018 -35.2889 -35.2577 -35.2515 -28.6919
   -28.6894 -28.6783 -28.6761 -28.6722 -28.6701 -28.6616 -28.6595 -28.6490
   -28.6469 -10.7791 -10.5591 -10.1406  -8.7088  -8.2214  -3.9980  -2.7357
    -2.6514  -2.3994  -1.7318  -1.2665   0.0390   0.2990   0.7765   3.1549
     3.2517   3.7818   5.2779   5.4317   6.2072   6.4682   7.8503   8.3605
     8.7663   9.3118   9.6152   9.6855  10.1907  10.4999  10.8356  10.9233
    11.4409  11.5125  11.7923  11.9887

     occupation numbers 
     1.0000   1.0000   1.0000   1.0000   1.0000   1.0000   1.0000   1.0000
     1.0000   1.0000   1.0000   1.0000   1.0000   1.0000   1.0000   1.0000
     1.0000   1.0000   1.0000   1.0000   1.0000   1.0000   1.0000   1.0000
     1.0000   1.0000   1.0000   1.0000   1.0000   1.0000   1.0000   1.0000
     1.0000   1.0000   1.0000   1.0000   1.0000   1.0000   1.0000   0.0000
     0.0000   0.0000   0.0000   0.0000   0.0000   0.0000   0.0000   0.0000
     0.0000   0.0000   0.0000   0.0000   0.0000   0.0000   0.0000   0.0000
     0.0000   0.0000   0.0000   0.0000

          k = 0.4615-0.1030 0.0000 ( 24744 PWs)   bands (ev):

   -35.7330 -35.7321 -35.7258 -35.7250 -35.6943 -35.6935 -35.6825 -35.6817
   -35.6640 -35.6632 -35.3130 -35.3065 -35.3001 -35.2598 -35.2571 -28.6868
   -28.6844 -28.6764 -28.6742 -28.6653 -28.6632 -28.6583 -28.6562 -28.6506
   -28.6485 -10.8958 -10.6130 -10.0742  -8.5776  -8.2588  -3.7852  -3.0738
    -2.6022  -2.4714  -1.7297  -1.4272   0.1322   0.4580   0.9823   3.0747
     3.6831   3.8878   5.1022   5.7161   6.1986   6.9177   7.9589   8.1627
     8.6962   8.9613   9.2585   9.6202  10.0559  10.2846  10.7088  10.9408
    11.3383  11.3854  11.6746  11.8583

     occupation numbers 
     1.0000   1.0000   1.0000   1.0000   1.0000   1.0000   1.0000   1.0000
     1.0000   1.0000   1.0000   1.0000   1.0000   1.0000   1.0000   1.0000
     1.0000   1.0000   1.0000   1.0000   1.0000   1.0000   1.0000   1.0000
     1.0000   1.0000   1.0000   1.0000   1.0000   1.0000   1.0000   1.0000
     1.0000   1.0000   1.0000   1.0000   1.0000   1.0000   1.0000   0.0000
     0.0000   0.0000   0.0000   0.0000   0.0000   0.0000   0.0000   0.0000
     0.0000   0.0000   0.0000   0.0000   0.0000   0.0000   0.0000   0.0000
     0.0000   0.0000   0.0000   0.0000

          k = 0.4615-0.0107 0.0000 ( 24760 PWs)   bands (ev):

   -35.7343 -35.7334 -35.7196 -35.7189 -35.6913 -35.6905 -35.6838 -35.6831
   -35.6635 -35.6627 -35.3108 -35.3049 -35.3023 -35.2577 -35.2548 -28.6858
   -28.6835 -28.6785 -28.6765 -28.6634 -28.6613 -28.6581 -28.6559 -28.6541
   -28.6520 -10.9405 -10.6386 -10.0535  -8.5143  -8.2980  -3.5245  -3.4242
    -2.5735  -2.2107  -2.1180  -1.3907   0.2925   0.7285   0.8030   3.4411
     3.5515   3.9165   5.2676   5.8233   6.0815   7.6194   7.8181   8.1350
     8.1913   8.8182   9.1111   9.3003  10.0123  10.1707  10.8256  10.9246
    11.2468  11.3637  11.7096  11.8907

     occupation numbers 
     1.0000   1.0000   1.0000   1.0000   1.0000   1.0000   1.0000   1.0000
     1.0000   1.0000   1.0000   1.0000   1.0000   1.0000   1.0000   1.0000
     1.0000   1.0000   1.0000   1.0000   1.0000   1.0000   1.0000   1.0000
     1.0000   1.0000   1.0000   1.0000   1.0000   1.0000   1.0000   1.0000
     1.0000   1.0000   1.0000   1.0000   1.0000   1.0000   1.0000   0.0000
     0.0000   0.0000   0.0000   0.0000   0.0000   0.0000   0.0000   0.0000
     0.0000   0.0000   0.0000   0.0000   0.0000   0.0000   0.0000   0.0000
     0.0000   0.0000   0.0000   0.0000

          k = 0.4615 0.0817 0.0000 ( 24746 PWs)   bands (ev):

   -35.7358 -35.7349 -35.7260 -35.7253 -35.6907 -35.6899 -35.6871 -35.6864
   -35.6653 -35.6645 -35.3108 -35.3070 -35.3057 -35.2607 -35.2573 -28.6845
   -28.6823 -28.6779 -28.6757 -28.6653 -28.6632 -28.6574 -28.6553 -28.6489
   -28.6468 -10.9196 -10.6437 -10.1053  -8.6059  -8.2490  -3.7873  -3.0527
    -2.5576  -2.4387  -1.7436  -1.3739   0.1848   0.4891   1.0809   3.2115
     3.7597   3.8786   5.1398   5.8214   6.1638   6.9853   7.9344   8.1305
     8.6821   8.8047   9.2009   9.4859   9.9907  10.2592  10.6401  10.8943
    11.2246  11.3726  11.7062  11.7816

     occupation numbers 
     1.0000   1.0000   1.0000   1.0000   1.0000   1.0000   1.0000   1.0000
     1.0000   1.0000   1.0000   1.0000   1.0000   1.0000   1.0000   1.0000
     1.0000   1.0000   1.0000   1.0000   1.0000   1.0000   1.0000   1.0000
     1.0000   1.0000   1.0000   1.0000   1.0000   1.0000   1.0000   1.0000
     1.0000   1.0000   1.0000   1.0000   1.0000   1.0000   1.0000   0.0000
     0.0000   0.0000   0.0000   0.0000   0.0000   0.0000   0.0000   0.0000
     0.0000   0.0000   0.0000   0.0000   0.0000   0.0000   0.0000   0.0000
     0.0000   0.0000   0.0000   0.0000

          k = 0.4615 0.1741 0.0000 ( 24787 PWs)   bands (ev):

   -35.7370 -35.7361 -35.7248 -35.7241 -35.6905 -35.6898 -35.6870 -35.6861
   -35.6656 -35.6648 -35.3078 -35.3017 -35.2982 -35.2607 -35.2548 -28.6892
   -28.6868 -28.6797 -28.6774 -28.6730 -28.6708 -28.6591 -28.6569 -28.6473
   -28.6453 -10.8266 -10.6170 -10.1921  -8.7393  -8.2191  -3.9948  -2.7496
    -2.5677  -2.3194  -1.6780  -1.2148   0.1310   0.3610   0.9312   3.3444
     3.3679   3.7999   5.3194   5.5750   6.2253   6.4872   7.7940   8.3085
     8.7335   9.2358   9.4992   9.5648  10.1624  10.3446  10.7675  10.7977
    11.2809  11.5293  11.8605  12.0924

     occupation numbers 
     1.0000   1.0000   1.0000   1.0000   1.0000   1.0000   1.0000   1.0000
     1.0000   1.0000   1.0000   1.0000   1.0000   1.0000   1.0000   1.0000
     1.0000   1.0000   1.0000   1.0000   1.0000   1.0000   1.0000   1.0000
     1.0000   1.0000   1.0000   1.0000   1.0000   1.0000   1.0000   1.0000
     1.0000   1.0000   1.0000   1.0000   1.0000   1.0000   1.0000   0.0000
     0.0000   0.0000   0.0000   0.0000   0.0000   0.0000   0.0000   0.0000
     0.0000   0.0000   0.0000   0.0000   0.0000   0.0000   0.0000   0.0000
     0.0000   0.0000   0.0000   0.0000

     highest occupied, lowest unoccupied level (ev):     1.2301    2.2612

!    total energy              =    -804.24198406 Ry
     estimated scf accuracy    <       0.00000079 Ry

     convergence has been achieved in   4 iterations

     Using ACE for calculation of exact exchange
     ACE projected onto    60 (nbndproj) and applied to    60 (nbnd) bands
     BEWARE: negative dexx:  -0.304E-06

!!   total energy              =    -804.24198376 Ry
     Harris-Foulkes estimate   =    -804.24198449 Ry
     est. exchange err (dexx)  =       0.00000030 Ry
     - averaged Fock potential =      27.29484620 Ry
     + Fock energy (ACE)       =     -13.64739899 Ry

     EXX self-consistency reached

     Writing all to output data dir tmp/Sb2Te3-uatsx-c1-4.0.save/ :
     XML data file, charge density, pseudopotentials, collected wavefunctions

     init_run     :      3.66s CPU      3.91s WALL (       1 calls)
     electrons    :    578.66s CPU    586.58s WALL (       5 calls)

     Called by init_run:
     aceinit0     :      0.00s CPU      0.00s WALL (       1 calls)
     wfcinit      :      3.30s CPU      3.38s WALL (       1 calls)
     wfcinit:wfcr :      3.19s CPU      3.26s WALL (      85 calls)
     potinit      :      0.03s CPU      0.03s WALL (       1 calls)
     hinit0       :      0.29s CPU      0.45s WALL (       1 calls)

     Called by electrons:
     c_bands      :    535.55s CPU    542.30s WALL (      31 calls)
     sum_band     :     42.36s CPU     43.16s WALL (      31 calls)
     v_of_rho     :      0.52s CPU      0.53s WALL (      32 calls)
     v_h          :      0.05s CPU      0.05s WALL (      32 calls)
     v_xc         :      0.47s CPU      0.48s WALL (      32 calls)
     mix_rho      :      0.06s CPU      0.07s WALL (      31 calls)
     energy_londo :      0.05s CPU      0.05s WALL (       5 calls)

     Called by c_bands:
     init_us_2    :      1.57s CPU      1.63s WALL (    5355 calls)
     cegterg      :    530.19s CPU    536.72s WALL (    2635 calls)

     Called by sum_band:
     sum_band:wei :      0.00s CPU      0.00s WALL (      31 calls)
     sum_band:loo :     42.26s CPU     43.06s WALL (      31 calls)
     sum_band:buf :      0.56s CPU      0.58s WALL (    2635 calls)
     sum_band:ini :      0.81s CPU      0.84s WALL (    2635 calls)

     Called by *egterg:
     cdiaghg      :    139.81s CPU    140.52s WALL (   27917 calls)
     cegterg:over :     32.38s CPU     32.67s WALL (   25707 calls)
     cegterg:upda :      8.23s CPU      8.33s WALL (   25707 calls)
     cegterg:last :      9.14s CPU      9.22s WALL (    7669 calls)
     h_psi        :    324.24s CPU    329.57s WALL (   28427 calls)
     g_psi        :      1.45s CPU      1.47s WALL (   25707 calls)

     Called by h_psi:
     h_psi:calbec :     22.06s CPU     22.29s WALL (   28427 calls)
     vloc_psi     :    282.82s CPU    287.70s WALL (   28427 calls)
     add_vuspsi   :      5.77s CPU      5.85s WALL (   28427 calls)

     General routines
     calbec       :     33.81s CPU     34.24s WALL (   50145 calls)
     fft          :      0.79s CPU      0.96s WALL (     314 calls)
     ffts         :      0.04s CPU      0.05s WALL (      31 calls)
     fftw         :    307.84s CPU    313.17s WALL ( 1252846 calls)
     fftc         :   4974.76s CPU   5004.86s WALL ( 3060000 calls)
     fftcw        :     20.12s CPU     20.43s WALL (   76500 calls)

     Parallel routines

     EXX routines
     exx_grid     :      0.00s CPU      0.00s WALL (       1 calls)
     exxinit      :    110.00s CPU    111.05s WALL (       5 calls)
     vexx         :   5226.11s CPU   5258.10s WALL (     425 calls)
     matcalc      :     11.92s CPU     12.08s WALL (   21718 calls)
     aceupdate    :      0.15s CPU      0.15s WALL (     425 calls)
     vexxace      :     14.71s CPU     14.91s WALL (   20528 calls)
     aceinit      :   5226.83s CPU   5258.85s WALL (     425 calls)

     PWSCF        :      1h39m CPU      1h40m WALL


   This run was terminated on:   1:48:21  15May2025            

=------------------------------------------------------------------------------=
   JOB DONE.
=------------------------------------------------------------------------------=
